
     Program PWSCF v.6.3MaX starts on  7Apr2024 at 22:17:32 

     This program is part of the open-source Quantum ESPRESSO suite
     for quantum simulation of materials; please cite
         "P. Giannozzi et al., J. Phys.:Condens. Matter 21 395502 (2009);
         "P. Giannozzi et al., J. Phys.:Condens. Matter 29 465901 (2017);
          URL http://www.quantum-espresso.org", 
     in publications or presentations arising from this work. More details at
     http://www.quantum-espresso.org/quote

     Parallel version (MPI), running on     5 processors

     MPI processes distributed on     1 nodes
     R & G space division:  proc/nbgrp/npool/nimage =       5
     Waiting for input...
     Reading input from standard input

     Current dimensions of program PWSCF are:
     Max number of different atomic species (ntypx) = 10
     Max number of k-points (npk) =  40000
     Max angular momentum in pseudopotentials (lmaxx) =  3

     Subspace diagonalization in iterative solution of the eigenvalue problem:
     a serial algorithm will be used


     Parallelization info
     --------------------
     sticks:   dense  smooth     PW     G-vecs:    dense   smooth      PW
     Min         129     129     39                 2168     2168     365
     Max         130     130     40                 2171     2171     368
     Sum         649     649    199                10849    10849    1837



     bravais-lattice index     =            2
     lattice parameter (alat)  =       6.8300  a.u.
     unit-cell volume          =      79.6530 (a.u.)^3
     number of atoms/cell      =            1
     number of atomic types    =            1
     number of electrons       =        19.00
     number of Kohn-Sham states=           14
     kinetic-energy cutoff     =     100.0000  Ry
     charge density cutoff     =     400.0000  Ry
     convergence threshold     =      1.0E-08
     mixing beta               =       0.7000
     number of iterations used =            8  plain     mixing
     Exchange-correlation      = LDA ( 1  1  0  0 0 0)

     celldm(1)=   6.830000  celldm(2)=   0.000000  celldm(3)=   0.000000
     celldm(4)=   0.000000  celldm(5)=   0.000000  celldm(6)=   0.000000

     crystal axes: (cart. coord. in units of alat)
               a(1) = (  -0.500000   0.000000   0.500000 )  
               a(2) = (   0.000000   0.500000   0.500000 )  
               a(3) = (  -0.500000   0.500000   0.000000 )  

     reciprocal axes: (cart. coord. in units 2 pi/alat)
               b(1) = ( -1.000000 -1.000000  1.000000 )  
               b(2) = (  1.000000  1.000000  1.000000 )  
               b(3) = ( -1.000000  1.000000 -1.000000 )  


     PseudoPot. # 1 for Fr read from file:
     /home/lorenzo/pseudos/Fr/Fr.pz-spdn-rrkjus_psl.1.0.0.UPF
     MD5 check sum: 5665a43a3d1ea02b0b7dc7a0ae9ace04
     Pseudo is Ultrasoft + core correction, Zval = 19.0
     Generated using "atomic" code by A. Dal Corso v.6.2.2
     Using radial grid of 1287 points,  6 beta functions with: 
                l(1) =   0
                l(2) =   0
                l(3) =   1
                l(4) =   1
                l(5) =   2
                l(6) =   2
     Q(r) pseudized with 0 coefficients 


     atomic species   valence    mass     pseudopotential
        Fr            19.00   223.00000     Fr( 1.00)

     48 Sym. Ops., with inversion, found



   Cartesian axes

     site n.     atom                  positions (alat units)
         1           Fr  tau(   1) = (   0.0000000   0.0000000   0.0000000  )

     number of k points=    20  gaussian smearing, width (Ry)=  0.0100
                       cart. coord. in units 2pi/alat
        k(    1) = (   0.0000000   0.0000000   0.0000000), wk =   0.0058309
        k(    2) = (  -0.1428571   0.1428571  -0.1428571), wk =   0.0466472
        k(    3) = (  -0.2857143   0.2857143  -0.2857143), wk =   0.0466472
        k(    4) = (  -0.4285714   0.4285714  -0.4285714), wk =   0.0466472
        k(    5) = (   0.0000000   0.2857143   0.0000000), wk =   0.0349854
        k(    6) = (  -0.1428571   0.4285714  -0.1428571), wk =   0.1399417
        k(    7) = (  -0.2857143   0.5714286  -0.2857143), wk =   0.1399417
        k(    8) = (   0.5714286  -0.2857143   0.5714286), wk =   0.1399417
        k(    9) = (   0.4285714  -0.1428571   0.4285714), wk =   0.1399417
        k(   10) = (   0.2857143  -0.0000000   0.2857143), wk =   0.0699708
        k(   11) = (   0.0000000   0.5714286   0.0000000), wk =   0.0349854
        k(   12) = (  -0.1428571   0.7142857  -0.1428571), wk =   0.1399417
        k(   13) = (   0.7142857  -0.1428571   0.7142857), wk =   0.1399417
        k(   14) = (   0.5714286   0.0000000   0.5714286), wk =   0.0699708
        k(   15) = (   0.0000000   0.8571429   0.0000000), wk =   0.0349854
        k(   16) = (   0.8571429  -0.0000000   0.8571429), wk =   0.0699708
        k(   17) = (  -0.2857143   0.5714286   0.0000000), wk =   0.1399417
        k(   18) = (   0.5714286  -0.2857143   0.8571429), wk =   0.2798834
        k(   19) = (   0.7142857  -0.1428571   1.0000000), wk =   0.1399417
        k(   20) = (   0.5714286   0.0000000   0.8571429), wk =   0.1399417

     Dense  grid:    10849 G-vectors     FFT dimensions: (  32,  32,  32)

     Estimated max dynamical RAM per process >      11.08 MB

     Estimated total dynamical RAM >      55.39 MB

     Initial potential from superposition of free atoms

     starting charge   18.97647, renormalised to   19.00000
     Starting wfcs are   10 randomized atomic wfcs +    4 random wfcs

     total cpu time spent up to now is        1.3 secs

     Self-consistent Calculation

     iteration #  1     ecut=   100.00 Ry     beta= 0.70
     Davidson diagonalization with overlap
     ethr =  1.00E-02,  avg # of iterations =  4.7

     Threshold (ethr) on eigenvalues was too large:
     Diagonalizing with lowered threshold

     Davidson diagonalization with overlap
     ethr =  9.85E-05,  avg # of iterations =  1.9

     total cpu time spent up to now is        2.3 secs

     total energy              =    -282.49810314 Ry
     Harris-Foulkes estimate   =    -282.51107216 Ry
     estimated scf accuracy    <       0.01867042 Ry

     iteration #  2     ecut=   100.00 Ry     beta= 0.70
     Davidson diagonalization with overlap
     ethr =  9.83E-05,  avg # of iterations =  2.0

     total cpu time spent up to now is        2.7 secs

     total energy              =    -282.50154777 Ry
     Harris-Foulkes estimate   =    -282.50210554 Ry
     estimated scf accuracy    <       0.00072811 Ry

     iteration #  3     ecut=   100.00 Ry     beta= 0.70
     Davidson diagonalization with overlap
     ethr =  3.83E-06,  avg # of iterations =  2.8

     total cpu time spent up to now is        3.3 secs

     total energy              =    -282.50168924 Ry
     Harris-Foulkes estimate   =    -282.50170539 Ry
     estimated scf accuracy    <       0.00002633 Ry

     iteration #  4     ecut=   100.00 Ry     beta= 0.70
     Davidson diagonalization with overlap
     ethr =  1.39E-07,  avg # of iterations =  2.0

     total cpu time spent up to now is        3.6 secs

     total energy              =    -282.50169237 Ry
     Harris-Foulkes estimate   =    -282.50169241 Ry
     estimated scf accuracy    <       0.00000010 Ry

     iteration #  5     ecut=   100.00 Ry     beta= 0.70
     Davidson diagonalization with overlap
     ethr =  5.48E-10,  avg # of iterations =  2.3

     total cpu time spent up to now is        4.1 secs

     End of self-consistent calculation

          k = 0.0000 0.0000 0.0000 (  1363 PWs)   bands (ev):

    -9.5171  -9.5171  -9.5171  -9.1694  -9.1694   9.0932  46.8827  46.8827
    46.8827  48.0959  53.6721  53.6721  53.6721  57.5355

          k =-0.1429 0.1429-0.1429 (  1354 PWs)   bands (ev):

    -9.5101  -9.4607  -9.4607  -9.1628  -9.1628   9.9107  40.0853  45.7918
    45.7918  47.9732  55.2462  55.5440  55.5440  56.1301

          k =-0.2857 0.2857-0.2857 (  1356 PWs)   bands (ev):

    -9.5022  -9.4255  -9.4255  -9.0528  -9.0528  12.3539  31.4556  44.0033
    44.0033  47.9918  52.5576  53.2188  53.2188  59.6252

          k =-0.4286 0.4286-0.4286 (  1344 PWs)   bands (ev):

    -9.5028  -9.4554  -9.4554  -8.9028  -8.9028  16.0262  24.5140  42.8126
    42.8126  47.8776  51.1222  51.7609  51.7609  64.1191

          k = 0.0000 0.2857 0.0000 (  1343 PWs)   bands (ev):

    -9.5795  -9.3910  -9.3910  -9.2347  -9.1162  10.1828  42.8414  42.8414
    43.2382  46.1633  50.5823  57.3761  58.1716  58.1716

          k =-0.1429 0.4286-0.1429 (  1348 PWs)   bands (ev):

    -9.5888  -9.3518  -9.3103  -9.2005  -9.0182  12.0874  34.6517  40.7750
    41.9008  46.4908  49.9697  57.0395  57.9517  58.3917

          k =-0.2857 0.5714-0.2857 (  1353 PWs)   bands (ev):

    -9.5460  -9.3909  -9.3333  -9.0569  -8.8868  15.4470  27.1473  39.1713
    40.1429  45.5706  54.9426  55.4031  56.1115  57.4939

          k = 0.5714-0.2857 0.5714 (  1346 PWs)   bands (ev):

    -9.5028  -9.4080  -9.3580  -8.9580  -8.9099  17.5701  23.9881  37.2769
    41.2050  46.0407  53.6357  53.8223  57.9934  62.6772

          k = 0.4286-0.1429 0.4286 (  1350 PWs)   bands (ev):

    -9.4573  -9.4372  -9.3407  -9.0951  -8.9644  14.1961  29.4947  36.8839
    43.8805  47.8506  52.3146  53.2808  58.1815  59.4678

          k = 0.2857-0.0000 0.2857 (  1353 PWs)   bands (ev):

    -9.5063  -9.4054  -9.3787  -9.2145  -9.0651  11.2727  36.9291  38.6081
    46.9453  50.2399  51.1128  53.5098  54.4332  56.7090

          k = 0.0000 0.5714 0.0000 (  1343 PWs)   bands (ev):

    -9.7187  -9.3977  -9.0990  -9.0990  -8.9959  13.4462  35.5219  38.1797
    38.1797  44.0819  44.6498  63.0744  63.0744  64.4807

          k =-0.1429 0.7143-0.1429 (  1331 PWs)   bands (ev):

    -9.7085  -9.4401  -9.0768  -9.0073  -8.8752  16.3166  30.0197  34.4137
    37.1527  43.6780  47.9035  60.7795  61.9071  65.5726

          k = 0.7143-0.1429 0.7143 (  1341 PWs)   bands (ev):

    -9.6137  -9.3166  -9.1148  -9.0771  -8.8978  19.3218  25.9693  31.0056
    37.9746  44.0310  54.7691  58.6626  59.5449  65.0456

          k = 0.5714 0.0000 0.5714 (  1338 PWs)   bands (ev):

    -9.5186  -9.2863  -9.1509  -9.0792  -9.0687  17.3108  28.7415  30.1412
    40.5225  45.4481  56.8680  57.2361  59.2564  60.0201

          k = 0.0000 0.8571 0.0000 (  1339 PWs)   bands (ev):

    -9.8293  -9.5426  -8.8986  -8.8553  -8.8553  18.6212  27.0851  35.5750
    35.5750  42.6799  43.0516  64.1280  68.8883  68.8885

          k = 0.8571-0.0000 0.8571 (  1338 PWs)   bands (ev):

    -9.7622  -9.5070  -8.9299  -8.8944  -8.8513  20.6813  25.2956  31.7871
    35.8686  42.9757  47.1942  62.4143  66.2838  67.9597

          k =-0.2857 0.5714 0.0000 (  1337 PWs)   bands (ev):

    -9.5726  -9.3906  -9.2271  -9.1099  -8.9487  14.4810  32.0816  34.3956
    39.6691  48.7960  49.0427  54.8695  60.2732  63.2799

          k = 0.5714-0.2857 0.8571 (  1341 PWs)   bands (ev):

    -9.4829  -9.4172  -9.1943  -9.0679  -8.9141  17.9214  26.5854  33.1284
    37.0185  48.3483  52.2096  56.1573  61.4687  62.2745

          k = 0.7143-0.1429 1.0000 (  1344 PWs)   bands (ev):

    -9.6522  -9.4590  -9.0826  -8.9380  -8.8570  19.2700  27.4862  32.0553
    33.5987  47.6870  47.7000  58.1742  64.0145  68.3972

          k = 0.5714 0.0000 0.8571 (  1356 PWs)   bands (ev):

    -9.5160  -9.3203  -9.2363  -9.0460  -8.8604  20.3983  27.7567  28.4722
    34.0773  48.5050  54.9131  55.4922  57.8917  65.9239

     the Fermi energy is    47.0187 ev

!    total energy              =    -282.50169241 Ry
     Harris-Foulkes estimate   =    -282.50169241 Ry
     estimated scf accuracy    <          1.3E-09 Ry

     The total energy is the sum of the following terms:

     one-electron contribution =      -4.48113651 Ry
     hartree contribution      =      28.20977346 Ry
     xc contribution           =     -63.89700640 Ry
     ewald contribution        =    -242.33311988 Ry
     smearing contrib. (-TS)   =      -0.00020308 Ry

     convergence has been achieved in   5 iterations

     Forces acting on atoms (cartesian axes, Ry/au):

     atom    1 type  1   force =     0.00000000    0.00000000    0.00000000

     Total force =     0.000000     Total SCF correction =     0.000000


     Computing stress (Cartesian axis) and pressure

          total   stress  (Ry/bohr**3)                   (kbar)     P= 6983.19
   0.04747080   0.00000000   0.00000000       6983.19      0.00      0.00
   0.00000000   0.04747080   0.00000000          0.00   6983.19      0.00
  -0.00000000   0.00000000   0.04747080         -0.00      0.00   6983.19


     Writing output data file Fr.save/

     init_run     :      0.36s CPU      0.37s WALL (       1 calls)
     electrons    :      2.63s CPU      2.82s WALL (       1 calls)
     forces       :      0.06s CPU      0.06s WALL (       1 calls)
     stress       :      0.18s CPU      0.18s WALL (       1 calls)

     Called by init_run:
     wfcinit      :      0.11s CPU      0.12s WALL (       1 calls)
     potinit      :      0.01s CPU      0.01s WALL (       1 calls)
     hinit0       :      0.22s CPU      0.22s WALL (       1 calls)

     Called by electrons:
     c_bands      :      2.13s CPU      2.29s WALL (       6 calls)
     sum_band     :      0.42s CPU      0.44s WALL (       6 calls)
     v_of_rho     :      0.01s CPU      0.01s WALL (       6 calls)
     newd         :      0.07s CPU      0.08s WALL (       6 calls)
     mix_rho      :      0.00s CPU      0.00s WALL (       6 calls)

     Called by c_bands:
     init_us_2    :      0.05s CPU      0.05s WALL (     300 calls)
     cegterg      :      2.06s CPU      2.22s WALL (     120 calls)

     Called by sum_band:
     sum_band:bec :      0.00s CPU      0.00s WALL (     120 calls)
     addusdens    :      0.07s CPU      0.07s WALL (       6 calls)

     Called by *egterg:
     h_psi        :      1.52s CPU      1.66s WALL (     452 calls)
     s_psi        :      0.05s CPU      0.05s WALL (     452 calls)
     g_psi        :      0.00s CPU      0.00s WALL (     312 calls)
     cdiaghg      :      0.21s CPU      0.22s WALL (     412 calls)

     Called by h_psi:
     h_psi:pot    :      1.51s CPU      1.65s WALL (     452 calls)
     h_psi:calbec :      0.09s CPU      0.09s WALL (     452 calls)
     vloc_psi     :      1.37s CPU      1.50s WALL (     452 calls)
     add_vuspsi   :      0.05s CPU      0.05s WALL (     452 calls)

     General routines
     calbec       :      0.15s CPU      0.16s WALL (     672 calls)
     fft          :      0.02s CPU      0.02s WALL (      34 calls)
     ffts         :      0.00s CPU      0.00s WALL (       6 calls)
     fftw         :      1.53s CPU      1.67s WALL (   10826 calls)

     Parallel routines
     fft_scatt_xy :      0.13s CPU      0.15s WALL (   10866 calls)
     fft_scatt_yz :      0.62s CPU      0.67s WALL (   10866 calls)

     PWSCF        :     4.18s CPU         4.48s WALL


   This run was terminated on:  22:17:37   7Apr2024            

=------------------------------------------------------------------------------=
   JOB DONE.
=------------------------------------------------------------------------------=
