
     Program PWSCF v.6.3MaX starts on  7Apr2024 at 22:48:12 

     This program is part of the open-source Quantum ESPRESSO suite
     for quantum simulation of materials; please cite
         "P. Giannozzi et al., J. Phys.:Condens. Matter 21 395502 (2009);
         "P. Giannozzi et al., J. Phys.:Condens. Matter 29 465901 (2017);
          URL http://www.quantum-espresso.org", 
     in publications or presentations arising from this work. More details at
     http://www.quantum-espresso.org/quote

     Parallel version (MPI), running on     5 processors

     MPI processes distributed on     1 nodes
     R & G space division:  proc/nbgrp/npool/nimage =       5
     Waiting for input...
     Reading input from standard input

     Current dimensions of program PWSCF are:
     Max number of different atomic species (ntypx) = 10
     Max number of k-points (npk) =  40000
     Max angular momentum in pseudopotentials (lmaxx) =  3

     Subspace diagonalization in iterative solution of the eigenvalue problem:
     a serial algorithm will be used


     Parallelization info
     --------------------
     sticks:   dense  smooth     PW     G-vecs:    dense   smooth      PW
     Min          87      87     30                 1245     1245     227
     Max          88      88     31                 1247     1247     228
     Sum         439     439    151                 6231     6231    1139



     bravais-lattice index     =            2
     lattice parameter (alat)  =       6.8300  a.u.
     unit-cell volume          =      79.6530 (a.u.)^3
     number of atoms/cell      =            1
     number of atomic types    =            1
     number of electrons       =        19.00
     number of Kohn-Sham states=           14
     kinetic-energy cutoff     =      70.0000  Ry
     charge density cutoff     =     280.0000  Ry
     convergence threshold     =      1.0E-08
     mixing beta               =       0.7000
     number of iterations used =            8  plain     mixing
     Exchange-correlation      = LDA ( 1  1  0  0 0 0)

     celldm(1)=   6.830000  celldm(2)=   0.000000  celldm(3)=   0.000000
     celldm(4)=   0.000000  celldm(5)=   0.000000  celldm(6)=   0.000000

     crystal axes: (cart. coord. in units of alat)
               a(1) = (  -0.500000   0.000000   0.500000 )  
               a(2) = (   0.000000   0.500000   0.500000 )  
               a(3) = (  -0.500000   0.500000   0.000000 )  

     reciprocal axes: (cart. coord. in units 2 pi/alat)
               b(1) = ( -1.000000 -1.000000  1.000000 )  
               b(2) = (  1.000000  1.000000  1.000000 )  
               b(3) = ( -1.000000  1.000000 -1.000000 )  


     PseudoPot. # 1 for Fr read from file:
     /home/lorenzo/pseudos/Fr/Fr.pz-spdn-rrkjus_psl.1.0.0.UPF
     MD5 check sum: 5665a43a3d1ea02b0b7dc7a0ae9ace04
     Pseudo is Ultrasoft + core correction, Zval = 19.0
     Generated using "atomic" code by A. Dal Corso v.6.2.2
     Using radial grid of 1287 points,  6 beta functions with: 
                l(1) =   0
                l(2) =   0
                l(3) =   1
                l(4) =   1
                l(5) =   2
                l(6) =   2
     Q(r) pseudized with 0 coefficients 


     atomic species   valence    mass     pseudopotential
        Fr            19.00   223.00000     Fr( 1.00)

     48 Sym. Ops., with inversion, found



   Cartesian axes

     site n.     atom                  positions (alat units)
         1           Fr  tau(   1) = (   0.0000000   0.0000000   0.0000000  )

     number of k points=    16  gaussian smearing, width (Ry)=  0.0100
                       cart. coord. in units 2pi/alat
        k(    1) = (   0.0000000   0.0000000   0.0000000), wk =   0.0092593
        k(    2) = (  -0.1666667   0.1666667  -0.1666667), wk =   0.0740741
        k(    3) = (  -0.3333333   0.3333333  -0.3333333), wk =   0.0740741
        k(    4) = (   0.5000000  -0.5000000   0.5000000), wk =   0.0370370
        k(    5) = (   0.0000000   0.3333333   0.0000000), wk =   0.0555556
        k(    6) = (  -0.1666667   0.5000000  -0.1666667), wk =   0.2222222
        k(    7) = (   0.6666667  -0.3333333   0.6666667), wk =   0.2222222
        k(    8) = (   0.5000000  -0.1666667   0.5000000), wk =   0.2222222
        k(    9) = (   0.3333333   0.0000000   0.3333333), wk =   0.1111111
        k(   10) = (   0.0000000   0.6666667   0.0000000), wk =   0.0555556
        k(   11) = (   0.8333333  -0.1666667   0.8333333), wk =   0.2222222
        k(   12) = (   0.6666667  -0.0000000   0.6666667), wk =   0.1111111
        k(   13) = (   0.0000000  -1.0000000   0.0000000), wk =   0.0277778
        k(   14) = (   0.6666667  -0.3333333   1.0000000), wk =   0.2222222
        k(   15) = (   0.5000000  -0.1666667   0.8333333), wk =   0.2222222
        k(   16) = (  -0.3333333  -1.0000000   0.0000000), wk =   0.1111111

     Dense  grid:     6231 G-vectors     FFT dimensions: (  25,  25,  25)

     Estimated max dynamical RAM per process >       6.62 MB

     Estimated total dynamical RAM >      33.12 MB

     Check: negative/imaginary core charge=   -0.000002    0.000000

     Initial potential from superposition of free atoms

     starting charge   18.97647, renormalised to   19.00000
     Starting wfcs are   10 randomized atomic wfcs +    4 random wfcs

     total cpu time spent up to now is        1.1 secs

     Self-consistent Calculation

     iteration #  1     ecut=    70.00 Ry     beta= 0.70
     Davidson diagonalization with overlap
     ethr =  1.00E-02,  avg # of iterations =  4.6

     Threshold (ethr) on eigenvalues was too large:
     Diagonalizing with lowered threshold

     Davidson diagonalization with overlap
     ethr =  9.16E-05,  avg # of iterations =  1.9

     total cpu time spent up to now is        1.6 secs

     total energy              =    -282.50726184 Ry
     Harris-Foulkes estimate   =    -282.51920236 Ry
     estimated scf accuracy    <       0.01721640 Ry

     iteration #  2     ecut=    70.00 Ry     beta= 0.70
     Davidson diagonalization with overlap
     ethr =  9.06E-05,  avg # of iterations =  2.2

     total cpu time spent up to now is        1.8 secs

     total energy              =    -282.51050104 Ry
     Harris-Foulkes estimate   =    -282.51100909 Ry
     estimated scf accuracy    <       0.00067416 Ry

     iteration #  3     ecut=    70.00 Ry     beta= 0.70
     Davidson diagonalization with overlap
     ethr =  3.55E-06,  avg # of iterations =  2.9

     total cpu time spent up to now is        2.1 secs

     total energy              =    -282.51062319 Ry
     Harris-Foulkes estimate   =    -282.51063790 Ry
     estimated scf accuracy    <       0.00002477 Ry

     iteration #  4     ecut=    70.00 Ry     beta= 0.70
     Davidson diagonalization with overlap
     ethr =  1.30E-07,  avg # of iterations =  2.0

     total cpu time spent up to now is        2.2 secs

     total energy              =    -282.51062598 Ry
     Harris-Foulkes estimate   =    -282.51062606 Ry
     estimated scf accuracy    <       0.00000014 Ry

     iteration #  5     ecut=    70.00 Ry     beta= 0.70
     Davidson diagonalization with overlap
     ethr =  7.62E-10,  avg # of iterations =  2.1

     total cpu time spent up to now is        2.4 secs

     End of self-consistent calculation

          k = 0.0000 0.0000 0.0000 (   749 PWs)   bands (ev):

    -9.4782  -9.4782  -9.4782  -9.1315  -9.1315   9.1019  46.8931  46.8931
    46.8931  48.1012  53.6793  53.6793  53.6793  57.5238

          k =-0.1667 0.1667-0.1667 (   791 PWs)   bands (ev):

    -9.4723  -9.4112  -9.4112  -9.1208  -9.1208  10.2153  38.6019  45.5042
    45.5042  47.9865  54.8017  55.5688  55.5688  56.1296

          k =-0.3333 0.3333-0.3333 (   787 PWs)   bands (ev):

    -9.4654  -9.3992  -9.3992  -8.9593  -8.9593  13.5102  28.8748  43.5140
    43.5140  47.9626  51.9095  52.5652  52.5652  61.1954

          k = 0.5000-0.5000 0.5000 (   778 PWs)   bands (ev):

    -9.4656  -9.4262  -9.4262  -8.8426  -8.8426  17.1347  23.0076  42.6616
    42.6616  47.8383  50.9702  51.5845  51.5845  65.1420

          k = 0.0000 0.3333 0.0000 (   793 PWs)   bands (ev):

    -9.5640  -9.3132  -9.3132  -9.2229  -9.0639  10.5858  41.9784  41.9784
    42.1936  45.7595  49.1986  58.4264  59.0587  59.0587

          k =-0.1667 0.5000-0.1667 (   795 PWs)   bands (ev):

    -9.5676  -9.3264  -9.2397  -9.1234  -8.9282  13.1656  32.5487  39.8620
    40.1567  45.5752  50.4384  57.8917  57.9369  58.7576

          k = 0.6667-0.3333 0.6667 (   792 PWs)   bands (ev):

    -9.5080  -9.3408  -9.2788  -8.9919  -8.8353  17.2848  24.9515  37.0041
    39.9097  45.2483  55.2777  55.2902  58.1820  58.7328

          k = 0.5000-0.1667 0.5000 (   792 PWs)   bands (ev):

    -9.4396  -9.3726  -9.2844  -8.9902  -8.9280  15.8909  27.1094  35.5883
    42.3234  46.6763  53.5251  54.0391  59.9728  60.3284

          k = 0.3333 0.0000 0.3333 (   791 PWs)   bands (ev):

    -9.4569  -9.3730  -9.2977  -9.1851  -8.9904  12.0643  35.1568  37.0171
    46.1903  49.9261  51.1039  53.7234  54.7398  57.0974

          k = 0.0000 0.6667 0.0000 (   797 PWs)   bands (ev):

    -9.7304  -9.4224  -8.9635  -8.9635  -8.9218  15.0068  32.5967  37.0518
    37.0518  43.6276  43.6956  64.3429  64.8819  64.8819

          k = 0.8333-0.1667 0.8333 (   779 PWs)   bands (ev):

    -9.6851  -9.4273  -8.9771  -8.9195  -8.8156  18.6379  27.5794  32.0719
    36.5367  43.3105  48.5932  61.2203  63.0545  68.4128

          k = 0.6667-0.0000 0.6667 (   792 PWs)   bands (ev):

    -9.5519  -9.1839  -9.1140  -9.0454  -8.9481  19.3779  28.0251  28.0605
    38.5493  44.3107  57.1683  58.7607  59.7640  62.3443

          k = 0.0000-1.0000 0.0000 (   790 PWs)   bands (ev):

    -9.8125  -9.5318  -8.8492  -8.7810  -8.7810  20.6354  24.6557  35.2450
    35.2450  42.4629  42.9331  64.0809  70.0412  70.9673

          k = 0.6667-0.3333 1.0000 (   781 PWs)   bands (ev):

    -9.5157  -9.3775  -9.1767  -8.9722  -8.9089  16.3168  30.1353  32.5879
    37.2695  49.2769  49.6785  54.5995  62.3862  64.7967

          k = 0.5000-0.1667 0.8333 (   780 PWs)   bands (ev):

    -9.4311  -9.3568  -9.1437  -9.0572  -8.8506  19.4568  26.0660  31.5202
    35.1974  49.1437  52.4427  58.1503  58.1968  63.9709

          k =-0.3333-1.0000 0.0000 (   772 PWs)   bands (ev):

    -9.5671  -9.4132  -9.0536  -8.9574  -8.7798  20.8599  26.3807  30.9665
    32.4926  48.7205  48.9195  58.0662  60.9541  68.4360

     the Fermi energy is    46.5657 ev

!    total energy              =    -282.51062602 Ry
     Harris-Foulkes estimate   =    -282.51062602 Ry
     estimated scf accuracy    <          1.8E-09 Ry

     The total energy is the sum of the following terms:

     one-electron contribution =      -4.51054703 Ry
     hartree contribution      =      28.23552706 Ry
     xc contribution           =     -63.90216235 Ry
     ewald contribution        =    -242.33311988 Ry
     smearing contrib. (-TS)   =      -0.00032383 Ry

     convergence has been achieved in   5 iterations

     Forces acting on atoms (cartesian axes, Ry/au):

     atom    1 type  1   force =     0.00000000    0.00000000    0.00000000

     Total force =     0.000000     Total SCF correction =     0.000000


     Computing stress (Cartesian axis) and pressure

          total   stress  (Ry/bohr**3)                   (kbar)     P= 6966.51
   0.04735740  -0.00000000  -0.00000000       6966.51     -0.00     -0.00
  -0.00000000   0.04735740   0.00000000         -0.00   6966.51      0.00
  -0.00000000   0.00000000   0.04735740         -0.00      0.00   6966.51


     Writing output data file Fr.save/

     init_run     :      0.27s CPU      0.27s WALL (       1 calls)
     electrons    :      1.23s CPU      1.29s WALL (       1 calls)
     forces       :      0.03s CPU      0.03s WALL (       1 calls)
     stress       :      0.09s CPU      0.09s WALL (       1 calls)

     Called by init_run:
     wfcinit      :      0.06s CPU      0.06s WALL (       1 calls)
     potinit      :      0.01s CPU      0.01s WALL (       1 calls)
     hinit0       :      0.19s CPU      0.19s WALL (       1 calls)

     Called by electrons:
     c_bands      :      1.00s CPU      1.05s WALL (       6 calls)
     sum_band     :      0.20s CPU      0.20s WALL (       6 calls)
     v_of_rho     :      0.00s CPU      0.00s WALL (       6 calls)
     newd         :      0.04s CPU      0.04s WALL (       6 calls)
     mix_rho      :      0.00s CPU      0.00s WALL (       6 calls)

     Called by c_bands:
     init_us_2    :      0.03s CPU      0.03s WALL (     240 calls)
     cegterg      :      0.96s CPU      1.01s WALL (      96 calls)

     Called by sum_band:
     sum_band:bec :      0.00s CPU      0.00s WALL (      96 calls)
     addusdens    :      0.04s CPU      0.04s WALL (       6 calls)

     Called by *egterg:
     h_psi        :      0.68s CPU      0.72s WALL (     363 calls)
     s_psi        :      0.02s CPU      0.02s WALL (     363 calls)
     g_psi        :      0.00s CPU      0.00s WALL (     251 calls)
     cdiaghg      :      0.15s CPU      0.15s WALL (     331 calls)

     Called by h_psi:
     h_psi:pot    :      0.68s CPU      0.72s WALL (     363 calls)
     h_psi:calbec :      0.03s CPU      0.03s WALL (     363 calls)
     vloc_psi     :      0.62s CPU      0.66s WALL (     363 calls)
     add_vuspsi   :      0.02s CPU      0.02s WALL (     363 calls)

     General routines
     calbec       :      0.05s CPU      0.05s WALL (     539 calls)
     fft          :      0.01s CPU      0.01s WALL (      34 calls)
     ffts         :      0.00s CPU      0.00s WALL (       6 calls)
     fftw         :      0.70s CPU      0.74s WALL (    8618 calls)

     Parallel routines
     fft_scatt_xy :      0.06s CPU      0.06s WALL (    8658 calls)
     fft_scatt_yz :      0.19s CPU      0.20s WALL (    8658 calls)

     PWSCF        :     2.51s CPU         2.64s WALL


   This run was terminated on:  22:48:15   7Apr2024            

=------------------------------------------------------------------------------=
   JOB DONE.
=------------------------------------------------------------------------------=
