
     Program PWSCF v.6.3MaX starts on  7Apr2024 at 22:30:31 

     This program is part of the open-source Quantum ESPRESSO suite
     for quantum simulation of materials; please cite
         "P. Giannozzi et al., J. Phys.:Condens. Matter 21 395502 (2009);
         "P. Giannozzi et al., J. Phys.:Condens. Matter 29 465901 (2017);
          URL http://www.quantum-espresso.org", 
     in publications or presentations arising from this work. More details at
     http://www.quantum-espresso.org/quote

     Parallel version (MPI), running on     5 processors

     MPI processes distributed on     1 nodes
     R & G space division:  proc/nbgrp/npool/nimage =       5
     Waiting for input...
     Reading input from standard input

     Current dimensions of program PWSCF are:
     Max number of different atomic species (ntypx) = 10
     Max number of k-points (npk) =  40000
     Max angular momentum in pseudopotentials (lmaxx) =  3

     Subspace diagonalization in iterative solution of the eigenvalue problem:
     a serial algorithm will be used


     Parallelization info
     --------------------
     sticks:   dense  smooth     PW     G-vecs:    dense   smooth      PW
     Min          43      43     16                  445      445      91
     Max          45      45     18                  446      446      92
     Sum         223     223     85                 2229     2229     459



     bravais-lattice index     =            2
     lattice parameter (alat)  =       6.8300  a.u.
     unit-cell volume          =      79.6530 (a.u.)^3
     number of atoms/cell      =            1
     number of atomic types    =            1
     number of electrons       =        19.00
     number of Kohn-Sham states=           14
     kinetic-energy cutoff     =      35.0000  Ry
     charge density cutoff     =     140.0000  Ry
     convergence threshold     =      1.0E-08
     mixing beta               =       0.7000
     number of iterations used =            8  plain     mixing
     Exchange-correlation      = LDA ( 1  1  0  0 0 0)

     celldm(1)=   6.830000  celldm(2)=   0.000000  celldm(3)=   0.000000
     celldm(4)=   0.000000  celldm(5)=   0.000000  celldm(6)=   0.000000

     crystal axes: (cart. coord. in units of alat)
               a(1) = (  -0.500000   0.000000   0.500000 )  
               a(2) = (   0.000000   0.500000   0.500000 )  
               a(3) = (  -0.500000   0.500000   0.000000 )  

     reciprocal axes: (cart. coord. in units 2 pi/alat)
               b(1) = ( -1.000000 -1.000000  1.000000 )  
               b(2) = (  1.000000  1.000000  1.000000 )  
               b(3) = ( -1.000000  1.000000 -1.000000 )  


     PseudoPot. # 1 for Fr read from file:
     /home/lorenzo/pseudos/Fr/Fr.pz-spdn-rrkjus_psl.1.0.0.UPF
     MD5 check sum: 5665a43a3d1ea02b0b7dc7a0ae9ace04
     Pseudo is Ultrasoft + core correction, Zval = 19.0
     Generated using "atomic" code by A. Dal Corso v.6.2.2
     Using radial grid of 1287 points,  6 beta functions with: 
                l(1) =   0
                l(2) =   0
                l(3) =   1
                l(4) =   1
                l(5) =   2
                l(6) =   2
     Q(r) pseudized with 0 coefficients 


     atomic species   valence    mass     pseudopotential
        Fr            19.00   223.00000     Fr( 1.00)

     48 Sym. Ops., with inversion, found



   Cartesian axes

     site n.     atom                  positions (alat units)
         1           Fr  tau(   1) = (   0.0000000   0.0000000   0.0000000  )

     number of k points=    20  gaussian smearing, width (Ry)=  0.0100
                       cart. coord. in units 2pi/alat
        k(    1) = (   0.0000000   0.0000000   0.0000000), wk =   0.0058309
        k(    2) = (  -0.1428571   0.1428571  -0.1428571), wk =   0.0466472
        k(    3) = (  -0.2857143   0.2857143  -0.2857143), wk =   0.0466472
        k(    4) = (  -0.4285714   0.4285714  -0.4285714), wk =   0.0466472
        k(    5) = (   0.0000000   0.2857143   0.0000000), wk =   0.0349854
        k(    6) = (  -0.1428571   0.4285714  -0.1428571), wk =   0.1399417
        k(    7) = (  -0.2857143   0.5714286  -0.2857143), wk =   0.1399417
        k(    8) = (   0.5714286  -0.2857143   0.5714286), wk =   0.1399417
        k(    9) = (   0.4285714  -0.1428571   0.4285714), wk =   0.1399417
        k(   10) = (   0.2857143  -0.0000000   0.2857143), wk =   0.0699708
        k(   11) = (   0.0000000   0.5714286   0.0000000), wk =   0.0349854
        k(   12) = (  -0.1428571   0.7142857  -0.1428571), wk =   0.1399417
        k(   13) = (   0.7142857  -0.1428571   0.7142857), wk =   0.1399417
        k(   14) = (   0.5714286   0.0000000   0.5714286), wk =   0.0699708
        k(   15) = (   0.0000000   0.8571429   0.0000000), wk =   0.0349854
        k(   16) = (   0.8571429  -0.0000000   0.8571429), wk =   0.0699708
        k(   17) = (  -0.2857143   0.5714286   0.0000000), wk =   0.1399417
        k(   18) = (   0.5714286  -0.2857143   0.8571429), wk =   0.2798834
        k(   19) = (   0.7142857  -0.1428571   1.0000000), wk =   0.1399417
        k(   20) = (   0.5714286   0.0000000   0.8571429), wk =   0.1399417

     Dense  grid:     2229 G-vectors     FFT dimensions: (  20,  20,  20)

     Estimated max dynamical RAM per process >       2.95 MB

     Estimated total dynamical RAM >      14.77 MB

     Check: negative/imaginary core charge=   -0.000020    0.000000

     Initial potential from superposition of free atoms

     starting charge   18.97647, renormalised to   19.00000
     Starting wfcs are   10 randomized atomic wfcs +    4 random wfcs

     total cpu time spent up to now is        1.1 secs

     Self-consistent Calculation

     iteration #  1     ecut=    35.00 Ry     beta= 0.70
     Davidson diagonalization with overlap
     ethr =  1.00E-02,  avg # of iterations =  4.7

     Threshold (ethr) on eigenvalues was too large:
     Diagonalizing with lowered threshold

     Davidson diagonalization with overlap
     ethr =  3.44E-04,  avg # of iterations =  1.0

     total cpu time spent up to now is        1.5 secs

     total energy              =    -281.86249670 Ry
     Harris-Foulkes estimate   =    -281.91497082 Ry
     estimated scf accuracy    <       0.06602258 Ry

     iteration #  2     ecut=    35.00 Ry     beta= 0.70
     Davidson diagonalization with overlap
     ethr =  3.47E-04,  avg # of iterations =  2.0

     total cpu time spent up to now is        1.7 secs

     total energy              =    -281.87966708 Ry
     Harris-Foulkes estimate   =    -281.88211748 Ry
     estimated scf accuracy    <       0.00346684 Ry

     iteration #  3     ecut=    35.00 Ry     beta= 0.70
     Davidson diagonalization with overlap
     ethr =  1.82E-05,  avg # of iterations =  2.5

     total cpu time spent up to now is        1.9 secs

     total energy              =    -281.88038419 Ry
     Harris-Foulkes estimate   =    -281.88041212 Ry
     estimated scf accuracy    <       0.00008317 Ry

     iteration #  4     ecut=    35.00 Ry     beta= 0.70
     Davidson diagonalization with overlap
     ethr =  4.38E-07,  avg # of iterations =  1.6

     total cpu time spent up to now is        2.1 secs

     total energy              =    -281.88038912 Ry
     Harris-Foulkes estimate   =    -281.88038915 Ry
     estimated scf accuracy    <       0.00000040 Ry

     iteration #  5     ecut=    35.00 Ry     beta= 0.70
     Davidson diagonalization with overlap
     ethr =  2.11E-09,  avg # of iterations =  2.0

     total cpu time spent up to now is        2.2 secs

     total energy              =    -281.88038921 Ry
     Harris-Foulkes estimate   =    -281.88038922 Ry
     estimated scf accuracy    <       0.00000002 Ry

     iteration #  6     ecut=    35.00 Ry     beta= 0.70
     Davidson diagonalization with overlap
     ethr =  8.10E-11,  avg # of iterations =  1.8

     total cpu time spent up to now is        2.4 secs

     End of self-consistent calculation

          k = 0.0000 0.0000 0.0000 (   283 PWs)   bands (ev):

    -9.6589  -9.6589  -9.6589  -9.4845  -9.4845   9.0493  46.7405  46.7405
    46.7405  48.1889  54.5055  54.5055  54.5055  57.4670

          k =-0.1429 0.1429-0.1429 (   283 PWs)   bands (ev):

    -9.8436  -9.5733  -9.5733  -9.3706  -9.3706   9.8643  40.0776  45.7332
    45.7332  48.1030  55.3016  56.2055  56.2055  56.4781

          k =-0.2857 0.2857-0.2857 (   286 PWs)   bands (ev):

    -9.7054  -9.7054  -9.6593  -9.3184  -9.3184  12.3016  31.4544  43.9294
    43.9294  48.1821  52.7172  53.7442  53.7442  59.9964

          k =-0.4286 0.4286-0.4286 (   269 PWs)   bands (ev):

    -9.6454  -9.6454  -9.5431  -8.7304  -8.7304  15.9697  24.5034  42.7039
    42.7039  47.9928  51.5370  52.4484  52.4484  64.2655

          k = 0.0000 0.2857 0.0000 (   287 PWs)   bands (ev):

    -9.7349  -9.6516  -9.6516  -9.5331  -9.4019  10.1356  42.8374  42.8374
    43.0746  46.5119  50.8362  57.9302  58.5205  58.5205

          k =-0.1429 0.4286-0.1429 (   286 PWs)   bands (ev):

    -9.8653  -9.6739  -9.5990  -9.3496  -9.1758  12.0350  34.6244  40.7525
    41.8740  46.8195  50.1869  57.4648  58.2840  58.6250

          k =-0.2857 0.5714-0.2857 (   278 PWs)   bands (ev):

    -9.8290  -9.6323  -9.5473  -8.9783  -8.8911  15.3884  27.1286  39.1631
    40.1069  45.8825  55.1437  55.9180  56.4534  57.8985

          k = 0.5714-0.2857 0.5714 (   280 PWs)   bands (ev):

    -9.7921  -9.6363  -9.5509  -9.0562  -8.8953  17.4954  23.9876  37.2837
    41.1553  46.2978  53.9585  54.3687  58.3661  62.8162

          k = 0.4286-0.1429 0.4286 (   277 PWs)   bands (ev):

    -9.7464  -9.6186  -9.4482  -9.1717  -8.8909  14.1422  29.4792  36.9043
    43.8207  48.0531  52.5742  53.9072  58.6148  59.6856

          k = 0.2857-0.0000 0.2857 (   285 PWs)   bands (ev):

    -9.8962  -9.5876  -9.4933  -9.4034  -9.3488  11.2223  36.8691  38.6797
    46.7818  50.3195  51.2777  53.9406  55.1732  57.1579

          k = 0.0000 0.5714 0.0000 (   290 PWs)   bands (ev):

   -10.1028  -9.6294  -9.4070  -9.4070  -9.1628  13.3886  35.4023  38.1534
    38.1534  44.4835  44.9650  63.1479  63.1479  64.9175

          k =-0.1429 0.7143-0.1429 (   273 PWs)   bands (ev):

    -9.9714  -9.4423  -9.1178  -8.9442  -8.8096  16.2531  29.9457  34.4879
    37.1229  44.0864  48.2643  61.1635  62.1212  65.8480

          k = 0.7143-0.1429 0.7143 (   278 PWs)   bands (ev):

    -9.9117  -9.4512  -9.3024  -9.1335  -8.9164  19.2212  25.9801  31.0435
    37.9399  44.3759  55.0847  59.0811  59.7663  65.4904

          k = 0.5714 0.0000 0.5714 (   276 PWs)   bands (ev):

    -9.7728  -9.4455  -9.1939  -9.1328  -9.1144  17.2367  28.7178  30.1911
    40.5123  45.7613  57.0439  57.7495  59.7446  60.1199

          k = 0.0000 0.8571 0.0000 (   286 PWs)   bands (ev):

   -10.2675  -9.8850  -9.2481  -8.8341  -8.8341  18.5369  27.0287  35.5225
    35.5225  42.9603  43.4671  64.2635  68.9830  68.9830

          k = 0.8571-0.0000 0.8571 (   280 PWs)   bands (ev):

   -10.1467  -9.7632  -9.0270  -8.9107  -8.8717  20.5601  25.2877  31.8175
    35.8179  43.3395  47.5071  62.6245  66.4770  67.9809

          k =-0.2857 0.5714 0.0000 (   276 PWs)   bands (ev):

    -9.7700  -9.6389  -9.2454  -9.2027  -8.8628  14.4257  32.0039  34.4681
    39.7237  48.9493  49.4130  55.3520  60.6209  63.5398

          k = 0.5714-0.2857 0.8571 (   276 PWs)   bands (ev):

    -9.7404  -9.6160  -9.2798  -9.1037  -8.8572  17.8432  26.5820  33.1392
    37.0869  48.5105  52.6782  56.5148  61.7518  62.4302

          k = 0.7143-0.1429 1.0000 (   275 PWs)   bands (ev):

    -9.8846  -9.6723  -9.1392  -8.9771  -8.7254  19.1774  27.4430  32.0855
    33.6730  47.9084  48.1217  58.5351  64.1491  68.5836

          k = 0.5714 0.0000 0.8571 (   274 PWs)   bands (ev):

    -9.8253  -9.4528  -9.3456  -9.0551  -8.7319  20.2744  27.7798  28.5095
    34.1286  48.7803  55.2279  55.8784  58.2079  66.0872

     the Fermi energy is    46.9525 ev

!    total energy              =    -281.88038921 Ry
     Harris-Foulkes estimate   =    -281.88038921 Ry
     estimated scf accuracy    <          3.1E-09 Ry

     The total energy is the sum of the following terms:

     one-electron contribution =      -3.42662105 Ry
     hartree contribution      =      27.52209392 Ry
     xc contribution           =     -63.64254502 Ry
     ewald contribution        =    -242.33311995 Ry
     smearing contrib. (-TS)   =      -0.00019711 Ry

     convergence has been achieved in   6 iterations

     Forces acting on atoms (cartesian axes, Ry/au):

     atom    1 type  1   force =     0.00000000    0.00000000    0.00000000

     Total force =     0.000000     Total SCF correction =     0.000000


     Computing stress (Cartesian axis) and pressure

          total   stress  (Ry/bohr**3)                   (kbar)     P= 1057.07
   0.00718581   0.00000000   0.00000000       1057.07      0.00      0.00
   0.00000000   0.00718581   0.00000000          0.00   1057.07      0.00
  -0.00000000   0.00000000   0.00718581         -0.00      0.00   1057.07


     Writing output data file Fr.save/

     init_run     :      0.18s CPU      0.19s WALL (       1 calls)
     electrons    :      1.22s CPU      1.30s WALL (       1 calls)
     forces       :      0.01s CPU      0.01s WALL (       1 calls)
     stress       :      0.05s CPU      0.05s WALL (       1 calls)

     Called by init_run:
     wfcinit      :      0.05s CPU      0.05s WALL (       1 calls)
     potinit      :      0.00s CPU      0.00s WALL (       1 calls)
     hinit0       :      0.13s CPU      0.13s WALL (       1 calls)

     Called by electrons:
     c_bands      :      1.01s CPU      1.08s WALL (       7 calls)
     sum_band     :      0.19s CPU      0.20s WALL (       7 calls)
     v_of_rho     :      0.00s CPU      0.00s WALL (       7 calls)
     newd         :      0.02s CPU      0.02s WALL (       7 calls)
     mix_rho      :      0.00s CPU      0.00s WALL (       7 calls)

     Called by c_bands:
     init_us_2    :      0.02s CPU      0.02s WALL (     340 calls)
     cegterg      :      0.98s CPU      1.05s WALL (     140 calls)

     Called by sum_band:
     sum_band:bec :      0.00s CPU      0.00s WALL (     140 calls)
     addusdens    :      0.01s CPU      0.02s WALL (       7 calls)

     Called by *egterg:
     h_psi        :      0.66s CPU      0.72s WALL (     474 calls)
     s_psi        :      0.01s CPU      0.02s WALL (     474 calls)
     g_psi        :      0.00s CPU      0.00s WALL (     314 calls)
     cdiaghg      :      0.21s CPU      0.22s WALL (     434 calls)

     Called by h_psi:
     h_psi:pot    :      0.66s CPU      0.72s WALL (     474 calls)
     h_psi:calbec :      0.03s CPU      0.03s WALL (     474 calls)
     vloc_psi     :      0.61s CPU      0.67s WALL (     474 calls)
     add_vuspsi   :      0.01s CPU      0.02s WALL (     474 calls)

     General routines
     calbec       :      0.05s CPU      0.06s WALL (     714 calls)
     fft          :      0.00s CPU      0.00s WALL (      38 calls)
     ffts         :      0.00s CPU      0.00s WALL (       7 calls)
     fftw         :      0.71s CPU      0.76s WALL (   12162 calls)

     Parallel routines
     fft_scatt_xy :      0.05s CPU      0.05s WALL (   12207 calls)
     fft_scatt_yz :      0.35s CPU      0.37s WALL (   12207 calls)

     PWSCF        :     2.42s CPU         2.58s WALL


   This run was terminated on:  22:30:34   7Apr2024            

=------------------------------------------------------------------------------=
   JOB DONE.
=------------------------------------------------------------------------------=
