
     Program PWSCF v.6.3MaX starts on  7Apr2024 at 22:28: 3 

     This program is part of the open-source Quantum ESPRESSO suite
     for quantum simulation of materials; please cite
         "P. Giannozzi et al., J. Phys.:Condens. Matter 21 395502 (2009);
         "P. Giannozzi et al., J. Phys.:Condens. Matter 29 465901 (2017);
          URL http://www.quantum-espresso.org", 
     in publications or presentations arising from this work. More details at
     http://www.quantum-espresso.org/quote

     Parallel version (MPI), running on     5 processors

     MPI processes distributed on     1 nodes
     R & G space division:  proc/nbgrp/npool/nimage =       5
     Waiting for input...
     Reading input from standard input

     Current dimensions of program PWSCF are:
     Max number of different atomic species (ntypx) = 10
     Max number of k-points (npk) =  40000
     Max angular momentum in pseudopotentials (lmaxx) =  3
               file Fr.pz-spdn-kjpaw_psl.1.0.0.UPF: wavefunction(s)  6P renormalized

     Subspace diagonalization in iterative solution of the eigenvalue problem:
     a serial algorithm will be used


     Parallelization info
     --------------------
     sticks:   dense  smooth     PW     G-vecs:    dense   smooth      PW
     Min          39      39     13                  361      361      77
     Max          40      40     15                  363      363      78
     Sum         199     199     73                 1807     1807     387



     bravais-lattice index     =            2
     lattice parameter (alat)  =       6.8300  a.u.
     unit-cell volume          =      79.6530 (a.u.)^3
     number of atoms/cell      =            1
     number of atomic types    =            1
     number of electrons       =        19.00
     number of Kohn-Sham states=           14
     kinetic-energy cutoff     =      30.0000  Ry
     charge density cutoff     =     120.0000  Ry
     convergence threshold     =      1.0E-08
     mixing beta               =       0.7000
     number of iterations used =            8  plain     mixing
     Exchange-correlation      = SLA PZ NOGX NOGC ( 1  1  0  0 0 0)

     celldm(1)=   6.830000  celldm(2)=   0.000000  celldm(3)=   0.000000
     celldm(4)=   0.000000  celldm(5)=   0.000000  celldm(6)=   0.000000

     crystal axes: (cart. coord. in units of alat)
               a(1) = (  -0.500000   0.000000   0.500000 )  
               a(2) = (   0.000000   0.500000   0.500000 )  
               a(3) = (  -0.500000   0.500000   0.000000 )  

     reciprocal axes: (cart. coord. in units 2 pi/alat)
               b(1) = ( -1.000000 -1.000000  1.000000 )  
               b(2) = (  1.000000  1.000000  1.000000 )  
               b(3) = ( -1.000000  1.000000 -1.000000 )  


     PseudoPot. # 1 for Fr read from file:
     /home/lorenzo/pseudos/Fr/Fr.pz-spdn-kjpaw_psl.1.0.0.UPF
     MD5 check sum: 60dafd115682613df3cc92ec23a62a32
     Pseudo is Projector augmented-wave + core cor, Zval = 19.0
     Generated using "atomic" code by A. Dal Corso v.6.2.2
     Shape of augmentation charge: PSQ
     Using radial grid of 1287 points,  6 beta functions with: 
                l(1) =   0
                l(2) =   0
                l(3) =   1
                l(4) =   1
                l(5) =   2
                l(6) =   2
     Q(r) pseudized with 0 coefficients 


     atomic species   valence    mass     pseudopotential
        Fr            19.00   223.00000     Fr( 1.00)

     48 Sym. Ops., with inversion, found



   Cartesian axes

     site n.     atom                  positions (alat units)
         1           Fr  tau(   1) = (   0.0000000   0.0000000   0.0000000  )

     number of k points=    16  gaussian smearing, width (Ry)=  0.0100
                       cart. coord. in units 2pi/alat
        k(    1) = (   0.0000000   0.0000000   0.0000000), wk =   0.0092593
        k(    2) = (  -0.1666667   0.1666667  -0.1666667), wk =   0.0740741
        k(    3) = (  -0.3333333   0.3333333  -0.3333333), wk =   0.0740741
        k(    4) = (   0.5000000  -0.5000000   0.5000000), wk =   0.0370370
        k(    5) = (   0.0000000   0.3333333   0.0000000), wk =   0.0555556
        k(    6) = (  -0.1666667   0.5000000  -0.1666667), wk =   0.2222222
        k(    7) = (   0.6666667  -0.3333333   0.6666667), wk =   0.2222222
        k(    8) = (   0.5000000  -0.1666667   0.5000000), wk =   0.2222222
        k(    9) = (   0.3333333   0.0000000   0.3333333), wk =   0.1111111
        k(   10) = (   0.0000000   0.6666667   0.0000000), wk =   0.0555556
        k(   11) = (   0.8333333  -0.1666667   0.8333333), wk =   0.2222222
        k(   12) = (   0.6666667  -0.0000000   0.6666667), wk =   0.1111111
        k(   13) = (   0.0000000  -1.0000000   0.0000000), wk =   0.0277778
        k(   14) = (   0.6666667  -0.3333333   1.0000000), wk =   0.2222222
        k(   15) = (   0.5000000  -0.1666667   0.8333333), wk =   0.2222222
        k(   16) = (  -0.3333333  -1.0000000   0.0000000), wk =   0.1111111

     Dense  grid:     1807 G-vectors     FFT dimensions: (  18,  18,  18)

     Estimated max dynamical RAM per process >       2.48 MB

     Estimated total dynamical RAM >      12.41 MB

     Check: negative/imaginary core charge=   -0.000065    0.000000

     Initial potential from superposition of free atoms

     starting charge   18.97647, renormalised to   19.00000
     Starting wfcs are   10 randomized atomic wfcs +    4 random wfcs
     Checking if some PAW data can be deallocated... 

     total cpu time spent up to now is        1.1 secs

     Self-consistent Calculation

     iteration #  1     ecut=    30.00 Ry     beta= 0.70
     Davidson diagonalization with overlap
     ethr =  1.00E-02,  avg # of iterations =  4.8

     total cpu time spent up to now is        1.3 secs

     total energy              =   -1043.45921642 Ry
     Harris-Foulkes estimate   =   -1043.64424213 Ry
     estimated scf accuracy    <       0.21730649 Ry

     iteration #  2     ecut=    30.00 Ry     beta= 0.70
     Davidson diagonalization with overlap
     ethr =  1.14E-03,  avg # of iterations =  2.2

     total cpu time spent up to now is        1.5 secs

     total energy              =   -1043.51528099 Ry
     Harris-Foulkes estimate   =   -1043.52010532 Ry
     estimated scf accuracy    <       0.01161749 Ry

     iteration #  3     ecut=    30.00 Ry     beta= 0.70
     Davidson diagonalization with overlap
     ethr =  6.11E-05,  avg # of iterations =  2.1

     total cpu time spent up to now is        1.6 secs

     total energy              =   -1043.51644169 Ry
     Harris-Foulkes estimate   =   -1043.51654215 Ry
     estimated scf accuracy    <       0.00046533 Ry

     iteration #  4     ecut=    30.00 Ry     beta= 0.70
     Davidson diagonalization with overlap
     ethr =  2.45E-06,  avg # of iterations =  3.2

     total cpu time spent up to now is        1.7 secs

     total energy              =   -1043.51646483 Ry
     Harris-Foulkes estimate   =   -1043.51646458 Ry
     estimated scf accuracy    <       0.00000170 Ry

     iteration #  5     ecut=    30.00 Ry     beta= 0.70
     Davidson diagonalization with overlap
     ethr =  8.97E-09,  avg # of iterations =  2.8

     total cpu time spent up to now is        1.9 secs

     total energy              =   -1043.51646534 Ry
     Harris-Foulkes estimate   =   -1043.51646540 Ry
     estimated scf accuracy    <       0.00000010 Ry

     iteration #  6     ecut=    30.00 Ry     beta= 0.70
     Davidson diagonalization with overlap
     ethr =  5.32E-10,  avg # of iterations =  2.0

     total cpu time spent up to now is        2.0 secs

     End of self-consistent calculation

          k = 0.0000 0.0000 0.0000 (   229 PWs)   bands (ev):

    -9.4741  -9.4741  -9.4741  -9.2134  -9.2134   8.9188  46.5176  46.5176
    46.5176  48.3145  55.3296  55.3296  55.3296  57.2687

          k =-0.1667 0.1667-0.1667 (   226 PWs)   bands (ev):

    -9.7495  -9.6711  -9.6711  -9.0370  -9.0370  10.0234  38.5374  45.2905
    45.2905  48.3059  54.9001  56.2746  56.2746  57.3353

          k =-0.3333 0.3333-0.3333 (   223 PWs)   bands (ev):

    -9.4793  -9.4793  -9.4518  -9.2007  -9.2007  13.2952  28.8041  43.2643
    43.2643  48.3215  52.3347  53.8018  53.8018  61.8406

          k = 0.5000-0.5000 0.5000 (   228 PWs)   bands (ev):

    -9.9102  -9.6279  -9.6279  -9.3487  -9.3487  16.8350  22.9699  42.3496
    42.3496  48.0577  51.5348  52.9401  52.9401  65.1364

          k = 0.0000 0.3333 0.0000 (   218 PWs)   bands (ev):

    -9.5238  -9.3241  -9.3241  -8.9197  -8.6801  10.3910  41.7253  41.9308
    41.9308  46.5904  49.9001  59.4796  59.5521  59.5521

          k =-0.1667 0.5000-0.1667 (   221 PWs)   bands (ev):

    -9.6582  -9.5035  -9.3285  -9.1902  -8.9002  12.9494  32.4253  39.7744
    40.0815  46.3312  50.9364  58.4938  58.7300  59.3640

          k = 0.6667-0.3333 0.6667 (   223 PWs)   bands (ev):

    -9.6256  -9.4493  -9.3005  -9.2896  -9.0778  16.9997  24.9024  36.9430
    39.7751  45.9612  55.8470  56.4160  58.6177  59.3952

          k = 0.5000-0.1667 0.5000 (   221 PWs)   bands (ev):

    -9.5566  -9.4466  -9.2618  -9.0926  -9.0565  15.6386  27.0412  35.5757
    42.1459  47.2761  54.0561  55.2038  60.5453  60.6106

          k = 0.3333 0.0000 0.3333 (   218 PWs)   bands (ev):

    -9.4687  -9.3254  -9.1652  -9.0972  -8.8780  11.8583  34.9540  37.2070
    45.8436  50.3891  51.3324  54.6217  56.0853  57.8987

          k = 0.0000 0.6667 0.0000 (   218 PWs)   bands (ev):

    -9.8677  -9.6455  -8.9869  -8.9869  -8.6618  14.7701  32.2958  36.9381
    36.9381  44.3549  44.7554  65.0507  65.0573  65.0573

          k = 0.8333-0.1667 0.8333 (   224 PWs)   bands (ev):

    -9.8567  -9.4827  -9.3775  -9.2339  -9.2301  18.3241  27.4029  32.1772
    36.3931  44.1614  49.3187  61.7826  63.3572  68.5896

          k = 0.6667-0.0000 0.6667 (   220 PWs)   bands (ev):

    -9.3761  -9.3677  -9.2699  -9.1985  -9.1590  19.0113  28.0372  28.0851
    38.4283  45.2010  57.6671  59.4453  60.1288  63.0156

          k = 0.0000-1.0000 0.0000 (   222 PWs)   bands (ev):

   -10.1673  -9.5626  -9.3203  -9.3203  -8.6685  20.2373  24.5887  35.0799
    35.0799  43.1917  44.0619  64.2921  70.1081  70.8871

          k = 0.6667-0.3333 1.0000 (   223 PWs)   bands (ev):

    -9.7729  -9.5160  -9.4456  -9.1960  -9.0024  16.0522  29.9131  32.6774
    37.3916  49.4757  50.5456  55.3638  62.9115  64.7891

          k = 0.5000-0.1667 0.8333 (   220 PWs)   bands (ev):

    -9.5306  -9.4516  -9.1428  -9.1388  -8.9982  19.0847  26.0766  31.4618
    35.3974  49.5418  53.4887  58.5031  58.7478  64.5178

          k =-0.3333-1.0000 0.0000 (   216 PWs)   bands (ev):

    -9.2764  -9.2662  -9.1228  -9.0213  -8.9180  20.4112  26.3554  31.0385
    32.6841  49.3571  49.8073  58.6759  61.3254  68.5643

     the Fermi energy is    46.9161 ev

!    total energy              =   -1043.51646536 Ry
     Harris-Foulkes estimate   =   -1043.51646536 Ry
     estimated scf accuracy    <          1.6E-09 Ry

     total all-electron energy =    -48488.969438 Ry

     The total energy is the sum of the following terms:

     one-electron contribution =       3.76400842 Ry
     hartree contribution      =      26.67359567 Ry
     xc contribution           =     -63.34040104 Ry
     ewald contribution        =    -242.33311990 Ry
     one-center paw contrib.   =    -768.28054740 Ry
     smearing contrib. (-TS)   =      -0.00000109 Ry

     convergence has been achieved in   6 iterations

     Forces acting on atoms (cartesian axes, Ry/au):

     atom    1 type  1   force =     0.00000000    0.00000000    0.00000000

     Total force =     0.000000     Total SCF correction =     0.000000


     Computing stress (Cartesian axis) and pressure

          total   stress  (Ry/bohr**3)                   (kbar)     P=-5666.68
  -0.03852129   0.00000000   0.00000000      -5666.68      0.00      0.00
   0.00000000  -0.03852129  -0.00000000          0.00  -5666.68     -0.00
   0.00000000  -0.00000000  -0.03852129          0.00     -0.00  -5666.68


     Writing output data file Fr.save/

     init_run     :      0.18s CPU      0.18s WALL (       1 calls)
     electrons    :      0.86s CPU      0.94s WALL (       1 calls)
     forces       :      0.01s CPU      0.01s WALL (       1 calls)
     stress       :      0.03s CPU      0.03s WALL (       1 calls)

     Called by init_run:
     wfcinit      :      0.02s CPU      0.03s WALL (       1 calls)
     potinit      :      0.05s CPU      0.05s WALL (       1 calls)
     hinit0       :      0.10s CPU      0.10s WALL (       1 calls)

     Called by electrons:
     c_bands      :      0.51s CPU      0.56s WALL (       6 calls)
     sum_band     :      0.08s CPU      0.08s WALL (       6 calls)
     v_of_rho     :      0.00s CPU      0.00s WALL (       7 calls)
     newd         :      0.01s CPU      0.01s WALL (       7 calls)
     PAW_pot      :      0.30s CPU      0.30s WALL (       7 calls)
     mix_rho      :      0.00s CPU      0.00s WALL (       6 calls)

     Called by c_bands:
     init_us_2    :      0.01s CPU      0.01s WALL (     240 calls)
     cegterg      :      0.49s CPU      0.55s WALL (      96 calls)

     Called by sum_band:
     sum_band:bec :      0.00s CPU      0.00s WALL (      96 calls)
     addusdens    :      0.01s CPU      0.01s WALL (       6 calls)

     Called by *egterg:
     h_psi        :      0.29s CPU      0.33s WALL (     384 calls)
     s_psi        :      0.01s CPU      0.01s WALL (     384 calls)
     g_psi        :      0.00s CPU      0.00s WALL (     272 calls)
     cdiaghg      :      0.15s CPU      0.16s WALL (     368 calls)

     Called by h_psi:
     h_psi:pot    :      0.29s CPU      0.33s WALL (     384 calls)
     h_psi:calbec :      0.01s CPU      0.01s WALL (     384 calls)
     vloc_psi     :      0.27s CPU      0.30s WALL (     384 calls)
     add_vuspsi   :      0.01s CPU      0.01s WALL (     384 calls)

     General routines
     calbec       :      0.02s CPU      0.02s WALL (     560 calls)
     fft          :      0.01s CPU      0.01s WALL (      37 calls)
     ffts         :      0.00s CPU      0.00s WALL (       6 calls)
     fftw         :      0.29s CPU      0.33s WALL (    8780 calls)

     Parallel routines
     fft_scatt_xy :      0.03s CPU      0.03s WALL (    8823 calls)
     fft_scatt_yz :      0.08s CPU      0.09s WALL (    8823 calls)

     PWSCF        :     1.98s CPU         2.12s WALL


   This run was terminated on:  22:28: 5   7Apr2024            

=------------------------------------------------------------------------------=
   JOB DONE.
=------------------------------------------------------------------------------=
