
     Program PWSCF v.6.3MaX starts on  7Apr2024 at 22:24:53 

     This program is part of the open-source Quantum ESPRESSO suite
     for quantum simulation of materials; please cite
         "P. Giannozzi et al., J. Phys.:Condens. Matter 21 395502 (2009);
         "P. Giannozzi et al., J. Phys.:Condens. Matter 29 465901 (2017);
          URL http://www.quantum-espresso.org", 
     in publications or presentations arising from this work. More details at
     http://www.quantum-espresso.org/quote

     Parallel version (MPI), running on     5 processors

     MPI processes distributed on     1 nodes
     R & G space division:  proc/nbgrp/npool/nimage =       5
     Waiting for input...
     Reading input from standard input

     Current dimensions of program PWSCF are:
     Max number of different atomic species (ntypx) = 10
     Max number of k-points (npk) =  40000
     Max angular momentum in pseudopotentials (lmaxx) =  3
               file Fr.pz-spdn-kjpaw_psl.1.0.0.UPF: wavefunction(s)  6P renormalized

     Subspace diagonalization in iterative solution of the eigenvalue problem:
     a serial algorithm will be used


     Parallelization info
     --------------------
     sticks:   dense  smooth     PW     G-vecs:    dense   smooth      PW
     Min          32      32     12                  272      272      66
     Max          33      33     13                  273      273      67
     Sum         163     163     61                 1363     1363     331



     bravais-lattice index     =            2
     lattice parameter (alat)  =       6.8300  a.u.
     unit-cell volume          =      79.6530 (a.u.)^3
     number of atoms/cell      =            1
     number of atomic types    =            1
     number of electrons       =        19.00
     number of Kohn-Sham states=           14
     kinetic-energy cutoff     =      25.0000  Ry
     charge density cutoff     =     100.0000  Ry
     convergence threshold     =      1.0E-08
     mixing beta               =       0.7000
     number of iterations used =            8  plain     mixing
     Exchange-correlation      = SLA PZ NOGX NOGC ( 1  1  0  0 0 0)

     celldm(1)=   6.830000  celldm(2)=   0.000000  celldm(3)=   0.000000
     celldm(4)=   0.000000  celldm(5)=   0.000000  celldm(6)=   0.000000

     crystal axes: (cart. coord. in units of alat)
               a(1) = (  -0.500000   0.000000   0.500000 )  
               a(2) = (   0.000000   0.500000   0.500000 )  
               a(3) = (  -0.500000   0.500000   0.000000 )  

     reciprocal axes: (cart. coord. in units 2 pi/alat)
               b(1) = ( -1.000000 -1.000000  1.000000 )  
               b(2) = (  1.000000  1.000000  1.000000 )  
               b(3) = ( -1.000000  1.000000 -1.000000 )  


     PseudoPot. # 1 for Fr read from file:
     /home/lorenzo/pseudos/Fr/Fr.pz-spdn-kjpaw_psl.1.0.0.UPF
     MD5 check sum: 60dafd115682613df3cc92ec23a62a32
     Pseudo is Projector augmented-wave + core cor, Zval = 19.0
     Generated using "atomic" code by A. Dal Corso v.6.2.2
     Shape of augmentation charge: PSQ
     Using radial grid of 1287 points,  6 beta functions with: 
                l(1) =   0
                l(2) =   0
                l(3) =   1
                l(4) =   1
                l(5) =   2
                l(6) =   2
     Q(r) pseudized with 0 coefficients 


     atomic species   valence    mass     pseudopotential
        Fr            19.00   223.00000     Fr( 1.00)

     48 Sym. Ops., with inversion, found



   Cartesian axes

     site n.     atom                  positions (alat units)
         1           Fr  tau(   1) = (   0.0000000   0.0000000   0.0000000  )

     number of k points=    47  gaussian smearing, width (Ry)=  0.0100
                       cart. coord. in units 2pi/alat
        k(    1) = (   0.0000000   0.0000000   0.0000000), wk =   0.0020000
        k(    2) = (  -0.1000000   0.1000000  -0.1000000), wk =   0.0160000
        k(    3) = (  -0.2000000   0.2000000  -0.2000000), wk =   0.0160000
        k(    4) = (  -0.3000000   0.3000000  -0.3000000), wk =   0.0160000
        k(    5) = (  -0.4000000   0.4000000  -0.4000000), wk =   0.0160000
        k(    6) = (   0.5000000  -0.5000000   0.5000000), wk =   0.0080000
        k(    7) = (   0.0000000   0.2000000   0.0000000), wk =   0.0120000
        k(    8) = (  -0.1000000   0.3000000  -0.1000000), wk =   0.0480000
        k(    9) = (  -0.2000000   0.4000000  -0.2000000), wk =   0.0480000
        k(   10) = (  -0.3000000   0.5000000  -0.3000000), wk =   0.0480000
        k(   11) = (   0.6000000  -0.4000000   0.6000000), wk =   0.0480000
        k(   12) = (   0.5000000  -0.3000000   0.5000000), wk =   0.0480000
        k(   13) = (   0.4000000  -0.2000000   0.4000000), wk =   0.0480000
        k(   14) = (   0.3000000  -0.1000000   0.3000000), wk =   0.0480000
        k(   15) = (   0.2000000   0.0000000   0.2000000), wk =   0.0240000
        k(   16) = (   0.0000000   0.4000000   0.0000000), wk =   0.0120000
        k(   17) = (  -0.1000000   0.5000000  -0.1000000), wk =   0.0480000
        k(   18) = (  -0.2000000   0.6000000  -0.2000000), wk =   0.0480000
        k(   19) = (   0.7000000  -0.3000000   0.7000000), wk =   0.0480000
        k(   20) = (   0.6000000  -0.2000000   0.6000000), wk =   0.0480000
        k(   21) = (   0.5000000  -0.1000000   0.5000000), wk =   0.0480000
        k(   22) = (   0.4000000   0.0000000   0.4000000), wk =   0.0240000
        k(   23) = (   0.0000000   0.6000000   0.0000000), wk =   0.0120000
        k(   24) = (  -0.1000000   0.7000000  -0.1000000), wk =   0.0480000
        k(   25) = (   0.8000000  -0.2000000   0.8000000), wk =   0.0480000
        k(   26) = (   0.7000000  -0.1000000   0.7000000), wk =   0.0480000
        k(   27) = (   0.6000000  -0.0000000   0.6000000), wk =   0.0240000
        k(   28) = (   0.0000000   0.8000000   0.0000000), wk =   0.0120000
        k(   29) = (   0.9000000  -0.1000000   0.9000000), wk =   0.0480000
        k(   30) = (   0.8000000   0.0000000   0.8000000), wk =   0.0240000
        k(   31) = (   0.0000000  -1.0000000   0.0000000), wk =   0.0060000
        k(   32) = (  -0.2000000   0.4000000   0.0000000), wk =   0.0480000
        k(   33) = (  -0.3000000   0.5000000  -0.1000000), wk =   0.0960000
        k(   34) = (   0.6000000  -0.4000000   0.8000000), wk =   0.0960000
        k(   35) = (   0.5000000  -0.3000000   0.7000000), wk =   0.0480000
        k(   36) = (  -0.2000000   0.6000000   0.0000000), wk =   0.0480000
        k(   37) = (   0.7000000  -0.3000000   0.9000000), wk =   0.0960000
        k(   38) = (   0.6000000  -0.2000000   0.8000000), wk =   0.0960000
        k(   39) = (   0.5000000  -0.1000000   0.7000000), wk =   0.0960000
        k(   40) = (   0.4000000   0.0000000   0.6000000), wk =   0.0480000
        k(   41) = (   0.8000000  -0.2000000   1.0000000), wk =   0.0480000
        k(   42) = (   0.7000000  -0.1000000   0.9000000), wk =   0.0960000
        k(   43) = (   0.6000000   0.0000000   0.8000000), wk =   0.0480000
        k(   44) = (  -0.2000000  -1.0000000   0.0000000), wk =   0.0240000
        k(   45) = (   0.6000000  -0.2000000   1.0000000), wk =   0.0480000
        k(   46) = (   0.5000000  -0.1000000   0.9000000), wk =   0.0480000
        k(   47) = (  -0.4000000  -1.0000000   0.0000000), wk =   0.0240000

     Dense  grid:     1363 G-vectors     FFT dimensions: (  15,  15,  15)

     Estimated max dynamical RAM per process >       2.22 MB

     Estimated total dynamical RAM >      11.08 MB

     Check: negative/imaginary core charge=   -0.000045    0.000000

     Initial potential from superposition of free atoms

     starting charge   18.97647, renormalised to   19.00000
     Starting wfcs are   10 randomized atomic wfcs +    4 random wfcs
     Checking if some PAW data can be deallocated... 

     total cpu time spent up to now is        1.2 secs

     Self-consistent Calculation

     iteration #  1     ecut=    25.00 Ry     beta= 0.70
     Davidson diagonalization with overlap
     ethr =  1.00E-02,  avg # of iterations =  4.9

     total cpu time spent up to now is        1.7 secs

     total energy              =   -1040.61965094 Ry
     Harris-Foulkes estimate   =   -1041.26198527 Ry
     estimated scf accuracy    <       0.74713761 Ry

     iteration #  2     ecut=    25.00 Ry     beta= 0.70
     Davidson diagonalization with overlap
     ethr =  3.93E-03,  avg # of iterations =  2.0

     total cpu time spent up to now is        2.0 secs

     total energy              =   -1040.78656402 Ry
     Harris-Foulkes estimate   =   -1040.80616891 Ry
     estimated scf accuracy    <       0.04515465 Ry

     iteration #  3     ecut=    25.00 Ry     beta= 0.70
     Davidson diagonalization with overlap
     ethr =  2.38E-04,  avg # of iterations =  2.0

     total cpu time spent up to now is        2.3 secs

     total energy              =   -1040.79018763 Ry
     Harris-Foulkes estimate   =   -1040.79114364 Ry
     estimated scf accuracy    <       0.00201416 Ry

     iteration #  4     ecut=    25.00 Ry     beta= 0.70
     Davidson diagonalization with overlap
     ethr =  1.06E-05,  avg # of iterations =  2.2

     total cpu time spent up to now is        2.6 secs

     total energy              =   -1040.79029958 Ry
     Harris-Foulkes estimate   =   -1040.79029959 Ry
     estimated scf accuracy    <       0.00000847 Ry

     iteration #  5     ecut=    25.00 Ry     beta= 0.70
     Davidson diagonalization with overlap
     ethr =  4.46E-08,  avg # of iterations =  2.3

     total cpu time spent up to now is        2.9 secs

     total energy              =   -1040.79030114 Ry
     Harris-Foulkes estimate   =   -1040.79030123 Ry
     estimated scf accuracy    <       0.00000046 Ry

     iteration #  6     ecut=    25.00 Ry     beta= 0.70
     Davidson diagonalization with overlap
     ethr =  2.41E-09,  avg # of iterations =  2.0

     total cpu time spent up to now is        3.2 secs

     End of self-consistent calculation

          k = 0.0000 0.0000 0.0000 (   169 PWs)   bands (ev):

    -9.4621  -9.4621  -9.0169  -9.0169  -9.0169   8.6558  46.1130  46.1130
    46.1130  48.5396  56.8227  56.8227  56.8227  56.9276

          k =-0.1000 0.1000-0.1000 (   169 PWs)   bands (ev):

    -9.3983  -9.3983  -8.9271  -8.8958  -8.8958   9.0487  42.4676  45.6785
    45.6785  48.4983  56.3343  57.3886  57.3886  58.0138

          k =-0.2000 0.2000-0.2000 (   168 PWs)   bands (ev):

    -9.0317  -9.0317  -8.7370  -8.7370  -8.2340  10.2321  36.3965  44.5935
    44.5935  48.7732  54.4219  56.3672  56.3672  59.2396

          k =-0.3000 0.3000-0.3000 (   162 PWs)   bands (ev):

    -8.5504  -8.5504  -7.9778  -7.3144  -7.3144  12.1906  30.5168  43.3520
    43.3520  48.8223  53.0300  55.4275  55.4275  61.7462

          k =-0.4000 0.4000-0.4000 (   162 PWs)   bands (ev):

    -8.9184  -7.8278  -7.8278  -7.3628  -7.3628  14.7039  25.5289  42.3770
    42.3770  48.5128  52.2908  54.9772  54.9772  64.0851

          k = 0.5000-0.5000 0.5000 (   168 PWs)   bands (ev):

    -9.0441  -8.7150  -8.7150  -7.9819  -7.9819  16.4234  22.9744  42.0086
    42.0086  48.3636  52.0930  54.6635  54.6635  65.1495

          k = 0.0000 0.2000 0.0000 (   169 PWs)   bands (ev):

    -9.3880  -9.3415  -9.0105  -8.8109  -8.8109   9.1793  43.9934  44.1347
    44.1347  47.9507  54.1442  58.2938  58.4946  58.4946

          k =-0.1000 0.3000-0.1000 (   166 PWs)   bands (ev):

    -9.3881  -8.8416  -8.7154  -8.2904  -7.7783  10.0986  38.5246  42.5850
    44.0079  48.6691  51.9177  57.8174  58.7686  58.8641

          k =-0.2000 0.4000-0.2000 (   161 PWs)   bands (ev):

    -8.4695  -8.4069  -7.8829  -7.5166  -7.0979  11.8017  32.6189  41.4353
    42.6635  48.5527  52.8350  57.2677  57.8034  58.0245

          k =-0.3000 0.5000-0.3000 (   164 PWs)   bands (ev):

    -8.7219  -8.2711  -8.2006  -7.7393  -7.2566  14.1628  27.3676  40.8183
    41.0265  47.7352  54.5473  56.4895  56.7213  59.3226

          k = 0.6000-0.4000 0.6000 (   168 PWs)   bands (ev):

    -8.9704  -8.6286  -8.5536  -8.3721  -7.6804  16.4478  23.7127  39.6337
    40.9933  47.5123  54.0525  55.9721  56.8883  62.5504

          k = 0.5000-0.3000 0.5000 (   167 PWs)   bands (ev):

    -9.0095  -8.5273  -8.3508  -8.0926  -7.7382  15.8154  24.6256  38.9868
    41.9805  47.9595  53.3749  55.3890  57.8051  63.4275

          k = 0.4000-0.2000 0.4000 (   166 PWs)   bands (ev):

    -8.8777  -8.5616  -8.4664  -7.8864  -7.5576  13.3149  29.0260  39.1196
    43.6594  48.9898  52.7462  55.1776  58.8621  60.4716

          k = 0.3000-0.1000 0.3000 (   164 PWs)   bands (ev):

    -8.8936  -8.7794  -8.1378  -7.8532  -7.6004  11.1490  34.5141  39.9692
    45.5160  50.1445  52.1634  55.2614  58.0151  58.8049

          k = 0.2000 0.0000 0.2000 (   170 PWs)   bands (ev):

    -9.3839  -9.2834  -9.0048  -8.8254  -8.7773   9.7047  39.9200  41.8247
    46.4254  49.3591  53.9420  55.8532  57.0381  57.7737

          k = 0.0000 0.4000 0.0000 (   165 PWs)   bands (ev):

    -9.4741  -8.4212  -8.0797  -8.0797  -7.9341  10.7536  39.5261  40.6852
    40.6852  47.0746  49.0213  60.7692  60.7692  62.0130

          k =-0.1000 0.5000-0.1000 (   168 PWs)   bands (ev):

    -9.3262  -8.7553  -8.5752  -8.0395  -7.9077  12.1874  34.6654  39.2815
    39.5261  46.9896  48.8972  60.7609  60.8505  62.1021

          k =-0.2000 0.6000-0.2000 (   171 PWs)   bands (ev):

    -9.2894  -8.7868  -8.6241  -8.4098  -8.1133  14.3143  29.5910  37.4082
    38.6151  46.3653  52.4981  59.2047  59.5890  61.5846

          k = 0.7000-0.3000 0.7000 (   170 PWs)   bands (ev):

    -8.9371  -8.7991  -8.5138  -8.3438  -7.9523  16.7127  25.5898  35.4697
    38.8615  46.2787  56.9584  57.8314  58.5083  61.8967

          k = 0.6000-0.2000 0.6000 (   166 PWs)   bands (ev):

    -8.8735  -8.3626  -8.1679  -8.0378  -7.3476  17.2450  24.9137  34.2067
    40.0259  46.8014  56.4266  57.9261  60.9267  63.6223

          k = 0.5000-0.1000 0.5000 (   167 PWs)   bands (ev):

    -8.8714  -8.7325  -8.5234  -7.8216  -7.5155  15.0912  28.3231  33.8680
    41.9451  47.8269  55.1260  57.2774  60.1759  60.1892

          k = 0.4000 0.0000 0.4000 (   168 PWs)   bands (ev):

    -9.0951  -8.8647  -8.6265  -8.3563  -7.4984  12.8110  32.4317  35.2080
    44.1942  49.4242  53.0282  56.6004  57.5961  58.7069

          k = 0.0000 0.6000 0.0000 (   174 PWs)   bands (ev):

    -9.3509  -9.3193  -8.8670  -8.8670  -8.5936  13.3518  33.8754  37.5951
    37.5951  45.6437  46.2612  63.9792  63.9792  65.9029

          k =-0.1000 0.7000-0.1000 (   167 PWs)   bands (ev):

    -8.7280  -8.6390  -8.2928  -8.0590  -7.1707  15.2361  30.4557  35.3689
    36.7437  45.4117  47.8808  63.0288  63.7602  67.2884

          k = 0.8000-0.2000 0.8000 (   174 PWs)   bands (ev):

    -9.0885  -9.0499  -8.9640  -8.6932  -8.4074  17.4922  27.3101  32.4003
    36.7980  45.3529  51.7946  61.3915  62.0675  67.0892

          k = 0.7000-0.1000 0.7000 (   174 PWs)   bands (ev):

    -9.3090  -9.0300  -8.8770  -8.4833  -8.4762  18.6610  26.2467  30.1047
    37.8136  45.7240  56.4456  60.2531  60.4951  64.8311

          k = 0.6000-0.0000 0.6000 (   174 PWs)   bands (ev):

    -9.3015  -9.0114  -8.9494  -8.6106  -8.5814  17.2340  28.1994  29.5548
    39.6398  46.5560  58.3464  59.2677  60.1376  61.6817

          k = 0.0000 0.8000 0.0000 (   170 PWs)   bands (ev):

    -8.8987  -8.6914  -8.4767  -8.0368  -8.0368  16.8367  28.1590  35.6138
    35.6138  44.3671  45.8684  64.9477  68.0352  68.0353

          k = 0.9000-0.1000 0.9000 (   170 PWs)   bands (ev):

    -8.5872  -8.4950  -8.4412  -8.2133  -8.0355  18.7627  25.9437  33.4402
    35.4110  44.7840  47.3857  63.7815  67.0513  69.7209

          k = 0.8000 0.0000 0.8000 (   170 PWs)   bands (ev):

    -8.8182  -8.5740  -8.3901  -8.2503  -8.0599  19.5940  25.8650  30.3122
    36.1772  45.1720  51.6290  62.3197  64.9490  66.2855

          k = 0.0000-1.0000 0.0000 (   174 PWs)   bands (ev):

    -9.4242  -8.9226  -8.9226  -8.8901  -7.1168  19.6410  24.5415  34.9231
    34.9231  43.7693  45.5706  64.5244  70.1834  70.8127

          k =-0.2000 0.4000 0.0000 (   164 PWs)   bands (ev):

    -8.9403  -8.7666  -8.1811  -7.8071  -7.5820  11.2781  35.9613  38.5369
    43.6164  49.4855  50.1668  57.0731  59.1301  60.9425

          k =-0.3000 0.5000-0.1000 (   166 PWs)   bands (ev):

    -8.7999  -8.4754  -8.3374  -7.9116  -7.6548  13.1993  31.1640  36.7672
    41.8097  48.8825  52.5044  56.0790  59.1459  61.8211

          k = 0.6000-0.4000 0.8000 (   169 PWs)   bands (ev):

    -9.0246  -8.7890  -8.5325  -8.1138  -7.8768  15.6302  26.5283  36.2311
    39.9835  48.1921  53.9387  58.0496  59.2592  60.9061

          k = 0.5000-0.3000 0.7000 (   166 PWs)   bands (ev):

    -8.8401  -8.4986  -8.2566  -7.7617  -7.6255  17.2261  24.1724  36.1823
    39.2355  47.9743  53.9219  59.6987  59.8678  62.2075

          k =-0.2000 0.6000 0.0000 (   166 PWs)   bands (ev):

    -8.9288  -8.4967  -8.2042  -7.8788  -7.3212  13.8478  32.2144  35.6947
    38.4744  47.8271  48.7457  58.9611  63.4575  65.6441

          k = 0.7000-0.3000 0.9000 (   172 PWs)   bands (ev):

    -9.0254  -8.8866  -8.7973  -8.3537  -8.3083  16.0770  28.5921  33.7422
    36.8802  47.8564  52.1371  57.2421  63.9189  64.2875

          k = 0.6000-0.2000 0.8000 (   168 PWs)   bands (ev):

    -8.7916  -8.6655  -8.2098  -7.9225  -7.7875  18.0642  25.8354  32.3856
    36.6659  48.1084  55.6176  57.2947  62.2626  63.6885

          k = 0.5000-0.1000 0.7000 (   169 PWs)   bands (ev):

    -8.9241  -8.5931  -8.4646  -8.2358  -7.7656  17.4800  26.7695  31.5632
    37.7520  48.7280  55.0204  58.5079  61.4744  62.2062

          k = 0.4000 0.0000 0.6000 (   169 PWs)   bands (ev):

    -8.9840  -8.7267  -8.5342  -8.2787  -7.7370  15.2378  29.7537  32.4303
    39.6945  49.5580  53.2855  56.1058  60.9171  63.0036

          k = 0.8000-0.2000 1.0000 (   172 PWs)   bands (ev):

    -9.0476  -8.8169  -8.7513  -8.3275  -8.1742  17.2008  28.1086  33.8042
    34.9100  46.7756  48.0571  61.2058  66.1697  68.3322

          k = 0.7000-0.1000 0.9000 (   171 PWs)   bands (ev):

    -9.1576  -8.9363  -8.4731  -8.2121  -7.8001  19.0491  26.6238  30.9107
    34.6604  47.4845  51.8368  59.4832  63.5254  66.9202

          k = 0.6000 0.0000 0.8000 (   173 PWs)   bands (ev):

    -9.2411  -9.0016  -8.8311  -8.6027  -7.9492  19.0889  27.7479  28.3542
    35.7809  48.0871  56.5918  57.7689  59.9612  64.6206

          k =-0.2000-1.0000 0.0000 (   168 PWs)   bands (ev):

    -9.1366  -8.2583  -8.0570  -7.7292  -7.5902  19.7012  25.2053  33.1924
    33.8160  46.3465  48.0126  62.5755  66.2835  68.5040

          k = 0.6000-0.2000 1.0000 (   163 PWs)   bands (ev):

    -8.4838  -7.8677  -7.5478  -7.3887  -7.3672  18.1282  27.9504  30.6727
    34.7998  51.1019  52.8425  56.2142  62.1508  66.3998

          k = 0.5000-0.1000 0.9000 (   166 PWs)   bands (ev):

    -8.7308  -8.2951  -7.8787  -7.7174  -7.4260  19.2583  27.3021  29.6355
    33.8564  51.5209  54.7030  57.2504  57.9434  67.5115

          k =-0.4000-1.0000 0.0000 (   170 PWs)   bands (ev):

    -8.9523  -8.7857  -8.5788  -8.1484  -7.5200  19.7970  27.1042  30.0283
    32.4617  51.5555  52.5481  57.4460  59.3417  69.1474

     the Fermi energy is    47.8887 ev

!    total energy              =   -1040.79030116 Ry
     Harris-Foulkes estimate   =   -1040.79030117 Ry
     estimated scf accuracy    <          5.9E-09 Ry

     total all-electron energy =    -48486.243274 Ry

     The total energy is the sum of the following terms:

     one-electron contribution =       7.24810913 Ry
     hartree contribution      =      24.91409374 Ry
     xc contribution           =     -62.77162258 Ry
     ewald contribution        =    -242.33311992 Ry
     one-center paw contrib.   =    -767.84679341 Ry
     smearing contrib. (-TS)   =      -0.00096813 Ry

     convergence has been achieved in   6 iterations

     Forces acting on atoms (cartesian axes, Ry/au):

     atom    1 type  1   force =     0.00000000    0.00000000    0.00000000

     Total force =     0.000000     Total SCF correction =     0.000000


     Computing stress (Cartesian axis) and pressure

          total   stress  (Ry/bohr**3)                   (kbar)     P=********
  -0.11191795  -0.00000000  -0.00000000     -16463.70     -0.00     -0.00
  -0.00000000  -0.11191795   0.00000000         -0.00 -16463.70      0.00
  -0.00000000   0.00000000  -0.11191795         -0.00      0.00 -16463.70


     Writing output data file Fr.save/

     init_run     :      0.21s CPU      0.22s WALL (       1 calls)
     electrons    :      1.82s CPU      1.99s WALL (       1 calls)
     forces       :      0.02s CPU      0.02s WALL (       1 calls)
     stress       :      0.04s CPU      0.04s WALL (       1 calls)

     Called by init_run:
     wfcinit      :      0.05s CPU      0.06s WALL (       1 calls)
     potinit      :      0.05s CPU      0.05s WALL (       1 calls)
     hinit0       :      0.11s CPU      0.11s WALL (       1 calls)

     Called by electrons:
     c_bands      :      1.34s CPU      1.49s WALL (       6 calls)
     sum_band     :      0.18s CPU      0.20s WALL (       6 calls)
     v_of_rho     :      0.00s CPU      0.00s WALL (       7 calls)
     newd         :      0.01s CPU      0.01s WALL (       7 calls)
     PAW_pot      :      0.33s CPU      0.33s WALL (       7 calls)
     mix_rho      :      0.00s CPU      0.00s WALL (       6 calls)

     Called by c_bands:
     init_us_2    :      0.02s CPU      0.02s WALL (     705 calls)
     cegterg      :      1.30s CPU      1.44s WALL (     282 calls)

     Called by sum_band:
     sum_band:bec :      0.00s CPU      0.00s WALL (     282 calls)
     addusdens    :      0.01s CPU      0.01s WALL (       6 calls)

     Called by *egterg:
     h_psi        :      0.66s CPU      0.75s WALL (    1052 calls)
     s_psi        :      0.02s CPU      0.02s WALL (    1052 calls)
     g_psi        :      0.00s CPU      0.00s WALL (     723 calls)
     cdiaghg      :      0.45s CPU      0.49s WALL (    1005 calls)

     Called by h_psi:
     h_psi:pot    :      0.65s CPU      0.74s WALL (    1052 calls)
     h_psi:calbec :      0.04s CPU      0.05s WALL (    1052 calls)
     vloc_psi     :      0.59s CPU      0.66s WALL (    1052 calls)
     add_vuspsi   :      0.02s CPU      0.02s WALL (    1052 calls)

     General routines
     calbec       :      0.06s CPU      0.07s WALL (    1569 calls)
     fft          :      0.01s CPU      0.01s WALL (      37 calls)
     ffts         :      0.00s CPU      0.00s WALL (       6 calls)
     fftw         :      0.66s CPU      0.74s WALL (   25334 calls)

     Parallel routines
     fft_scatt_xy :      0.06s CPU      0.07s WALL (   25377 calls)
     fft_scatt_yz :      0.32s CPU      0.36s WALL (   25377 calls)

     PWSCF        :     3.08s CPU         3.36s WALL


   This run was terminated on:  22:24:57   7Apr2024            

=------------------------------------------------------------------------------=
   JOB DONE.
=------------------------------------------------------------------------------=
