
     Program PWSCF v.6.3MaX starts on  7Apr2024 at 22:49:50 

     This program is part of the open-source Quantum ESPRESSO suite
     for quantum simulation of materials; please cite
         "P. Giannozzi et al., J. Phys.:Condens. Matter 21 395502 (2009);
         "P. Giannozzi et al., J. Phys.:Condens. Matter 29 465901 (2017);
          URL http://www.quantum-espresso.org", 
     in publications or presentations arising from this work. More details at
     http://www.quantum-espresso.org/quote

     Parallel version (MPI), running on     5 processors

     MPI processes distributed on     1 nodes
     R & G space division:  proc/nbgrp/npool/nimage =       5
     Waiting for input...
     Reading input from standard input

     Current dimensions of program PWSCF are:
     Max number of different atomic species (ntypx) = 10
     Max number of k-points (npk) =  40000
     Max angular momentum in pseudopotentials (lmaxx) =  3

     Subspace diagonalization in iterative solution of the eigenvalue problem:
     a serial algorithm will be used


     Parallelization info
     --------------------
     sticks:   dense  smooth     PW     G-vecs:    dense   smooth      PW
     Min          95      95     30                 1375     1375     248
     Max          95      95     31                 1376     1376     251
     Sum         475     475    151                 6879     6879    1243



     bravais-lattice index     =            2
     lattice parameter (alat)  =       6.8300  a.u.
     unit-cell volume          =      79.6530 (a.u.)^3
     number of atoms/cell      =            1
     number of atomic types    =            1
     number of electrons       =        19.00
     number of Kohn-Sham states=           14
     kinetic-energy cutoff     =      75.0000  Ry
     charge density cutoff     =     300.0000  Ry
     convergence threshold     =      1.0E-08
     mixing beta               =       0.7000
     number of iterations used =            8  plain     mixing
     Exchange-correlation      = PBE ( 1  4  3  4 0 0)

     celldm(1)=   6.830000  celldm(2)=   0.000000  celldm(3)=   0.000000
     celldm(4)=   0.000000  celldm(5)=   0.000000  celldm(6)=   0.000000

     crystal axes: (cart. coord. in units of alat)
               a(1) = (  -0.500000   0.000000   0.500000 )  
               a(2) = (   0.000000   0.500000   0.500000 )  
               a(3) = (  -0.500000   0.500000   0.000000 )  

     reciprocal axes: (cart. coord. in units 2 pi/alat)
               b(1) = ( -1.000000 -1.000000  1.000000 )  
               b(2) = (  1.000000  1.000000  1.000000 )  
               b(3) = ( -1.000000  1.000000 -1.000000 )  


     PseudoPot. # 1 for Fr read from file:
     /home/lorenzo/pseudos/Fr/Fr.pbe-spdn-rrkjus_psl.1.0.0.UPF
     MD5 check sum: 07cabfa18982bd6b5b9d8ae5689d9732
     Pseudo is Ultrasoft + core correction, Zval = 19.0
     Generated using "atomic" code by A. Dal Corso v.6.2.2
     Using radial grid of 1287 points,  6 beta functions with: 
                l(1) =   0
                l(2) =   0
                l(3) =   1
                l(4) =   1
                l(5) =   2
                l(6) =   2
     Q(r) pseudized with 0 coefficients 


     atomic species   valence    mass     pseudopotential
        Fr            19.00   223.00000     Fr( 1.00)

     48 Sym. Ops., with inversion, found



   Cartesian axes

     site n.     atom                  positions (alat units)
         1           Fr  tau(   1) = (   0.0000000   0.0000000   0.0000000  )

     number of k points=    56  gaussian smearing, width (Ry)=  0.0100
                       cart. coord. in units 2pi/alat
        k(    1) = (   0.0000000   0.0000000   0.0000000), wk =   0.0015026
        k(    2) = (  -0.0909091   0.0909091  -0.0909091), wk =   0.0120210
        k(    3) = (  -0.1818182   0.1818182  -0.1818182), wk =   0.0120210
        k(    4) = (  -0.2727273   0.2727273  -0.2727273), wk =   0.0120210
        k(    5) = (  -0.3636364   0.3636364  -0.3636364), wk =   0.0120210
        k(    6) = (  -0.4545455   0.4545455  -0.4545455), wk =   0.0120210
        k(    7) = (   0.0000000   0.1818182   0.0000000), wk =   0.0090158
        k(    8) = (  -0.0909091   0.2727273  -0.0909091), wk =   0.0360631
        k(    9) = (  -0.1818182   0.3636364  -0.1818182), wk =   0.0360631
        k(   10) = (  -0.2727273   0.4545455  -0.2727273), wk =   0.0360631
        k(   11) = (  -0.3636364   0.5454545  -0.3636364), wk =   0.0360631
        k(   12) = (   0.5454545  -0.3636364   0.5454545), wk =   0.0360631
        k(   13) = (   0.4545455  -0.2727273   0.4545455), wk =   0.0360631
        k(   14) = (   0.3636364  -0.1818182   0.3636364), wk =   0.0360631
        k(   15) = (   0.2727273  -0.0909091   0.2727273), wk =   0.0360631
        k(   16) = (   0.1818182  -0.0000000   0.1818182), wk =   0.0180316
        k(   17) = (   0.0000000   0.3636364   0.0000000), wk =   0.0090158
        k(   18) = (  -0.0909091   0.4545455  -0.0909091), wk =   0.0360631
        k(   19) = (  -0.1818182   0.5454545  -0.1818182), wk =   0.0360631
        k(   20) = (  -0.2727273   0.6363636  -0.2727273), wk =   0.0360631
        k(   21) = (   0.6363636  -0.2727273   0.6363636), wk =   0.0360631
        k(   22) = (   0.5454545  -0.1818182   0.5454545), wk =   0.0360631
        k(   23) = (   0.4545455  -0.0909091   0.4545455), wk =   0.0360631
        k(   24) = (   0.3636364   0.0000000   0.3636364), wk =   0.0180316
        k(   25) = (   0.0000000   0.5454545   0.0000000), wk =   0.0090158
        k(   26) = (  -0.0909091   0.6363636  -0.0909091), wk =   0.0360631
        k(   27) = (  -0.1818182   0.7272727  -0.1818182), wk =   0.0360631
        k(   28) = (   0.7272727  -0.1818182   0.7272727), wk =   0.0360631
        k(   29) = (   0.6363636  -0.0909091   0.6363636), wk =   0.0360631
        k(   30) = (   0.5454545   0.0000000   0.5454545), wk =   0.0180316
        k(   31) = (   0.0000000   0.7272727   0.0000000), wk =   0.0090158
        k(   32) = (  -0.0909091   0.8181818  -0.0909091), wk =   0.0360631
        k(   33) = (   0.8181818  -0.0909091   0.8181818), wk =   0.0360631
        k(   34) = (   0.7272727   0.0000000   0.7272727), wk =   0.0180316
        k(   35) = (   0.0000000   0.9090909   0.0000000), wk =   0.0090158
        k(   36) = (   0.9090909  -0.0000000   0.9090909), wk =   0.0180316
        k(   37) = (  -0.1818182   0.3636364   0.0000000), wk =   0.0360631
        k(   38) = (  -0.2727273   0.4545455  -0.0909091), wk =   0.0721262
        k(   39) = (  -0.3636364   0.5454545  -0.1818182), wk =   0.0721262
        k(   40) = (   0.5454545  -0.3636364   0.7272727), wk =   0.0721262
        k(   41) = (  -0.1818182   0.5454545   0.0000000), wk =   0.0360631
        k(   42) = (  -0.2727273   0.6363636  -0.0909091), wk =   0.0721262
        k(   43) = (   0.6363636  -0.2727273   0.8181818), wk =   0.0721262
        k(   44) = (   0.5454545  -0.1818182   0.7272727), wk =   0.0721262
        k(   45) = (   0.4545455  -0.0909091   0.6363636), wk =   0.0721262
        k(   46) = (   0.3636364   0.0000000   0.5454545), wk =   0.0360631
        k(   47) = (  -0.1818182   0.7272727   0.0000000), wk =   0.0360631
        k(   48) = (   0.7272727  -0.1818182   0.9090909), wk =   0.0721262
        k(   49) = (   0.6363636  -0.0909091   0.8181818), wk =   0.0721262
        k(   50) = (   0.5454545   0.0000000   0.7272727), wk =   0.0360631
        k(   51) = (   0.8181818  -0.0909091   1.0000000), wk =   0.0360631
        k(   52) = (   0.7272727   0.0000000   0.9090909), wk =   0.0360631
        k(   53) = (   0.6363636  -0.2727273   1.0000000), wk =   0.0360631
        k(   54) = (   0.5454545  -0.1818182   0.9090909), wk =   0.0721262
        k(   55) = (   0.6363636  -0.0909091   1.0000000), wk =   0.0360631
        k(   56) = (   0.5454545   0.0000000   0.9090909), wk =   0.0360631

     Dense  grid:     6879 G-vectors     FFT dimensions: (  27,  27,  27)

     Estimated max dynamical RAM per process >       8.77 MB

     Estimated total dynamical RAM >      43.85 MB

     Initial potential from superposition of free atoms

     starting charge   18.97009, renormalised to   19.00000
     Starting wfcs are   10 randomized atomic wfcs +    4 random wfcs

     total cpu time spent up to now is        1.3 secs

     Self-consistent Calculation

     iteration #  1     ecut=    75.00 Ry     beta= 0.70
     Davidson diagonalization with overlap
     ethr =  1.00E-02,  avg # of iterations =  4.8

     Threshold (ethr) on eigenvalues was too large:
     Diagonalizing with lowered threshold

     Davidson diagonalization with overlap
     ethr =  1.01E-04,  avg # of iterations =  1.7

     total cpu time spent up to now is        3.1 secs

     total energy              =    -282.84729902 Ry
     Harris-Foulkes estimate   =    -282.85911242 Ry
     estimated scf accuracy    <       0.01905857 Ry

     iteration #  2     ecut=    75.00 Ry     beta= 0.70
     Davidson diagonalization with overlap
     ethr =  1.00E-04,  avg # of iterations =  2.0

     total cpu time spent up to now is        3.8 secs

     total energy              =    -282.85022652 Ry
     Harris-Foulkes estimate   =    -282.85068962 Ry
     estimated scf accuracy    <       0.00067399 Ry

     iteration #  3     ecut=    75.00 Ry     beta= 0.70
     Davidson diagonalization with overlap
     ethr =  3.55E-06,  avg # of iterations =  2.3

     total cpu time spent up to now is        4.7 secs

     total energy              =    -282.85033735 Ry
     Harris-Foulkes estimate   =    -282.85035487 Ry
     estimated scf accuracy    <       0.00003963 Ry

     iteration #  4     ecut=    75.00 Ry     beta= 0.70
     Davidson diagonalization with overlap
     ethr =  2.09E-07,  avg # of iterations =  1.5

     total cpu time spent up to now is        5.3 secs

     total energy              =    -282.85034104 Ry
     Harris-Foulkes estimate   =    -282.85034105 Ry
     estimated scf accuracy    <       0.00000013 Ry

     iteration #  5     ecut=    75.00 Ry     beta= 0.70
     Davidson diagonalization with overlap
     ethr =  6.74E-10,  avg # of iterations =  2.5

     total cpu time spent up to now is        6.1 secs

     End of self-consistent calculation

          k = 0.0000 0.0000 0.0000 (   893 PWs)   bands (ev):

    -9.2906  -9.2906  -9.2906  -8.9473  -8.9473   9.4702  47.2860  47.2860
    47.2860  48.3122  53.8669  53.8669  53.8669  57.8163

          k =-0.0909 0.0909-0.0909 (   881 PWs)   bands (ev):

    -9.2868  -9.2637  -9.2637  -8.9470  -8.9470   9.8015  43.6453  46.7709
    46.7709  48.1953  54.7055  54.7055  55.7966  57.6572

          k =-0.1818 0.1818-0.1818 (   893 PWs)   bands (ev):

    -9.2798  -9.2139  -9.2139  -8.9265  -8.9265  10.7975  37.9833  45.6763
    45.6763  48.2212  54.7606  55.4660  55.4660  56.7606

          k =-0.2727 0.2727-0.2727 (   887 PWs)   bands (ev):

    -9.2747  -9.1990  -9.1990  -8.8456  -8.8456  12.4511  32.5206  44.5305
    44.5305  48.2232  53.0362  53.6480  53.6480  59.4773

          k =-0.3636 0.3636-0.3636 (   872 PWs)   bands (ev):

    -9.2746  -9.2165  -9.2165  -8.7369  -8.7369  14.6879  27.6533  43.6095
    43.6095  48.1582  51.8542  52.4389  52.4389  62.4848

          k =-0.4545 0.4545-0.4545 (   874 PWs)   bands (ev):

    -9.2754  -9.2337  -9.2337  -8.6659  -8.6659  17.0411  23.9623  43.0963
    43.0963  48.0739  51.3024  51.8489  51.8489  65.0282

          k = 0.0000 0.1818 0.0000 (   889 PWs)   bands (ev):

    -9.3162  -9.2376  -9.2376  -8.9749  -8.9249   9.9118  45.1234  45.1234
    45.5956  47.2914  54.2107  55.6092  56.2806  56.2806

          k =-0.0909 0.2727-0.0909 (   892 PWs)   bands (ev):

    -9.3260  -9.1832  -9.1784  -8.9913  -8.8943  10.6862  40.0248  43.6003
    45.1590  48.2449  51.5555  55.4952  57.9746  58.2623

          k =-0.1818 0.3636-0.1818 (   876 PWs)   bands (ev):

    -9.3124  -9.1645  -9.1474  -8.9464  -8.8198  12.1222  34.4903  42.4508
    43.9782  48.1159  51.8769  55.4418  56.5602  56.9125

          k =-0.2727 0.4545-0.2727 (   872 PWs)   bands (ev):

    -9.2949  -9.1878  -9.1589  -8.8432  -8.7205  14.1761  29.4328  41.8016
    42.5507  47.0931  53.3380  54.7375  54.8606  57.7411

          k =-0.3636 0.5455-0.3636 (   873 PWs)   bands (ev):

    -9.2804  -9.2109  -9.1819  -8.7433  -8.6587  16.5942  25.2638  41.2067
    41.7466  46.7300  53.3821  53.5901  54.3031  61.0124

          k = 0.5455-0.3636 0.5455 (   875 PWs)   bands (ev):

    -9.2639  -9.2251  -9.1930  -8.6893  -8.6690  17.7369  23.6832  40.2829
    42.3418  46.9668  52.5359  52.7901  55.1068  64.2794

          k = 0.4545-0.2727 0.4545 (   876 PWs)   bands (ev):

    -9.2516  -9.2235  -9.1850  -8.7520  -8.6996  15.7864  26.5203  39.9266
    43.5719  47.7409  51.9257  52.4598  56.2618  61.6462

          k = 0.3636-0.1818 0.3636 (   870 PWs)   bands (ev):

    -9.2626  -9.1965  -9.1662  -8.8753  -8.7648  13.4284  31.0585  40.1568
    45.2914  48.9372  51.5678  52.6290  57.7638  58.3383

          k = 0.2727-0.0909 0.2727 (   883 PWs)   bands (ev):

    -9.2801  -9.1833  -9.1749  -8.9668  -8.8520  11.5710  36.2913  40.9412
    47.0584  49.6965  52.0831  53.4219  55.5794  57.3589

          k = 0.1818-0.0000 0.1818 (   895 PWs)   bands (ev):

    -9.2920  -9.2319  -9.2125  -8.9726  -8.9148  10.3544  41.5118  42.5635
    47.7848  49.0489  54.0587  54.1666  55.1392  56.4340

          k = 0.0000 0.3636 0.0000 (   877 PWs)   bands (ev):

    -9.3862  -9.0941  -9.0941  -9.0495  -8.8649  11.2391  41.7681  41.7681
    41.8816  45.6940  48.6125  59.3481  59.8316  59.8316

          k =-0.0909 0.4545-0.0909 (   872 PWs)   bands (ev):

    -9.4045  -9.1101  -9.0306  -8.9894  -8.8041  12.4541  36.6616  40.4252
    41.2133  45.9453  47.9470  59.2997  59.8930  60.6544

          k =-0.1818 0.5455-0.1818 (   875 PWs)   bands (ev):

    -9.3818  -9.1440  -9.0294  -8.9066  -8.7094  14.3006  31.6198  39.2924
    39.6898  45.3291  51.0938  58.1953  58.4360  59.6179

          k =-0.2727 0.6364-0.2727 (   879 PWs)   bands (ev):

    -9.3454  -9.1445  -9.0524  -8.8465  -8.6499  16.6197  27.2564  37.4299
    39.6410  45.1312  55.1048  56.6668  57.0851  59.6044

          k = 0.6364-0.2727 0.6364 (   867 PWs)   bands (ev):

    -9.3107  -9.1325  -9.0719  -8.7989  -8.6658  18.4712  24.6054  36.0207
    40.3192  45.4391  55.5520  55.6052  59.6807  60.3651

          k = 0.5455-0.1818 0.5455 (   870 PWs)   bands (ev):

    -9.2709  -9.1494  -9.0755  -8.7618  -8.7592  17.3615  26.1760  35.2248
    41.7079  46.2496  54.6204  54.8696  60.9747  61.5260

          k = 0.4545-0.0909 0.4545 (   878 PWs)   bands (ev):

    -9.2262  -9.1965  -9.0610  -8.9003  -8.7523  15.0159  30.1861  35.1354
    43.6973  47.5879  53.5648  54.6039  57.8423  59.3542

          k = 0.3636 0.0000 0.3636 (   869 PWs)   bands (ev):

    -9.2496  -9.1890  -9.0775  -8.9970  -8.7841  12.9959  34.4465  36.3123
    45.9358  49.4531  51.9631  54.3492  55.1685  57.6470

          k = 0.0000 0.5455 0.0000 (   861 PWs)   bands (ev):

    -9.4770  -9.1571  -8.9009  -8.9009  -8.7860  13.4473  36.7302  38.8647
    38.8647  44.4107  45.1831  62.8798  62.8798  64.1214

          k =-0.0909 0.6364-0.0909 (   865 PWs)   bands (ev):

    -9.4899  -9.2007  -8.8650  -8.8215  -8.7066  15.0772  33.0775  36.7737
    37.9353  44.1794  46.2864  61.8143  62.6347  65.0677

          k =-0.1818 0.7273-0.1818 (   870 PWs)   bands (ev):

    -9.4482  -9.1935  -8.8841  -8.8003  -8.6415  17.2261  29.2385  34.2236
    37.7284  43.9940  50.0037  60.0941  61.0725  65.1388

          k = 0.7273-0.1818 0.7273 (   873 PWs)   bands (ev):

    -9.3904  -9.1130  -8.9091  -8.8411  -8.6565  19.3119  26.3609  32.2123
    38.2809  44.2351  54.4390  58.7748  59.5885  65.5162

          k = 0.6364-0.0909 0.6364 (   874 PWs)   bands (ev):

    -9.3340  -9.0188  -8.9263  -8.8960  -8.7515  19.1806  26.7356  30.9355
    39.5663  44.9100  57.8645  58.2731  59.0944  62.3513

          k = 0.5455 0.0000 0.5455 (   869 PWs)   bands (ev):

    -9.2759  -9.0926  -8.9438  -8.8818  -8.8152  17.0944  29.5167  31.0667
    41.4702  46.0362  56.3914  57.1046  58.7554  59.9857

          k = 0.0000 0.7273 0.0000 (   866 PWs)   bands (ev):

    -9.5602  -9.2644  -8.7196  -8.7196  -8.7131  16.4873  31.1229  36.7852
    36.7852  43.4921  43.5641  64.5408  66.4046  66.4046

          k =-0.0909 0.8182-0.0909 (   871 PWs)   bands (ev):

    -9.5550  -9.2853  -8.7336  -8.6802  -8.6341  18.4227  28.4839  34.4235
    36.3615  43.2796  45.4056  63.1779  65.7464  69.1463

          k = 0.8182-0.0909 0.8182 (   872 PWs)   bands (ev):

    -9.4887  -9.2364  -8.7595  -8.7234  -8.6384  20.3844  26.6903  31.2083
    36.7135  43.4296  49.4273  61.6598  64.0999  67.9577

          k = 0.7273 0.0000 0.7273 (   874 PWs)   bands (ev):

    -9.4079  -9.1047  -8.8355  -8.8066  -8.7079  20.6797  27.2410  28.7786
    37.8180  43.9673  54.1553  60.1200  62.0095  64.4308

          k = 0.0000 0.9091 0.0000 (   878 PWs)   bands (ev):

    -9.6089  -9.3314  -8.6697  -8.6101  -8.6101  20.0503  26.1586  35.7032
    35.7032  42.7835  43.1487  64.3932  70.2443  70.2603

          k = 0.9091-0.0000 0.9091 (   874 PWs)   bands (ev):

    -9.5794  -9.3178  -8.6830  -8.6264  -8.6079  21.1372  25.1957  33.7587
    35.8236  43.0011  45.1250  63.5982  68.3661  69.8370

          k =-0.1818 0.3636 0.0000 (   879 PWs)   bands (ev):

    -9.3381  -9.1451  -9.1014  -9.0138  -8.8391  11.6812  37.8898  39.4292
    45.2472  48.4113  49.6861  56.1941  56.7579  59.1824

          k =-0.2727 0.4545-0.0909 (   869 PWs)   bands (ev):

    -9.3137  -9.1623  -9.0678  -8.9568  -8.7617  13.3244  33.1199  37.9429
    43.3950  48.2046  51.4509  54.6294  57.0001  60.9286

          k =-0.3636 0.5455-0.1818 (   879 PWs)   bands (ev):

    -9.2789  -9.1963  -9.0811  -8.8501  -8.6994  15.5271  28.4291  37.4676
    41.4597  47.6123  52.3918  55.8604  57.4498  59.5799

          k = 0.5455-0.3636 0.7273 (   869 PWs)   bands (ev):

    -9.2530  -9.2238  -9.0860  -8.7751  -8.6723  17.7997  24.8789  37.4349
    40.2120  47.3034  51.9746  57.2174  58.2890  60.5358

          k =-0.1818 0.5455 0.0000 (   866 PWs)   bands (ev):

    -9.4170  -9.1493  -8.9767  -8.9068  -8.7442  13.8769  34.5291  36.7878
    40.0365  46.9621  47.2107  57.9917  61.2785  64.1896

          k =-0.2727 0.6364-0.0909 (   870 PWs)   bands (ev):

    -9.3776  -9.1703  -8.9800  -8.8351  -8.6896  15.8838  30.5542  35.2305
    38.2476  46.7357  50.5362  56.1869  61.8200  63.3942

          k = 0.6364-0.2727 0.8182 (   869 PWs)   bands (ev):

    -9.3254  -9.1528  -8.9771  -8.8381  -8.6631  18.1730  26.8416  34.2438
    37.4297  46.8038  53.9084  55.6462  61.4782  62.6969

          k = 0.5455-0.1818 0.7273 (   869 PWs)   bands (ev):

    -9.2838  -9.1434  -8.9447  -8.8760  -8.6876  19.1613  25.5388  33.3152
    37.9071  47.3167  53.5026  59.4586  60.4779  60.9539

          k = 0.4545-0.0909 0.6364 (   875 PWs)   bands (ev):

    -9.2413  -9.1843  -8.9802  -8.8424  -8.7475  17.3761  28.1378  32.8603
    39.3003  48.2758  52.8352  56.6581  59.6986  63.0177

          k = 0.3636 0.0000 0.5455 (   873 PWs)   bands (ev):

    -9.2595  -9.1959  -9.0013  -8.9162  -8.7437  15.1333  31.6787  33.7051
    41.2925  49.4203  51.4967  54.3169  58.7856  61.6931

          k =-0.1818 0.7273 0.0000 (   868 PWs)   bands (ev):

    -9.4907  -9.2339  -8.8466  -8.7220  -8.6771  16.8684  30.6996  34.8855
    36.0830  45.8528  45.9252  60.1332  66.1077  66.3661

          k = 0.7273-0.1818 0.9091 (   869 PWs)   bands (ev):

    -9.4291  -9.2142  -8.8702  -8.7315  -8.6457  19.0168  28.1765  32.2743
    35.4257  45.9174  49.7675  58.4164  64.5752  66.5804

          k = 0.6364-0.0909 0.8182 (   872 PWs)   bands (ev):

    -9.3571  -9.1143  -8.9215  -8.8166  -8.6596  20.4476  26.9078  30.0731
    36.0027  46.3823  54.3418  57.0568  61.4068  64.1504

          k = 0.5455 0.0000 0.7273 (   879 PWs)   bands (ev):

    -9.2966  -9.0493  -8.9799  -8.8511  -8.7329  19.4124  28.4343  29.1745
    37.3623  47.2670  55.4969  57.9315  59.2543  62.2891

          k = 0.8182-0.0909 1.0000 (   874 PWs)   bands (ev):

    -9.5347  -9.2921  -8.7314  -8.6678  -8.6102  20.2658  26.4993  33.8891
    34.4071  45.2264  45.4094  62.0357  66.7064  69.0670

          k = 0.7273 0.0000 0.9091 (   873 PWs)   bands (ev):

    -9.4488  -9.2354  -8.7851  -8.7491  -8.6123  21.2210  26.2269  31.0037
    34.7318  45.6534  49.4994  60.1030  63.6228  66.9956

          k = 0.6364-0.2727 1.0000 (   867 PWs)   bands (ev):

    -9.3021  -9.1944  -8.9819  -8.7408  -8.7279  17.9370  29.4671  31.8448
    36.1448  50.0420  50.3833  54.7472  64.1002  64.1926

          k = 0.5455-0.1818 0.9091 (   875 PWs)   bands (ev):

    -9.2349  -9.1717  -8.9931  -8.8276  -8.6602  19.9069  27.3213  30.9468
    34.8100  50.0470  52.7525  55.6841  59.9439  65.3430

          k = 0.6364-0.0909 1.0000 (   879 PWs)   bands (ev):

    -9.3304  -9.2066  -8.9251  -8.7755  -8.6108  20.7625  27.4560  30.8749
    32.9717  49.7976  50.1112  56.7256  61.0370  68.9142

          k = 0.5455 0.0000 0.9091 (   879 PWs)   bands (ev):

    -9.2409  -9.1204  -9.0519  -8.8222  -8.6121  21.1593  28.1865  28.9106
    33.1137  50.4878  54.5832  54.8614  57.2946  67.9688

     the Fermi energy is    46.8240 ev

!    total energy              =    -282.85034109 Ry
     Harris-Foulkes estimate   =    -282.85034109 Ry
     estimated scf accuracy    <          6.4E-09 Ry

     The total energy is the sum of the following terms:

     one-electron contribution =      -4.09270280 Ry
     hartree contribution      =      28.16656029 Ry
     xc contribution           =     -64.59054743 Ry
     ewald contribution        =    -242.33311988 Ry
     smearing contrib. (-TS)   =      -0.00053128 Ry

     convergence has been achieved in   5 iterations

     Forces acting on atoms (cartesian axes, Ry/au):

     atom    1 type  1   force =     0.00000000    0.00000000    0.00000000

     Total force =     0.000000     Total SCF correction =     0.000000


     Computing stress (Cartesian axis) and pressure

          total   stress  (Ry/bohr**3)                   (kbar)     P= 7208.58
   0.04900291  -0.00000000   0.00000000       7208.58     -0.00      0.00
  -0.00000000   0.04900291  -0.00000000         -0.00   7208.58     -0.00
  -0.00000000  -0.00000000   0.04900291         -0.00     -0.00   7208.58


     Writing output data file Fr.save/

     init_run     :      0.39s CPU      0.41s WALL (       1 calls)
     electrons    :      4.66s CPU      4.85s WALL (       1 calls)
     forces       :      0.09s CPU      0.09s WALL (       1 calls)
     stress       :      0.26s CPU      0.26s WALL (       1 calls)

     Called by init_run:
     wfcinit      :      0.19s CPU      0.21s WALL (       1 calls)
     potinit      :      0.01s CPU      0.01s WALL (       1 calls)
     hinit0       :      0.17s CPU      0.17s WALL (       1 calls)

     Called by electrons:
     c_bands      :      3.91s CPU      4.06s WALL (       6 calls)
     sum_band     :      0.69s CPU      0.73s WALL (       6 calls)
     v_of_rho     :      0.02s CPU      0.02s WALL (       6 calls)
     newd         :      0.04s CPU      0.04s WALL (       6 calls)
     mix_rho      :      0.00s CPU      0.00s WALL (       6 calls)

     Called by c_bands:
     init_us_2    :      0.10s CPU      0.10s WALL (     840 calls)
     cegterg      :      3.78s CPU      3.92s WALL (     336 calls)

     Called by sum_band:
     sum_band:bec :      0.00s CPU      0.00s WALL (     336 calls)
     addusdens    :      0.04s CPU      0.05s WALL (       6 calls)

     Called by *egterg:
     h_psi        :      2.78s CPU      2.91s WALL (    1222 calls)
     s_psi        :      0.08s CPU      0.09s WALL (    1222 calls)
     g_psi        :      0.01s CPU      0.01s WALL (     830 calls)
     cdiaghg      :      0.51s CPU      0.52s WALL (    1110 calls)

     Called by h_psi:
     h_psi:pot    :      2.77s CPU      2.90s WALL (    1222 calls)
     h_psi:calbec :      0.12s CPU      0.13s WALL (    1222 calls)
     vloc_psi     :      2.55s CPU      2.67s WALL (    1222 calls)
     add_vuspsi   :      0.09s CPU      0.09s WALL (    1222 calls)

     General routines
     calbec       :      0.22s CPU      0.23s WALL (    1838 calls)
     fft          :      0.02s CPU      0.02s WALL (      93 calls)
     ffts         :      0.00s CPU      0.00s WALL (       6 calls)
     fftw         :      2.89s CPU      3.02s WALL (   29842 calls)

     Parallel routines
     fft_scatt_xy :      0.26s CPU      0.27s WALL (   29941 calls)
     fft_scatt_yz :      0.62s CPU      0.64s WALL (   29941 calls)

     PWSCF        :     6.32s CPU         6.63s WALL


   This run was terminated on:  22:49:57   7Apr2024            

=------------------------------------------------------------------------------=
   JOB DONE.
=------------------------------------------------------------------------------=
