
     Program PWSCF v.6.3MaX starts on  7Apr2024 at 22:28: 1 

     This program is part of the open-source Quantum ESPRESSO suite
     for quantum simulation of materials; please cite
         "P. Giannozzi et al., J. Phys.:Condens. Matter 21 395502 (2009);
         "P. Giannozzi et al., J. Phys.:Condens. Matter 29 465901 (2017);
          URL http://www.quantum-espresso.org", 
     in publications or presentations arising from this work. More details at
     http://www.quantum-espresso.org/quote

     Parallel version (MPI), running on     5 processors

     MPI processes distributed on     1 nodes
     R & G space division:  proc/nbgrp/npool/nimage =       5
     Waiting for input...
     Reading input from standard input

     Current dimensions of program PWSCF are:
     Max number of different atomic species (ntypx) = 10
     Max number of k-points (npk) =  40000
     Max angular momentum in pseudopotentials (lmaxx) =  3

     Subspace diagonalization in iterative solution of the eigenvalue problem:
     a serial algorithm will be used


     Parallelization info
     --------------------
     sticks:   dense  smooth     PW     G-vecs:    dense   smooth      PW
     Min          39      39     13                  361      361      77
     Max          40      40     15                  363      363      78
     Sum         199     199     73                 1807     1807     387



     bravais-lattice index     =            2
     lattice parameter (alat)  =       6.8300  a.u.
     unit-cell volume          =      79.6530 (a.u.)^3
     number of atoms/cell      =            1
     number of atomic types    =            1
     number of electrons       =        19.00
     number of Kohn-Sham states=           14
     kinetic-energy cutoff     =      30.0000  Ry
     charge density cutoff     =     120.0000  Ry
     convergence threshold     =      1.0E-08
     mixing beta               =       0.7000
     number of iterations used =            8  plain     mixing
     Exchange-correlation      = PBE ( 1  4  3  4 0 0)

     celldm(1)=   6.830000  celldm(2)=   0.000000  celldm(3)=   0.000000
     celldm(4)=   0.000000  celldm(5)=   0.000000  celldm(6)=   0.000000

     crystal axes: (cart. coord. in units of alat)
               a(1) = (  -0.500000   0.000000   0.500000 )  
               a(2) = (   0.000000   0.500000   0.500000 )  
               a(3) = (  -0.500000   0.500000   0.000000 )  

     reciprocal axes: (cart. coord. in units 2 pi/alat)
               b(1) = ( -1.000000 -1.000000  1.000000 )  
               b(2) = (  1.000000  1.000000  1.000000 )  
               b(3) = ( -1.000000  1.000000 -1.000000 )  


     PseudoPot. # 1 for Fr read from file:
     /home/lorenzo/pseudos/Fr/Fr.pbe-spdn-rrkjus_psl.1.0.0.UPF
     MD5 check sum: 07cabfa18982bd6b5b9d8ae5689d9732
     Pseudo is Ultrasoft + core correction, Zval = 19.0
     Generated using "atomic" code by A. Dal Corso v.6.2.2
     Using radial grid of 1287 points,  6 beta functions with: 
                l(1) =   0
                l(2) =   0
                l(3) =   1
                l(4) =   1
                l(5) =   2
                l(6) =   2
     Q(r) pseudized with 0 coefficients 


     atomic species   valence    mass     pseudopotential
        Fr            19.00   223.00000     Fr( 1.00)

     48 Sym. Ops., with inversion, found



   Cartesian axes

     site n.     atom                  positions (alat units)
         1           Fr  tau(   1) = (   0.0000000   0.0000000   0.0000000  )

     number of k points=    16  gaussian smearing, width (Ry)=  0.0100
                       cart. coord. in units 2pi/alat
        k(    1) = (   0.0000000   0.0000000   0.0000000), wk =   0.0092593
        k(    2) = (  -0.1666667   0.1666667  -0.1666667), wk =   0.0740741
        k(    3) = (  -0.3333333   0.3333333  -0.3333333), wk =   0.0740741
        k(    4) = (   0.5000000  -0.5000000   0.5000000), wk =   0.0370370
        k(    5) = (   0.0000000   0.3333333   0.0000000), wk =   0.0555556
        k(    6) = (  -0.1666667   0.5000000  -0.1666667), wk =   0.2222222
        k(    7) = (   0.6666667  -0.3333333   0.6666667), wk =   0.2222222
        k(    8) = (   0.5000000  -0.1666667   0.5000000), wk =   0.2222222
        k(    9) = (   0.3333333   0.0000000   0.3333333), wk =   0.1111111
        k(   10) = (   0.0000000   0.6666667   0.0000000), wk =   0.0555556
        k(   11) = (   0.8333333  -0.1666667   0.8333333), wk =   0.2222222
        k(   12) = (   0.6666667  -0.0000000   0.6666667), wk =   0.1111111
        k(   13) = (   0.0000000  -1.0000000   0.0000000), wk =   0.0277778
        k(   14) = (   0.6666667  -0.3333333   1.0000000), wk =   0.2222222
        k(   15) = (   0.5000000  -0.1666667   0.8333333), wk =   0.2222222
        k(   16) = (  -0.3333333  -1.0000000   0.0000000), wk =   0.1111111

     Dense  grid:     1807 G-vectors     FFT dimensions: (  18,  18,  18)

     Estimated max dynamical RAM per process >       2.48 MB

     Estimated total dynamical RAM >      12.41 MB

     Check: negative/imaginary core charge=   -0.000066    0.000000

     Initial potential from superposition of free atoms

     starting charge   18.97009, renormalised to   19.00000
     Starting wfcs are   10 randomized atomic wfcs +    4 random wfcs

     total cpu time spent up to now is        1.0 secs

     Self-consistent Calculation

     iteration #  1     ecut=    30.00 Ry     beta= 0.70
     Davidson diagonalization with overlap
     ethr =  1.00E-02,  avg # of iterations =  5.0

     total cpu time spent up to now is        1.2 secs

     total energy              =    -281.05774900 Ry
     Harris-Foulkes estimate   =    -281.22143354 Ry
     estimated scf accuracy    <       0.21987214 Ry

     iteration #  2     ecut=    30.00 Ry     beta= 0.70
     Davidson diagonalization with overlap
     ethr =  1.16E-03,  avg # of iterations =  2.1

     total cpu time spent up to now is        1.3 secs

     total energy              =    -281.11011134 Ry
     Harris-Foulkes estimate   =    -281.11692609 Ry
     estimated scf accuracy    <       0.01176727 Ry

     iteration #  3     ecut=    30.00 Ry     beta= 0.70
     Davidson diagonalization with overlap
     ethr =  6.19E-05,  avg # of iterations =  2.1

     total cpu time spent up to now is        1.4 secs

     total energy              =    -281.11218439 Ry
     Harris-Foulkes estimate   =    -281.11225853 Ry
     estimated scf accuracy    <       0.00048718 Ry

     iteration #  4     ecut=    30.00 Ry     beta= 0.70
     Davidson diagonalization with overlap
     ethr =  2.56E-06,  avg # of iterations =  2.4

     total cpu time spent up to now is        1.5 secs

     total energy              =    -281.11221271 Ry
     Harris-Foulkes estimate   =    -281.11221115 Ry
     estimated scf accuracy    <       0.00000243 Ry

     iteration #  5     ecut=    30.00 Ry     beta= 0.70
     Davidson diagonalization with overlap
     ethr =  1.28E-08,  avg # of iterations =  2.6

     total cpu time spent up to now is        1.6 secs

     total energy              =    -281.11221367 Ry
     Harris-Foulkes estimate   =    -281.11221371 Ry
     estimated scf accuracy    <       0.00000013 Ry

     iteration #  6     ecut=    30.00 Ry     beta= 0.70
     Davidson diagonalization with overlap
     ethr =  7.06E-10,  avg # of iterations =  2.0

     total cpu time spent up to now is        1.7 secs

     End of self-consistent calculation

          k = 0.0000 0.0000 0.0000 (   229 PWs)   bands (ev):

    -9.1569  -9.1569  -9.1569  -8.8968  -8.8968   9.3640  46.9865  46.9865
    46.9865  48.5737  55.6337  55.6337  55.6337  57.6021

          k =-0.1667 0.1667-0.1667 (   226 PWs)   bands (ev):

    -9.4302  -9.3506  -9.3506  -8.7249  -8.7249  10.4707  38.9510  45.7480
    45.7480  48.5886  55.2047  56.5896  56.5896  57.6705

          k =-0.3333 0.3333-0.3333 (   223 PWs)   bands (ev):

    -9.1629  -9.1629  -9.1375  -8.8843  -8.8843  13.7541  29.1976  43.7150
    43.7150  48.5943  52.6668  54.1000  54.1000  62.1973

          k = 0.5000-0.5000 0.5000 (   228 PWs)   bands (ev):

    -9.5885  -9.3091  -9.3091  -9.0294  -9.0294  17.3420  23.3134  42.7978
    42.7978  48.3197  51.8872  53.2339  53.2339  65.5135

          k = 0.0000 0.3333 0.0000 (   218 PWs)   bands (ev):

    -9.2081  -9.0095  -9.0095  -8.6105  -8.3724  10.8390  42.2119  42.3522
    42.3522  46.8544  50.1804  59.7830  59.8514  59.8514

          k =-0.1667 0.5000-0.1667 (   221 PWs)   bands (ev):

    -9.3397  -9.1890  -9.0130  -8.8755  -8.5885  13.4054  32.8384  40.1889
    40.5092  46.6013  51.2612  58.7963  59.0503  59.7165

          k = 0.6667-0.3333 0.6667 (   223 PWs)   bands (ev):

    -9.3069  -9.1344  -8.9835  -8.9724  -8.7639  17.4955  25.2650  37.3519
    40.1951  46.2370  56.1826  56.7312  58.9610  59.7250

          k = 0.5000-0.1667 0.5000 (   221 PWs)   bands (ev):

    -9.2390  -9.1285  -8.9501  -8.7780  -8.7431  16.1143  27.4250  35.9726
    42.5843  47.5575  54.3792  55.5167  60.8822  60.9621

          k = 0.3333 0.0000 0.3333 (   218 PWs)   bands (ev):

    -9.1549  -9.0098  -8.8519  -8.7850  -8.5690  12.3107  35.3863  37.5808
    46.3301  50.6778  51.6432  54.9253  56.3919  58.2498

          k = 0.0000 0.6667 0.0000 (   218 PWs)   bands (ev):

    -9.5507  -9.3279  -8.6745  -8.6745  -8.3538  15.2325  32.7490  37.3407
    37.3407  44.6436  45.0222  65.3789  65.3789  65.3914

          k = 0.8333-0.1667 0.8333 (   224 PWs)   bands (ev):

    -9.5388  -9.1676  -9.0578  -8.9169  -8.9123  18.8221  27.8092  32.5397
    36.7953  44.4479  49.6355  62.1098  63.6892  68.9486

          k = 0.6667-0.0000 0.6667 (   220 PWs)   bands (ev):

    -9.0632  -9.0484  -8.9528  -8.8841  -8.8475  19.5349  28.4083  28.4424
    38.8397  45.4848  58.0022  59.7614  60.4403  63.3787

          k = 0.0000-1.0000 0.0000 (   222 PWs)   bands (ev):

    -9.8471  -9.2485  -9.0003  -9.0003  -8.3597  20.7833  24.9419  35.4777
    35.4777  43.4935  44.3305  64.6301  70.4577  71.2803

          k = 0.6667-0.3333 1.0000 (   223 PWs)   bands (ev):

    -9.4505  -9.2006  -9.1285  -8.8808  -8.6892  16.5271  30.3388  33.0452
    37.7686  49.8218  50.8449  55.6851  63.2262  65.1587

          k = 0.5000-0.1667 0.8333 (   220 PWs)   bands (ev):

    -9.2112  -9.1334  -8.8329  -8.8219  -8.6879  19.6128  26.4259  31.8526
    35.7606  49.8708  53.7977  58.8422  59.0947  64.8279

          k =-0.3333-1.0000 0.0000 (   216 PWs)   bands (ev):

    -8.9600  -8.9529  -8.8148  -8.7057  -8.6083  20.9661  26.7110  31.4048
    33.0377  49.7039  50.1012  58.9885  61.6913  68.9099

     the Fermi energy is    47.2415 ev

!    total energy              =    -281.11221367 Ry
     Harris-Foulkes estimate   =    -281.11221368 Ry
     estimated scf accuracy    <          7.6E-09 Ry

     The total energy is the sum of the following terms:

     one-electron contribution =      -1.35381839 Ry
     hartree contribution      =      26.53250237 Ry
     xc contribution           =     -63.95777252 Ry
     ewald contribution        =    -242.33311990 Ry
     smearing contrib. (-TS)   =      -0.00000523 Ry

     convergence has been achieved in   6 iterations

     Forces acting on atoms (cartesian axes, Ry/au):

     atom    1 type  1   force =     0.00000000    0.00000000    0.00000000

     Total force =     0.000000     Total SCF correction =     0.000000


     Computing stress (Cartesian axis) and pressure

          total   stress  (Ry/bohr**3)                   (kbar)     P=-5207.53
  -0.03540009   0.00000000  -0.00000000      -5207.53      0.00     -0.00
   0.00000000  -0.03540009   0.00000000          0.00  -5207.53      0.00
   0.00000000   0.00000000  -0.03540009          0.00      0.00  -5207.53


     Writing output data file Fr.save/

     init_run     :      0.12s CPU      0.14s WALL (       1 calls)
     electrons    :      0.67s CPU      0.73s WALL (       1 calls)
     forces       :      0.01s CPU      0.01s WALL (       1 calls)
     stress       :      0.03s CPU      0.03s WALL (       1 calls)

     Called by init_run:
     wfcinit      :      0.02s CPU      0.03s WALL (       1 calls)
     potinit      :      0.00s CPU      0.00s WALL (       1 calls)
     hinit0       :      0.10s CPU      0.10s WALL (       1 calls)

     Called by electrons:
     c_bands      :      0.57s CPU      0.60s WALL (       6 calls)
     sum_band     :      0.09s CPU      0.09s WALL (       6 calls)
     v_of_rho     :      0.01s CPU      0.01s WALL (       7 calls)
     newd         :      0.01s CPU      0.01s WALL (       7 calls)
     mix_rho      :      0.00s CPU      0.00s WALL (       6 calls)

     Called by c_bands:
     init_us_2    :      0.01s CPU      0.01s WALL (     240 calls)
     cegterg      :      0.55s CPU      0.59s WALL (      96 calls)

     Called by sum_band:
     sum_band:bec :      0.00s CPU      0.00s WALL (      96 calls)
     addusdens    :      0.01s CPU      0.01s WALL (       6 calls)

     Called by *egterg:
     h_psi        :      0.32s CPU      0.35s WALL (     370 calls)
     s_psi        :      0.01s CPU      0.01s WALL (     370 calls)
     g_psi        :      0.00s CPU      0.00s WALL (     258 calls)
     cdiaghg      :      0.17s CPU      0.18s WALL (     354 calls)

     Called by h_psi:
     h_psi:pot    :      0.32s CPU      0.35s WALL (     370 calls)
     h_psi:calbec :      0.01s CPU      0.02s WALL (     370 calls)
     vloc_psi     :      0.30s CPU      0.32s WALL (     370 calls)
     add_vuspsi   :      0.01s CPU      0.01s WALL (     370 calls)

     General routines
     calbec       :      0.02s CPU      0.02s WALL (     546 calls)
     fft          :      0.01s CPU      0.01s WALL (     103 calls)
     ffts         :      0.00s CPU      0.00s WALL (       6 calls)
     fftw         :      0.33s CPU      0.36s WALL (    8848 calls)

     Parallel routines
     fft_scatt_xy :      0.03s CPU      0.03s WALL (    8957 calls)
     fft_scatt_yz :      0.10s CPU      0.11s WALL (    8957 calls)

     PWSCF        :     1.73s CPU         1.84s WALL


   This run was terminated on:  22:28: 2   7Apr2024            

=------------------------------------------------------------------------------=
   JOB DONE.
=------------------------------------------------------------------------------=
