
     Program PWSCF v.6.3MaX starts on  7Apr2024 at 22:27:28 

     This program is part of the open-source Quantum ESPRESSO suite
     for quantum simulation of materials; please cite
         "P. Giannozzi et al., J. Phys.:Condens. Matter 21 395502 (2009);
         "P. Giannozzi et al., J. Phys.:Condens. Matter 29 465901 (2017);
          URL http://www.quantum-espresso.org", 
     in publications or presentations arising from this work. More details at
     http://www.quantum-espresso.org/quote

     Parallel version (MPI), running on     5 processors

     MPI processes distributed on     1 nodes
     R & G space division:  proc/nbgrp/npool/nimage =       5
     Waiting for input...
     Reading input from standard input

     Current dimensions of program PWSCF are:
     Max number of different atomic species (ntypx) = 10
     Max number of k-points (npk) =  40000
     Max angular momentum in pseudopotentials (lmaxx) =  3

     Subspace diagonalization in iterative solution of the eigenvalue problem:
     a serial algorithm will be used


     Parallelization info
     --------------------
     sticks:   dense  smooth     PW     G-vecs:    dense   smooth      PW
     Min          39      39     12                  361      361      67
     Max          40      40     13                  363      363      70
     Sum         199     199     61                 1807     1807     339



     bravais-lattice index     =            2
     lattice parameter (alat)  =       6.8300  a.u.
     unit-cell volume          =      79.6530 (a.u.)^3
     number of atoms/cell      =            1
     number of atomic types    =            1
     number of electrons       =        19.00
     number of Kohn-Sham states=           14
     kinetic-energy cutoff     =      30.0000  Ry
     charge density cutoff     =     120.0000  Ry
     convergence threshold     =      1.0E-08
     mixing beta               =       0.7000
     number of iterations used =            8  plain     mixing
     Exchange-correlation      = PBE ( 1  4  3  4 0 0)

     celldm(1)=   6.830000  celldm(2)=   0.000000  celldm(3)=   0.000000
     celldm(4)=   0.000000  celldm(5)=   0.000000  celldm(6)=   0.000000

     crystal axes: (cart. coord. in units of alat)
               a(1) = (  -0.500000   0.000000   0.500000 )  
               a(2) = (   0.000000   0.500000   0.500000 )  
               a(3) = (  -0.500000   0.500000   0.000000 )  

     reciprocal axes: (cart. coord. in units 2 pi/alat)
               b(1) = ( -1.000000 -1.000000  1.000000 )  
               b(2) = (  1.000000  1.000000  1.000000 )  
               b(3) = ( -1.000000  1.000000 -1.000000 )  


     PseudoPot. # 1 for Fr read from file:
     /home/lorenzo/pseudos/Fr/Fr.pbe-spdn-rrkjus_psl.1.0.0.UPF
     MD5 check sum: 07cabfa18982bd6b5b9d8ae5689d9732
     Pseudo is Ultrasoft + core correction, Zval = 19.0
     Generated using "atomic" code by A. Dal Corso v.6.2.2
     Using radial grid of 1287 points,  6 beta functions with: 
                l(1) =   0
                l(2) =   0
                l(3) =   1
                l(4) =   1
                l(5) =   2
                l(6) =   2
     Q(r) pseudized with 0 coefficients 


     atomic species   valence    mass     pseudopotential
        Fr            19.00   223.00000     Fr( 1.00)

     48 Sym. Ops., with inversion, found



   Cartesian axes

     site n.     atom                  positions (alat units)
         1           Fr  tau(   1) = (   0.0000000   0.0000000   0.0000000  )

     number of k points=     3  gaussian smearing, width (Ry)=  0.0100
                       cart. coord. in units 2pi/alat
        k(    1) = (   0.0000000   0.0000000   0.0000000), wk =   0.2500000
        k(    2) = (   0.5000000  -0.5000000   0.5000000), wk =   1.0000000
        k(    3) = (   0.0000000  -1.0000000   0.0000000), wk =   0.7500000

     Dense  grid:     1807 G-vectors     FFT dimensions: (  18,  18,  18)

     Estimated max dynamical RAM per process >       2.36 MB

     Estimated total dynamical RAM >      11.80 MB

     Check: negative/imaginary core charge=   -0.000066    0.000000

     Initial potential from superposition of free atoms

     starting charge   18.97009, renormalised to   19.00000
     Starting wfcs are   10 randomized atomic wfcs +    4 random wfcs

     total cpu time spent up to now is        1.0 secs

     Self-consistent Calculation

     iteration #  1     ecut=    30.00 Ry     beta= 0.70
     Davidson diagonalization with overlap
     ethr =  1.00E-02,  avg # of iterations =  5.0

     Threshold (ethr) on eigenvalues was too large:
     Diagonalizing with lowered threshold

     Davidson diagonalization with overlap
     ethr =  9.83E-04,  avg # of iterations =  1.0

     total cpu time spent up to now is        1.1 secs

     total energy              =    -280.81620235 Ry
     Harris-Foulkes estimate   =    -280.95485985 Ry
     estimated scf accuracy    <       0.18675737 Ry

     iteration #  2     ecut=    30.00 Ry     beta= 0.70
     Davidson diagonalization with overlap
     ethr =  9.83E-04,  avg # of iterations =  2.3

     total cpu time spent up to now is        1.1 secs

     total energy              =    -280.85907594 Ry
     Harris-Foulkes estimate   =    -280.86409833 Ry
     estimated scf accuracy    <       0.00897166 Ry

     iteration #  3     ecut=    30.00 Ry     beta= 0.70
     Davidson diagonalization with overlap
     ethr =  4.72E-05,  avg # of iterations =  2.3

     total cpu time spent up to now is        1.1 secs

     total energy              =    -280.86057115 Ry
     Harris-Foulkes estimate   =    -280.86063747 Ry
     estimated scf accuracy    <       0.00039759 Ry

     iteration #  4     ecut=    30.00 Ry     beta= 0.70
     Davidson diagonalization with overlap
     ethr =  2.09E-06,  avg # of iterations =  2.3

     total cpu time spent up to now is        1.1 secs

     total energy              =    -280.86059127 Ry
     Harris-Foulkes estimate   =    -280.86059011 Ry
     estimated scf accuracy    <       0.00000159 Ry

     iteration #  5     ecut=    30.00 Ry     beta= 0.70
     Davidson diagonalization with overlap
     ethr =  8.38E-09,  avg # of iterations =  2.7

     total cpu time spent up to now is        1.1 secs

     total energy              =    -280.86059195 Ry
     Harris-Foulkes estimate   =    -280.86059198 Ry
     estimated scf accuracy    <       0.00000010 Ry

     iteration #  6     ecut=    30.00 Ry     beta= 0.70
     Davidson diagonalization with overlap
     ethr =  5.15E-10,  avg # of iterations =  1.7

     total cpu time spent up to now is        1.2 secs

     total energy              =    -280.86059195 Ry
     Harris-Foulkes estimate   =    -280.86059195 Ry
     estimated scf accuracy    <       0.00000001 Ry

     iteration #  7     ecut=    30.00 Ry     beta= 0.70
     Davidson diagonalization with overlap
     ethr =  5.52E-11,  avg # of iterations =  1.3

     total cpu time spent up to now is        1.2 secs

     End of self-consistent calculation

          k = 0.0000 0.0000 0.0000 (   229 PWs)   bands (ev):

    -8.8980  -8.8980  -8.8980  -8.6447  -8.6447   9.4058  47.0487  47.0487
    47.0487  48.5714  55.6448  55.6448  55.6448  57.5981

          k = 0.5000-0.5000 0.5000 (   228 PWs)   bands (ev):

    -9.3286  -9.0572  -9.0572  -8.7627  -8.7627  17.4183  23.3210  42.8513
    42.8513  48.2872  51.9478  53.2374  53.2374  65.5370

          k = 0.0000-1.0000 0.0000 (   222 PWs)   bands (ev):

    -9.5911  -9.0039  -8.7292  -8.7292  -8.1057  20.8730  24.9602  35.5084
    35.5084  43.4841  44.3502  64.6198  70.4741  71.3128

     the Fermi energy is    47.0073 ev

!    total energy              =    -280.86059195 Ry
     Harris-Foulkes estimate   =    -280.86059195 Ry
     estimated scf accuracy    <          2.0E-11 Ry

     The total energy is the sum of the following terms:

     one-electron contribution =      -1.26051937 Ry
     hartree contribution      =      26.74780210 Ry
     xc contribution           =     -64.01282651 Ry
     ewald contribution        =    -242.33311990 Ry
     smearing contrib. (-TS)   =      -0.00192828 Ry

     convergence has been achieved in   7 iterations

     Forces acting on atoms (cartesian axes, Ry/au):

     atom    1 type  1   force =     0.00000000    0.00000000    0.00000000

     Total force =     0.000000     Total SCF correction =     0.000000


     Computing stress (Cartesian axis) and pressure

          total   stress  (Ry/bohr**3)                   (kbar)     P=-3936.72
  -0.02676128  -0.00000000   0.00000000      -3936.72     -0.00      0.00
  -0.00000000  -0.02676128  -0.00000000         -0.00  -3936.72     -0.00
   0.00000000  -0.00000000  -0.02676128          0.00     -0.00  -3936.72


     Writing output data file Fr.save/

     init_run     :      0.11s CPU      0.11s WALL (       1 calls)
     electrons    :      0.18s CPU      0.21s WALL (       1 calls)
     forces       :      0.01s CPU      0.01s WALL (       1 calls)
     stress       :      0.02s CPU      0.02s WALL (       1 calls)

     Called by init_run:
     wfcinit      :      0.01s CPU      0.01s WALL (       1 calls)
     potinit      :      0.00s CPU      0.00s WALL (       1 calls)
     hinit0       :      0.10s CPU      0.10s WALL (       1 calls)

     Called by electrons:
     c_bands      :      0.13s CPU      0.14s WALL (       8 calls)
     sum_band     :      0.03s CPU      0.04s WALL (       8 calls)
     v_of_rho     :      0.01s CPU      0.01s WALL (       8 calls)
     newd         :      0.01s CPU      0.01s WALL (       8 calls)
     mix_rho      :      0.00s CPU      0.00s WALL (       8 calls)

     Called by c_bands:
     init_us_2    :      0.00s CPU      0.00s WALL (      57 calls)
     cegterg      :      0.13s CPU      0.14s WALL (      24 calls)

     Called by sum_band:
     sum_band:bec :      0.00s CPU      0.00s WALL (      24 calls)
     addusdens    :      0.01s CPU      0.01s WALL (       8 calls)

     Called by *egterg:
     h_psi        :      0.08s CPU      0.08s WALL (      83 calls)
     s_psi        :      0.00s CPU      0.00s WALL (      83 calls)
     g_psi        :      0.00s CPU      0.00s WALL (      56 calls)
     cdiaghg      :      0.03s CPU      0.04s WALL (      77 calls)

     Called by h_psi:
     h_psi:pot    :      0.08s CPU      0.08s WALL (      83 calls)
     h_psi:calbec :      0.00s CPU      0.00s WALL (      83 calls)
     vloc_psi     :      0.07s CPU      0.08s WALL (      83 calls)
     add_vuspsi   :      0.00s CPU      0.00s WALL (      83 calls)

     General routines
     calbec       :      0.00s CPU      0.01s WALL (     122 calls)
     fft          :      0.01s CPU      0.01s WALL (     115 calls)
     ffts         :      0.00s CPU      0.00s WALL (       8 calls)
     fftw         :      0.08s CPU      0.08s WALL (    2082 calls)

     Parallel routines
     fft_scatt_xy :      0.01s CPU      0.01s WALL (    2205 calls)
     fft_scatt_yz :      0.03s CPU      0.03s WALL (    2205 calls)

     PWSCF        :     1.20s CPU         1.26s WALL


   This run was terminated on:  22:27:29   7Apr2024            

=------------------------------------------------------------------------------=
   JOB DONE.
=------------------------------------------------------------------------------=
