
     Program PWSCF v.6.3MaX starts on  7Apr2024 at 22:30:34 

     This program is part of the open-source Quantum ESPRESSO suite
     for quantum simulation of materials; please cite
         "P. Giannozzi et al., J. Phys.:Condens. Matter 21 395502 (2009);
         "P. Giannozzi et al., J. Phys.:Condens. Matter 29 465901 (2017);
          URL http://www.quantum-espresso.org", 
     in publications or presentations arising from this work. More details at
     http://www.quantum-espresso.org/quote

     Parallel version (MPI), running on     5 processors

     MPI processes distributed on     1 nodes
     R & G space division:  proc/nbgrp/npool/nimage =       5
     Waiting for input...
     Reading input from standard input

     Current dimensions of program PWSCF are:
     Max number of different atomic species (ntypx) = 10
     Max number of k-points (npk) =  40000
     Max angular momentum in pseudopotentials (lmaxx) =  3
               file Fr.pbe-spdn-kjpaw_psl.1.0.0.UPF: wavefunction(s)  6P renormalized

     Subspace diagonalization in iterative solution of the eigenvalue problem:
     a serial algorithm will be used


     Parallelization info
     --------------------
     sticks:   dense  smooth     PW     G-vecs:    dense   smooth      PW
     Min          43      43     17                  445      445     106
     Max          45      45     17                  446      446     107
     Sum         223     223     85                 2229     2229     531



     bravais-lattice index     =            2
     lattice parameter (alat)  =       6.8300  a.u.
     unit-cell volume          =      79.6530 (a.u.)^3
     number of atoms/cell      =            1
     number of atomic types    =            1
     number of electrons       =        19.00
     number of Kohn-Sham states=           14
     kinetic-energy cutoff     =      35.0000  Ry
     charge density cutoff     =     140.0000  Ry
     convergence threshold     =      1.0E-08
     mixing beta               =       0.7000
     number of iterations used =            8  plain     mixing
     Exchange-correlation      = SLA PW PBX PBC ( 1  4  3  4 0 0)

     celldm(1)=   6.830000  celldm(2)=   0.000000  celldm(3)=   0.000000
     celldm(4)=   0.000000  celldm(5)=   0.000000  celldm(6)=   0.000000

     crystal axes: (cart. coord. in units of alat)
               a(1) = (  -0.500000   0.000000   0.500000 )  
               a(2) = (   0.000000   0.500000   0.500000 )  
               a(3) = (  -0.500000   0.500000   0.000000 )  

     reciprocal axes: (cart. coord. in units 2 pi/alat)
               b(1) = ( -1.000000 -1.000000  1.000000 )  
               b(2) = (  1.000000  1.000000  1.000000 )  
               b(3) = ( -1.000000  1.000000 -1.000000 )  


     PseudoPot. # 1 for Fr read from file:
     /home/lorenzo/pseudos/Fr/Fr.pbe-spdn-kjpaw_psl.1.0.0.UPF
     MD5 check sum: 362a188b966a64328b94f1ef5f32e8c4
     Pseudo is Projector augmented-wave + core cor, Zval = 19.0
     Generated using "atomic" code by A. Dal Corso v.6.2.2
     Shape of augmentation charge: PSQ
     Using radial grid of 1287 points,  6 beta functions with: 
                l(1) =   0
                l(2) =   0
                l(3) =   1
                l(4) =   1
                l(5) =   2
                l(6) =   2
     Q(r) pseudized with 0 coefficients 


     atomic species   valence    mass     pseudopotential
        Fr            19.00   223.00000     Fr( 1.00)

     48 Sym. Ops., with inversion, found



   Cartesian axes

     site n.     atom                  positions (alat units)
         1           Fr  tau(   1) = (   0.0000000   0.0000000   0.0000000  )

     number of k points=    29  gaussian smearing, width (Ry)=  0.0100
                       cart. coord. in units 2pi/alat
        k(    1) = (   0.0000000   0.0000000   0.0000000), wk =   0.0039062
        k(    2) = (  -0.1250000   0.1250000  -0.1250000), wk =   0.0312500
        k(    3) = (  -0.2500000   0.2500000  -0.2500000), wk =   0.0312500
        k(    4) = (  -0.3750000   0.3750000  -0.3750000), wk =   0.0312500
        k(    5) = (   0.5000000  -0.5000000   0.5000000), wk =   0.0156250
        k(    6) = (   0.0000000   0.2500000   0.0000000), wk =   0.0234375
        k(    7) = (  -0.1250000   0.3750000  -0.1250000), wk =   0.0937500
        k(    8) = (  -0.2500000   0.5000000  -0.2500000), wk =   0.0937500
        k(    9) = (   0.6250000  -0.3750000   0.6250000), wk =   0.0937500
        k(   10) = (   0.5000000  -0.2500000   0.5000000), wk =   0.0937500
        k(   11) = (   0.3750000  -0.1250000   0.3750000), wk =   0.0937500
        k(   12) = (   0.2500000   0.0000000   0.2500000), wk =   0.0468750
        k(   13) = (   0.0000000   0.5000000   0.0000000), wk =   0.0234375
        k(   14) = (  -0.1250000   0.6250000  -0.1250000), wk =   0.0937500
        k(   15) = (   0.7500000  -0.2500000   0.7500000), wk =   0.0937500
        k(   16) = (   0.6250000  -0.1250000   0.6250000), wk =   0.0937500
        k(   17) = (   0.5000000   0.0000000   0.5000000), wk =   0.0468750
        k(   18) = (   0.0000000   0.7500000   0.0000000), wk =   0.0234375
        k(   19) = (   0.8750000  -0.1250000   0.8750000), wk =   0.0937500
        k(   20) = (   0.7500000   0.0000000   0.7500000), wk =   0.0468750
        k(   21) = (   0.0000000  -1.0000000   0.0000000), wk =   0.0117188
        k(   22) = (  -0.2500000   0.5000000   0.0000000), wk =   0.0937500
        k(   23) = (   0.6250000  -0.3750000   0.8750000), wk =   0.1875000
        k(   24) = (   0.5000000  -0.2500000   0.7500000), wk =   0.0937500
        k(   25) = (   0.7500000  -0.2500000   1.0000000), wk =   0.0937500
        k(   26) = (   0.6250000  -0.1250000   0.8750000), wk =   0.1875000
        k(   27) = (   0.5000000   0.0000000   0.7500000), wk =   0.0937500
        k(   28) = (  -0.2500000  -1.0000000   0.0000000), wk =   0.0468750
        k(   29) = (  -0.5000000  -1.0000000   0.0000000), wk =   0.0234375

     Dense  grid:     2229 G-vectors     FFT dimensions: (  20,  20,  20)

     Estimated max dynamical RAM per process >       3.06 MB

     Estimated total dynamical RAM >      15.30 MB

     Check: negative/imaginary core charge=   -0.000020    0.000000

     Initial potential from superposition of free atoms

     starting charge   18.97009, renormalised to   19.00000
     Starting wfcs are   10 randomized atomic wfcs +    4 random wfcs
     Checking if some PAW data can be deallocated... 

     total cpu time spent up to now is        1.3 secs

     Self-consistent Calculation

     iteration #  1     ecut=    35.00 Ry     beta= 0.70
     Davidson diagonalization with overlap
     ethr =  1.00E-02,  avg # of iterations =  4.9

     Threshold (ethr) on eigenvalues was too large:
     Diagonalizing with lowered threshold

     Davidson diagonalization with overlap
     ethr =  3.68E-04,  avg # of iterations =  1.1

     total cpu time spent up to now is        2.0 secs

     total energy              =   -1069.31544022 Ry
     Harris-Foulkes estimate   =   -1069.36886738 Ry
     estimated scf accuracy    <       0.07054580 Ry

     iteration #  2     ecut=    35.00 Ry     beta= 0.70
     Davidson diagonalization with overlap
     ethr =  3.71E-04,  avg # of iterations =  2.0

     total cpu time spent up to now is        2.4 secs

     total energy              =   -1069.33457104 Ry
     Harris-Foulkes estimate   =   -1069.33571982 Ry
     estimated scf accuracy    <       0.00329040 Ry

     iteration #  3     ecut=    35.00 Ry     beta= 0.70
     Davidson diagonalization with overlap
     ethr =  1.73E-05,  avg # of iterations =  2.2

     total cpu time spent up to now is        2.7 secs

     total energy              =   -1069.33514274 Ry
     Harris-Foulkes estimate   =   -1069.33506205 Ry
     estimated scf accuracy    <       0.00009162 Ry

     iteration #  4     ecut=    35.00 Ry     beta= 0.70
     Davidson diagonalization with overlap
     ethr =  4.82E-07,  avg # of iterations =  2.2

     total cpu time spent up to now is        3.0 secs

     total energy              =   -1069.33515203 Ry
     Harris-Foulkes estimate   =   -1069.33515179 Ry
     estimated scf accuracy    <       0.00000057 Ry

     iteration #  5     ecut=    35.00 Ry     beta= 0.70
     Davidson diagonalization with overlap
     ethr =  2.98E-09,  avg # of iterations =  2.2

     total cpu time spent up to now is        3.3 secs

     total energy              =   -1069.33515219 Ry
     Harris-Foulkes estimate   =   -1069.33515221 Ry
     estimated scf accuracy    <       0.00000003 Ry

     iteration #  6     ecut=    35.00 Ry     beta= 0.70
     Davidson diagonalization with overlap
     ethr =  1.70E-10,  avg # of iterations =  2.0

     total cpu time spent up to now is        3.6 secs

     End of self-consistent calculation

          k = 0.0000 0.0000 0.0000 (   283 PWs)   bands (ev):

    -9.5797  -9.5797  -9.5797  -9.4116  -9.4116   9.3990  47.1373  47.1373
    47.1373  48.3980  54.6907  54.6907  54.6907  57.7255

          k =-0.1250 0.1250-0.1250 (   280 PWs)   bands (ev):

    -9.6815  -9.5042  -9.5042  -9.2308  -9.2308  10.0235  41.5343  46.3189
    46.3189  48.3179  55.8514  56.0854  56.0854  57.1194

          k =-0.2500 0.2500-0.2500 (   289 PWs)   bands (ev):

    -9.7592  -9.6339  -9.6339  -9.2921  -9.2921  11.8968  33.8183  44.7294
    44.7294  48.3844  53.5089  54.5333  54.5333  59.1629

          k =-0.3750 0.3750-0.3750 (   281 PWs)   bands (ev):

    -9.6374  -9.6374  -9.4892  -9.0381  -9.0381  14.9065  27.0867  43.4122
    43.4122  48.3014  52.0422  52.9368  52.9368  63.1019

          k = 0.5000-0.5000 0.5000 (   272 PWs)   bands (ev):

    -9.5821  -9.5821  -9.5483  -8.7102  -8.7102  17.4412  23.2718  42.9020
    42.9020  48.1643  51.6028  52.4707  52.4707  65.4830

          k = 0.0000 0.2500 0.0000 (   287 PWs)   bands (ev):

    -9.6478  -9.6017  -9.6017  -9.4377  -9.3477  10.2314  43.8438  43.8438
    44.1979  46.9855  52.1751  57.4373  58.1230  58.1230

          k =-0.1250 0.3750-0.1250 (   289 PWs)   bands (ev):

    -9.8089  -9.6012  -9.5664  -9.4070  -9.2339  11.6894  36.6244  41.8895
    43.3642  47.7534  50.3343  57.0521  58.5179  58.7344

          k =-0.2500 0.5000-0.2500 (   275 PWs)   bands (ev):

    -9.6621  -9.5147  -9.4015  -8.8988  -8.8541  14.3456  29.6082  40.9258
    41.1527  46.6230  54.2467  56.2558  56.3788  57.5953

          k = 0.6250-0.3750 0.6250 (   275 PWs)   bands (ev):

    -9.6171  -9.4960  -9.4795  -8.8632  -8.7659  17.4843  24.4274  39.1781
    41.1613  46.4491  54.3608  54.7004  56.9094  61.1712

          k = 0.5000-0.2500 0.5000 (   276 PWs)   bands (ev):

    -9.6230  -9.4826  -9.4559  -8.9714  -8.8019  16.5271  25.8169  38.1852
    42.7156  47.3129  53.1839  53.8629  58.3171  62.2527

          k = 0.3750-0.1250 0.3750 (   283 PWs)   bands (ev):

    -9.7203  -9.5679  -9.4374  -9.2979  -8.9843  13.3362  31.8539  38.3717
    45.3083  49.2019  52.0316  53.7219  57.7377  59.1087

          k = 0.2500 0.0000 0.2500 (   285 PWs)   bands (ev):

    -9.8278  -9.5244  -9.4499  -9.3126  -9.3102  11.0653  38.6288  40.2060
    47.5130  49.9995  52.4392  54.3671  55.2039  57.1803

          k = 0.0000 0.5000 0.0000 (   290 PWs)   bands (ev):

    -9.9923  -9.5194  -9.4303  -9.4303  -9.1302  12.7300  37.9348  39.4984
    39.4984  45.0541  46.1569  62.1864  62.1864  63.1638

          k =-0.1250 0.6250-0.1250 (   280 PWs)   bands (ev):

    -9.8971  -9.5258  -9.2202  -8.9620  -8.9261  14.9830  32.3368  36.8589
    38.2337  44.7522  48.1549  61.0348  61.5820  63.9874

          k = 0.7500-0.2500 0.7500 (   279 PWs)   bands (ev):

    -9.8583  -9.5123  -9.2872  -9.0270  -8.7037  18.0458  27.0889  33.8922
    38.3267  44.6435  53.7560  58.9837  59.4504  64.2102

          k = 0.6250-0.1250 0.6250 (   274 PWs)   bands (ev):

    -9.7573  -9.2535  -9.1733  -9.0684  -8.8454  18.7977  26.2202  32.0487
    39.8565  45.4100  57.6885  57.7415  59.9117  62.9625

          k = 0.5000 0.0000 0.5000 (   273 PWs)   bands (ev):

    -9.6313  -9.4173  -9.1432  -9.1368  -8.7806  15.8909  30.4071  32.3237
    42.5478  47.0350  55.3200  57.0997  57.9038  59.5386

          k = 0.0000 0.7500 0.0000 (   278 PWs)   bands (ev):

   -10.0151  -9.6167  -8.9443  -8.8093  -8.8093  16.8154  30.3398  36.5506
    36.5506  43.6843  43.9601  64.7749  66.9895  66.9895

          k = 0.8750-0.1250 0.8750 (   276 PWs)   bands (ev):

    -9.9875  -9.6824  -8.9490  -8.7509  -8.6619  19.5039  27.0867  33.0692
    36.2513  43.6180  47.0559  62.9663  65.6850  69.5099

          k = 0.7500 0.0000 0.7500 (   276 PWs)   bands (ev):

    -9.8958  -9.4523  -9.0199  -8.9251  -8.8784  20.6934  26.8919  29.2131
    37.4274  44.1354  53.2471  60.8892  63.0032  65.1271

          k = 0.0000-1.0000 0.0000 (   286 PWs)   bands (ev):

   -10.3028  -9.8952  -9.0320  -8.6818  -8.6818  20.9192  24.9086  35.5039
    35.5039  42.9493  43.4315  64.4734  70.3880  71.2988

          k =-0.2500 0.5000 0.0000 (   285 PWs)   bands (ev):

    -9.8186  -9.6343  -9.3334  -9.3314  -8.9857  13.5472  34.0598  36.2539
    41.9013  49.1129  49.2096  55.8028  59.4796  62.2213

          k = 0.6250-0.3750 0.8750 (   277 PWs)   bands (ev):

    -9.6684  -9.5923  -9.2169  -9.0026  -8.8663  16.4591  28.5075  34.8171
    39.2482  48.4166  52.6995  55.6807  60.1625  62.7471

          k = 0.5000-0.2500 0.7500 (   278 PWs)   bands (ev):

    -9.6994  -9.5148  -9.2631  -9.1029  -8.7954  18.7797  25.0665  34.7524
    38.0279  48.1399  52.7140  60.1895  60.8058  61.5107

          k = 0.7500-0.2500 1.0000 (   275 PWs)   bands (ev):

    -9.8246  -9.4430  -9.1771  -8.8291  -8.7605  17.4993  29.7651  33.6034
    35.5995  47.5993  47.7953  58.5286  66.0372  66.2914

          k = 0.6250-0.1250 0.8750 (   273 PWs)   bands (ev):

    -9.7069  -9.4714  -9.1501  -8.8993  -8.6839  20.1140  27.1724  30.7289
    34.8937  48.0043  53.5353  56.5589  61.6416  65.9039

          k = 0.5000 0.0000 0.7500 (   276 PWs)   bands (ev):

    -9.6662  -9.4073  -9.2360  -9.0136  -8.9157  19.2030  28.4952  29.6395
    36.4714  49.0328  54.4580  56.6967  60.2447  63.6220

          k =-0.2500-1.0000 0.0000 (   276 PWs)   bands (ev):

    -9.9217  -9.6801  -8.9412  -8.9075  -8.6095  21.0660  25.9068  32.6526
    33.5465  47.0609  47.2720  60.9649  64.5543  68.5073

          k =-0.5000-1.0000 0.0000 (   280 PWs)   bands (ev):

    -9.6016  -9.4786  -9.4786  -9.0317  -8.8413  21.2209  28.6895  28.6895
    32.2162  53.4408  53.8590  53.8590  56.8476  70.2270

     the Fermi energy is    47.3664 ev

!    total energy              =   -1069.33515220 Ry
     Harris-Foulkes estimate   =   -1069.33515220 Ry
     estimated scf accuracy    <          6.9E-11 Ry

     total all-electron energy =    -48514.945463 Ry

     The total energy is the sum of the following terms:

     one-electron contribution =       2.37790090 Ry
     hartree contribution      =      27.46142149 Ry
     xc contribution           =     -64.31374642 Ry
     ewald contribution        =    -242.33311995 Ry
     one-center paw contrib.   =    -792.52723963 Ry
     smearing contrib. (-TS)   =      -0.00036859 Ry

     convergence has been achieved in   6 iterations

     Forces acting on atoms (cartesian axes, Ry/au):

     atom    1 type  1   force =     0.00000000    0.00000000    0.00000000

     Total force =     0.000000     Total SCF correction =     0.000000


     Computing stress (Cartesian axis) and pressure

          total   stress  (Ry/bohr**3)                   (kbar)     P= 1193.90
   0.00811596   0.00000000   0.00000000       1193.90      0.00      0.00
   0.00000000   0.00811596  -0.00000000          0.00   1193.90     -0.00
   0.00000000  -0.00000000   0.00811596          0.00     -0.00   1193.90


     Writing output data file Fr.save/

     init_run     :      0.32s CPU      0.35s WALL (       1 calls)
     electrons    :      2.05s CPU      2.29s WALL (       1 calls)
     forces       :      0.02s CPU      0.02s WALL (       1 calls)
     stress       :      0.05s CPU      0.05s WALL (       1 calls)

     Called by init_run:
     wfcinit      :      0.07s CPU      0.07s WALL (       1 calls)
     potinit      :      0.13s CPU      0.14s WALL (       1 calls)
     hinit0       :      0.11s CPU      0.11s WALL (       1 calls)

     Called by electrons:
     c_bands      :      1.26s CPU      1.36s WALL (       7 calls)
     sum_band     :      0.17s CPU      0.19s WALL (       7 calls)
     v_of_rho     :      0.01s CPU      0.01s WALL (       7 calls)
     newd         :      0.02s CPU      0.02s WALL (       7 calls)
     PAW_pot      :      0.72s CPU      0.83s WALL (       7 calls)
     mix_rho      :      0.00s CPU      0.00s WALL (       7 calls)

     Called by c_bands:
     init_us_2    :      0.02s CPU      0.02s WALL (     493 calls)
     cegterg      :      1.22s CPU      1.32s WALL (     203 calls)

     Called by sum_band:
     sum_band:bec :      0.00s CPU      0.00s WALL (     203 calls)
     addusdens    :      0.02s CPU      0.02s WALL (       7 calls)

     Called by *egterg:
     h_psi        :      0.80s CPU      0.88s WALL (     713 calls)
     s_psi        :      0.02s CPU      0.02s WALL (     713 calls)
     g_psi        :      0.00s CPU      0.00s WALL (     481 calls)
     cdiaghg      :      0.29s CPU      0.31s WALL (     655 calls)

     Called by h_psi:
     h_psi:pot    :      0.80s CPU      0.87s WALL (     713 calls)
     h_psi:calbec :      0.04s CPU      0.04s WALL (     713 calls)
     vloc_psi     :      0.74s CPU      0.81s WALL (     713 calls)
     add_vuspsi   :      0.02s CPU      0.02s WALL (     713 calls)

     General routines
     calbec       :      0.05s CPU      0.06s WALL (    1061 calls)
     fft          :      0.01s CPU      0.01s WALL (     104 calls)
     ffts         :      0.00s CPU      0.00s WALL (       7 calls)
     fftw         :      0.80s CPU      0.88s WALL (   17636 calls)

     Parallel routines
     fft_scatt_xy :      0.07s CPU      0.07s WALL (   17747 calls)
     fft_scatt_yz :      0.31s CPU      0.34s WALL (   17747 calls)

     PWSCF        :     3.48s CPU         3.82s WALL


   This run was terminated on:  22:30:38   7Apr2024            

=------------------------------------------------------------------------------=
   JOB DONE.
=------------------------------------------------------------------------------=
