
     Program PWSCF v.6.3MaX starts on  7Apr2024 at 22:30:49 

     This program is part of the open-source Quantum ESPRESSO suite
     for quantum simulation of materials; please cite
         "P. Giannozzi et al., J. Phys.:Condens. Matter 21 395502 (2009);
         "P. Giannozzi et al., J. Phys.:Condens. Matter 29 465901 (2017);
          URL http://www.quantum-espresso.org", 
     in publications or presentations arising from this work. More details at
     http://www.quantum-espresso.org/quote

     Parallel version (MPI), running on     5 processors

     MPI processes distributed on     1 nodes
     R & G space division:  proc/nbgrp/npool/nimage =       5
     Waiting for input...
     Reading input from standard input

     Current dimensions of program PWSCF are:
     Max number of different atomic species (ntypx) = 10
     Max number of k-points (npk) =  40000
     Max angular momentum in pseudopotentials (lmaxx) =  3
               file Fr.pbe-spdn-kjpaw_psl.1.0.0.UPF: wavefunction(s)  6P renormalized

     Subspace diagonalization in iterative solution of the eigenvalue problem:
     a serial algorithm will be used


     Parallelization info
     --------------------
     sticks:   dense  smooth     PW     G-vecs:    dense   smooth      PW
     Min          43      43     17                  445      445     106
     Max          45      45     17                  446      446     107
     Sum         223     223     85                 2229     2229     531



     bravais-lattice index     =            2
     lattice parameter (alat)  =       6.8300  a.u.
     unit-cell volume          =      79.6530 (a.u.)^3
     number of atoms/cell      =            1
     number of atomic types    =            1
     number of electrons       =        19.00
     number of Kohn-Sham states=           14
     kinetic-energy cutoff     =      35.0000  Ry
     charge density cutoff     =     140.0000  Ry
     convergence threshold     =      1.0E-08
     mixing beta               =       0.7000
     number of iterations used =            8  plain     mixing
     Exchange-correlation      = SLA PW PBX PBC ( 1  4  3  4 0 0)

     celldm(1)=   6.830000  celldm(2)=   0.000000  celldm(3)=   0.000000
     celldm(4)=   0.000000  celldm(5)=   0.000000  celldm(6)=   0.000000

     crystal axes: (cart. coord. in units of alat)
               a(1) = (  -0.500000   0.000000   0.500000 )  
               a(2) = (   0.000000   0.500000   0.500000 )  
               a(3) = (  -0.500000   0.500000   0.000000 )  

     reciprocal axes: (cart. coord. in units 2 pi/alat)
               b(1) = ( -1.000000 -1.000000  1.000000 )  
               b(2) = (  1.000000  1.000000  1.000000 )  
               b(3) = ( -1.000000  1.000000 -1.000000 )  


     PseudoPot. # 1 for Fr read from file:
     /home/lorenzo/pseudos/Fr/Fr.pbe-spdn-kjpaw_psl.1.0.0.UPF
     MD5 check sum: 362a188b966a64328b94f1ef5f32e8c4
     Pseudo is Projector augmented-wave + core cor, Zval = 19.0
     Generated using "atomic" code by A. Dal Corso v.6.2.2
     Shape of augmentation charge: PSQ
     Using radial grid of 1287 points,  6 beta functions with: 
                l(1) =   0
                l(2) =   0
                l(3) =   1
                l(4) =   1
                l(5) =   2
                l(6) =   2
     Q(r) pseudized with 0 coefficients 


     atomic species   valence    mass     pseudopotential
        Fr            19.00   223.00000     Fr( 1.00)

     48 Sym. Ops., with inversion, found



   Cartesian axes

     site n.     atom                  positions (alat units)
         1           Fr  tau(   1) = (   0.0000000   0.0000000   0.0000000  )

     number of k points=    35  gaussian smearing, width (Ry)=  0.0100
                       cart. coord. in units 2pi/alat
        k(    1) = (   0.0000000   0.0000000   0.0000000), wk =   0.0027435
        k(    2) = (  -0.1111111   0.1111111  -0.1111111), wk =   0.0219479
        k(    3) = (  -0.2222222   0.2222222  -0.2222222), wk =   0.0219479
        k(    4) = (  -0.3333333   0.3333333  -0.3333333), wk =   0.0219479
        k(    5) = (  -0.4444444   0.4444444  -0.4444444), wk =   0.0219479
        k(    6) = (   0.0000000   0.2222222   0.0000000), wk =   0.0164609
        k(    7) = (  -0.1111111   0.3333333  -0.1111111), wk =   0.0658436
        k(    8) = (  -0.2222222   0.4444444  -0.2222222), wk =   0.0658436
        k(    9) = (  -0.3333333   0.5555556  -0.3333333), wk =   0.0658436
        k(   10) = (   0.5555556  -0.3333333   0.5555556), wk =   0.0658436
        k(   11) = (   0.4444444  -0.2222222   0.4444444), wk =   0.0658436
        k(   12) = (   0.3333333  -0.1111111   0.3333333), wk =   0.0658436
        k(   13) = (   0.2222222  -0.0000000   0.2222222), wk =   0.0329218
        k(   14) = (   0.0000000   0.4444444   0.0000000), wk =   0.0164609
        k(   15) = (  -0.1111111   0.5555556  -0.1111111), wk =   0.0658436
        k(   16) = (  -0.2222222   0.6666667  -0.2222222), wk =   0.0658436
        k(   17) = (   0.6666667  -0.2222222   0.6666667), wk =   0.0658436
        k(   18) = (   0.5555556  -0.1111111   0.5555556), wk =   0.0658436
        k(   19) = (   0.4444444   0.0000000   0.4444444), wk =   0.0329218
        k(   20) = (   0.0000000   0.6666667   0.0000000), wk =   0.0164609
        k(   21) = (  -0.1111111   0.7777778  -0.1111111), wk =   0.0658436
        k(   22) = (   0.7777778  -0.1111111   0.7777778), wk =   0.0658436
        k(   23) = (   0.6666667  -0.0000000   0.6666667), wk =   0.0329218
        k(   24) = (   0.0000000   0.8888889   0.0000000), wk =   0.0164609
        k(   25) = (   0.8888889   0.0000000   0.8888889), wk =   0.0329218
        k(   26) = (  -0.2222222   0.4444444   0.0000000), wk =   0.0658436
        k(   27) = (  -0.3333333   0.5555556  -0.1111111), wk =   0.1316872
        k(   28) = (   0.5555556  -0.3333333   0.7777778), wk =   0.1316872
        k(   29) = (  -0.2222222   0.6666667   0.0000000), wk =   0.0658436
        k(   30) = (   0.6666667  -0.2222222   0.8888889), wk =   0.1316872
        k(   31) = (   0.5555556  -0.1111111   0.7777778), wk =   0.1316872
        k(   32) = (   0.4444444   0.0000000   0.6666667), wk =   0.0658436
        k(   33) = (   0.7777778  -0.1111111   1.0000000), wk =   0.0658436
        k(   34) = (   0.6666667  -0.0000000   0.8888889), wk =   0.0658436
        k(   35) = (   0.5555556  -0.1111111   1.0000000), wk =   0.0658436

     Dense  grid:     2229 G-vectors     FFT dimensions: (  20,  20,  20)

     Estimated max dynamical RAM per process >       3.13 MB

     Estimated total dynamical RAM >      15.66 MB

     Check: negative/imaginary core charge=   -0.000020    0.000000

     Initial potential from superposition of free atoms

     starting charge   18.97009, renormalised to   19.00000
     Starting wfcs are   10 randomized atomic wfcs +    4 random wfcs
     Checking if some PAW data can be deallocated... 

     total cpu time spent up to now is        1.5 secs

     Self-consistent Calculation

     iteration #  1     ecut=    35.00 Ry     beta= 0.70
     Davidson diagonalization with overlap
     ethr =  1.00E-02,  avg # of iterations =  4.9

     Threshold (ethr) on eigenvalues was too large:
     Diagonalizing with lowered threshold

     Davidson diagonalization with overlap
     ethr =  3.50E-04,  avg # of iterations =  1.0

     total cpu time spent up to now is        2.3 secs

     total energy              =   -1069.32126094 Ry
     Harris-Foulkes estimate   =   -1069.37221228 Ry
     estimated scf accuracy    <       0.06717714 Ry

     iteration #  2     ecut=    35.00 Ry     beta= 0.70
     Davidson diagonalization with overlap
     ethr =  3.54E-04,  avg # of iterations =  2.0

     total cpu time spent up to now is        2.7 secs

     total energy              =   -1069.33959478 Ry
     Harris-Foulkes estimate   =   -1069.34055460 Ry
     estimated scf accuracy    <       0.00296567 Ry

     iteration #  3     ecut=    35.00 Ry     beta= 0.70
     Davidson diagonalization with overlap
     ethr =  1.56E-05,  avg # of iterations =  2.5

     total cpu time spent up to now is        3.1 secs

     total energy              =   -1069.34007574 Ry
     Harris-Foulkes estimate   =   -1069.33999712 Ry
     estimated scf accuracy    <       0.00009114 Ry

     iteration #  4     ecut=    35.00 Ry     beta= 0.70
     Davidson diagonalization with overlap
     ethr =  4.80E-07,  avg # of iterations =  2.1

     total cpu time spent up to now is        3.5 secs

     total energy              =   -1069.34008376 Ry
     Harris-Foulkes estimate   =   -1069.34008347 Ry
     estimated scf accuracy    <       0.00000030 Ry

     iteration #  5     ecut=    35.00 Ry     beta= 0.70
     Davidson diagonalization with overlap
     ethr =  1.56E-09,  avg # of iterations =  2.3

     total cpu time spent up to now is        3.9 secs

     total energy              =   -1069.34008387 Ry
     Harris-Foulkes estimate   =   -1069.34008390 Ry
     estimated scf accuracy    <       0.00000003 Ry

     iteration #  6     ecut=    35.00 Ry     beta= 0.70
     Davidson diagonalization with overlap
     ethr =  1.72E-10,  avg # of iterations =  2.0

     total cpu time spent up to now is        4.3 secs

     End of self-consistent calculation

          k = 0.0000 0.0000 0.0000 (   283 PWs)   bands (ev):

    -9.5371  -9.5371  -9.5371  -9.3691  -9.3691   9.4059  47.1443  47.1443
    47.1443  48.4000  54.6948  54.6948  54.6948  57.7176

          k =-0.1111 0.1111-0.1111 (   280 PWs)   bands (ev):

    -9.6414  -9.4692  -9.4692  -9.1921  -9.1921   9.8993  42.4015  46.4788
    46.4788  48.3097  55.8240  55.8240  56.0113  57.4269

          k =-0.2222 0.2222-0.2222 (   283 PWs)   bands (ev):

    -9.7127  -9.4974  -9.4974  -9.1407  -9.1407  11.3815  35.4860  45.1008
    45.1008  48.3807  54.0130  55.0809  55.0809  58.4097

          k =-0.3333 0.3333-0.3333 (   287 PWs)   bands (ev):

    -9.6294  -9.5921  -9.5921  -9.1468  -9.1468  13.8092  29.1674  43.7913
    43.7913  48.3433  52.3596  53.3374  53.3374  61.7856

          k =-0.4444 0.4444-0.4444 (   269 PWs)   bands (ev):

    -9.5302  -9.5302  -9.4240  -8.6115  -8.6115  16.7326  24.2515  43.0157
    43.0157  48.1909  51.7241  52.5732  52.5732  64.9259

          k = 0.0000 0.2222 0.0000 (   283 PWs)   bands (ev):

    -9.5916  -9.5055  -9.5055  -9.3177  -9.2227  10.0636  44.3719  44.3719
    44.7332  47.2144  53.0990  56.9357  57.6355  57.6355

          k =-0.1111 0.3333-0.1111 (   289 PWs)   bands (ev):

    -9.7644  -9.5622  -9.5532  -9.3735  -9.2138  11.2164  37.9803  42.5618
    44.1526  48.1896  50.6212  56.6120  58.4790  58.6444

          k =-0.2222 0.4444-0.2222 (   283 PWs)   bands (ev):

    -9.6415  -9.5032  -9.5002  -9.1007  -9.0447  13.3391  31.4966  41.4480
    42.3855  47.2138  53.1960  56.1515  56.5416  57.2889

          k =-0.3333 0.5556-0.3333 (   271 PWs)   bands (ev):

    -9.5666  -9.4062  -9.3990  -8.7544  -8.6570  16.2026  26.0491  40.5314
    41.2210  46.6356  54.4868  54.9311  55.6792  59.7511

          k = 0.5556-0.3333 0.5556 (   274 PWs)   bands (ev):

    -9.6111  -9.4658  -9.4221  -8.7840  -8.6667  17.7227  23.8791  39.2573
    41.9919  46.9161  53.3879  53.8599  56.7061  63.8856

          k = 0.4444-0.2222 0.4444 (   279 PWs)   bands (ev):

    -9.6407  -9.5188  -9.4492  -9.0030  -8.7948  15.2018  27.7176  38.8570
    43.7404  48.0166  52.4849  53.4420  58.1532  60.7441

          k = 0.3333-0.1111 0.3333 (   287 PWs)   bands (ev):

    -9.7476  -9.5681  -9.4114  -9.3258  -9.1251  12.5266  33.5865  39.3713
    46.0911  49.7960  51.6690  53.6276  57.0000  58.4687

          k = 0.2222-0.0000 0.2222 (   285 PWs)   bands (ev):

    -9.7877  -9.4984  -9.4306  -9.2853  -9.2537  10.7227  39.7677  41.1906
    47.6256  49.6045  53.1656  54.7276  55.0957  57.0492

          k = 0.0000 0.4444 0.0000 (   290 PWs)   bands (ev):

    -9.9239  -9.4561  -9.4561  -9.4434  -9.1149  12.0393  39.5527  40.3778
    40.3778  45.4189  47.1209  61.2822  61.2822  61.7051

          k =-0.1111 0.5556-0.1111 (   288 PWs)   bands (ev):

    -9.8881  -9.5314  -9.4056  -9.1259  -9.0724  13.8365  34.0273  38.6202
    39.0164  45.2498  48.0232  60.6727  60.8927  62.5050

          k =-0.2222 0.6667-0.2222 (   281 PWs)   bands (ev):

    -9.8002  -9.4970  -9.3718  -8.9578  -8.7773  16.4612  28.6240  36.0457
    38.6801  44.9074  52.6690  58.7433  59.1270  62.3041

          k = 0.6667-0.2222 0.6667 (   275 PWs)   bands (ev):

    -9.7514  -9.3258  -9.2159  -8.9617  -8.6706  18.7976  25.2239  34.0784
    39.4645  45.2223  57.3430  57.4018  58.2302  63.0725

          k = 0.5556-0.1111 0.5556 (   275 PWs)   bands (ev):

    -9.6617  -9.3198  -9.1789  -8.9983  -8.8271  17.3387  27.3827  33.0985
    41.3171  46.2553  55.9948  56.6284  60.8534  61.0701

          k = 0.4444 0.0000 0.4444 (   277 PWs)   bands (ev):

    -9.5494  -9.5197  -9.2085  -9.2045  -8.7560  14.6064  31.8397  33.8992
    43.9240  48.0060  53.9008  56.4030  56.5128  58.8534

          k = 0.0000 0.6667 0.0000 (   274 PWs)   bands (ev):

    -9.9438  -9.2846  -8.9430  -8.8057  -8.8057  15.3056  32.8600  37.3513
    37.3513  44.2550  44.3219  64.9839  65.2529  65.2529

          k =-0.1111 0.7778-0.1111 (   276 PWs)   bands (ev):

    -9.9323  -9.5631  -8.9422  -8.7287  -8.6855  17.6216  29.3475  34.3084
    36.7065  43.8606  46.7323  62.7620  64.5075  68.9578

          k = 0.7778-0.1111 0.7778 (   278 PWs)   bands (ev):

    -9.8549  -9.5172  -9.0032  -8.9054  -8.7729  20.0307  26.8676  30.7186
    37.2246  44.0520  51.8672  60.9961  62.5754  67.2748

          k = 0.6667-0.0000 0.6667 (   284 PWs)   bands (ev):

    -9.8527  -9.2644  -9.2068  -9.1954  -9.0705  19.6735  28.3354  28.3588
    38.8461  44.8144  57.7009  59.3823  60.2048  63.0700

          k = 0.0000 0.8889 0.0000 (   286 PWs)   bands (ev):

   -10.1452  -9.7779  -9.1247  -8.6982  -8.6982  19.5450  26.5683  35.7176
    35.7176  43.0911  43.5791  64.5323  69.9446  69.9446

          k = 0.8889 0.0000 0.8889 (   280 PWs)   bands (ev):

   -10.0447  -9.6614  -8.8831  -8.7718  -8.7181  20.9881  25.3122  33.1273
    35.8981  43.4170  46.2973  63.4533  67.8526  69.2627

          k =-0.2222 0.4444 0.0000 (   285 PWs)   bands (ev):

    -9.7432  -9.5362  -9.3510  -9.3191  -9.0251  12.6923  35.5238  37.5373
    43.3462  48.9603  49.2321  56.0596  58.5136  61.0491

          k =-0.3333 0.5556-0.1111 (   280 PWs)   bands (ev):

    -9.6665  -9.5568  -9.3518  -9.0732  -8.8069  15.0810  30.1905  36.0075
    40.8883  48.2972  52.4055  55.1397  58.9049  62.1517

          k = 0.5556-0.3333 0.7778 (   276 PWs)   bands (ev):

    -9.6462  -9.4690  -9.2081  -8.9700  -8.7384  17.8608  25.5940  35.8224
    39.1366  47.8460  52.6764  59.0811  59.3793  60.7045

          k =-0.2222 0.6667 0.0000 (   277 PWs)   bands (ev):

    -9.7979  -9.4349  -9.1227  -8.9371  -8.7553  15.9037  31.5762  34.7971
    37.2403  47.3689  47.5127  58.4150  64.2754  66.3720

          k = 0.6667-0.2222 0.8889 (   277 PWs)   bands (ev):

    -9.7063  -9.4946  -9.1325  -8.9324  -8.7335  18.5506  27.9532  32.5768
    35.8555  47.4144  52.2507  56.5089  63.8437  65.1307

          k = 0.5556-0.1111 0.7778 (   274 PWs)   bands (ev):

    -9.6535  -9.2957  -9.1686  -9.0140  -8.7265  19.7382  26.6029  31.0527
    36.4417  48.0413  54.8646  58.1585  59.6121  63.3579

          k = 0.4444 0.0000 0.6667 (   273 PWs)   bands (ev):

    -9.5706  -9.4219  -9.0202  -8.9431  -8.8647  17.5553  29.3304  31.1667
    38.3442  49.1730  53.3211  55.7453  61.6534  63.1506

          k = 0.7778-0.1111 1.0000 (   276 PWs)   bands (ev):

    -9.8954  -9.6087  -8.9313  -8.8100  -8.6022  19.8964  26.9928  33.3077
    34.1599  46.4572  46.7389  61.0557  65.8622  68.9762

          k = 0.6667-0.0000 0.8889 (   278 PWs)   bands (ev):

    -9.8169  -9.5266  -9.0655  -9.0319  -8.6150  21.0046  26.8568  29.9838
    34.5665  47.0670  51.9716  58.7740  61.6428  66.7626

          k = 0.5556-0.1111 1.0000 (   274 PWs)   bands (ev):

    -9.5373  -9.5044  -9.2464  -8.9140  -8.6222  20.6178  28.0922  29.6977
    33.1816  51.9854  52.4317  55.1751  59.0163  68.4038

     the Fermi energy is    47.2248 ev

!    total energy              =   -1069.34008388 Ry
     Harris-Foulkes estimate   =   -1069.34008388 Ry
     estimated scf accuracy    <          7.4E-10 Ry

     total all-electron energy =    -48514.950395 Ry

     The total energy is the sum of the following terms:

     one-electron contribution =       2.34909683 Ry
     hartree contribution      =      27.49772336 Ry
     xc contribution           =     -64.32165077 Ry
     ewald contribution        =    -242.33311995 Ry
     one-center paw contrib.   =    -792.53169502 Ry
     smearing contrib. (-TS)   =      -0.00043833 Ry

     convergence has been achieved in   6 iterations

     Forces acting on atoms (cartesian axes, Ry/au):

     atom    1 type  1   force =     0.00000000    0.00000000    0.00000000

     Total force =     0.000000     Total SCF correction =     0.000000


     Computing stress (Cartesian axis) and pressure

          total   stress  (Ry/bohr**3)                   (kbar)     P= 1298.57
   0.00882752  -0.00000000   0.00000000       1298.57     -0.00      0.00
   0.00000000   0.00882752  -0.00000000          0.00   1298.57     -0.00
  -0.00000000  -0.00000000   0.00882752         -0.00     -0.00   1298.57


     Writing output data file Fr.save/

     init_run     :      0.34s CPU      0.37s WALL (       1 calls)
     electrons    :      2.58s CPU      2.82s WALL (       1 calls)
     forces       :      0.03s CPU      0.03s WALL (       1 calls)
     stress       :      0.05s CPU      0.05s WALL (       1 calls)

     Called by init_run:
     wfcinit      :      0.08s CPU      0.09s WALL (       1 calls)
     potinit      :      0.13s CPU      0.15s WALL (       1 calls)
     hinit0       :      0.11s CPU      0.11s WALL (       1 calls)

     Called by electrons:
     c_bands      :      1.65s CPU      1.77s WALL (       7 calls)
     sum_band     :      0.24s CPU      0.27s WALL (       7 calls)
     v_of_rho     :      0.01s CPU      0.02s WALL (       7 calls)
     newd         :      0.02s CPU      0.02s WALL (       7 calls)
     PAW_pot      :      0.77s CPU      0.88s WALL (       7 calls)
     mix_rho      :      0.00s CPU      0.00s WALL (       7 calls)

     Called by c_bands:
     init_us_2    :      0.03s CPU      0.03s WALL (     595 calls)
     cegterg      :      1.60s CPU      1.72s WALL (     245 calls)

     Called by sum_band:
     sum_band:bec :      0.00s CPU      0.00s WALL (     245 calls)
     addusdens    :      0.02s CPU      0.02s WALL (       7 calls)

     Called by *egterg:
     h_psi        :      1.07s CPU      1.15s WALL (     871 calls)
     s_psi        :      0.03s CPU      0.03s WALL (     871 calls)
     g_psi        :      0.00s CPU      0.00s WALL (     591 calls)
     cdiaghg      :      0.38s CPU      0.40s WALL (     801 calls)

     Called by h_psi:
     h_psi:pot    :      1.06s CPU      1.15s WALL (     871 calls)
     h_psi:calbec :      0.05s CPU      0.05s WALL (     871 calls)
     vloc_psi     :      0.98s CPU      1.06s WALL (     871 calls)
     add_vuspsi   :      0.03s CPU      0.03s WALL (     871 calls)

     General routines
     calbec       :      0.07s CPU      0.08s WALL (    1291 calls)
     fft          :      0.02s CPU      0.02s WALL (     104 calls)
     ffts         :      0.00s CPU      0.00s WALL (       7 calls)
     fftw         :      1.08s CPU      1.17s WALL (   21422 calls)

     Parallel routines
     fft_scatt_xy :      0.09s CPU      0.10s WALL (   21533 calls)
     fft_scatt_yz :      0.39s CPU      0.42s WALL (   21533 calls)

     PWSCF        :     4.11s CPU         4.46s WALL


   This run was terminated on:  22:30:53   7Apr2024            

=------------------------------------------------------------------------------=
   JOB DONE.
=------------------------------------------------------------------------------=
