
     Program PWSCF v.6.3MaX starts on  7Apr2024 at 22:22:17 

     This program is part of the open-source Quantum ESPRESSO suite
     for quantum simulation of materials; please cite
         "P. Giannozzi et al., J. Phys.:Condens. Matter 21 395502 (2009);
         "P. Giannozzi et al., J. Phys.:Condens. Matter 29 465901 (2017);
          URL http://www.quantum-espresso.org", 
     in publications or presentations arising from this work. More details at
     http://www.quantum-espresso.org/quote

     Parallel version (MPI), running on     5 processors

     MPI processes distributed on     1 nodes
     R & G space division:  proc/nbgrp/npool/nimage =       5
     Waiting for input...
     Reading input from standard input

     Current dimensions of program PWSCF are:
     Max number of different atomic species (ntypx) = 10
     Max number of k-points (npk) =  40000
     Max angular momentum in pseudopotentials (lmaxx) =  3

     Subspace diagonalization in iterative solution of the eigenvalue problem:
     a serial algorithm will be used


     Parallelization info
     --------------------
     sticks:   dense  smooth     PW     G-vecs:    dense   smooth      PW
     Min          18      18      7                  121      121      33
     Max          19      19      8                  123      123      35
     Sum          91      91     37                  609      609     169



     bravais-lattice index     =            2
     lattice parameter (alat)  =       6.8300  a.u.
     unit-cell volume          =      79.6530 (a.u.)^3
     number of atoms/cell      =            1
     number of atomic types    =            1
     number of electrons       =        19.00
     number of Kohn-Sham states=           14
     kinetic-energy cutoff     =      15.0000  Ry
     charge density cutoff     =      60.0000  Ry
     convergence threshold     =      1.0E-08
     mixing beta               =       0.7000
     number of iterations used =            8  plain     mixing
     Exchange-correlation      = PBE ( 1  4  3  4 0 0)

     celldm(1)=   6.830000  celldm(2)=   0.000000  celldm(3)=   0.000000
     celldm(4)=   0.000000  celldm(5)=   0.000000  celldm(6)=   0.000000

     crystal axes: (cart. coord. in units of alat)
               a(1) = (  -0.500000   0.000000   0.500000 )  
               a(2) = (   0.000000   0.500000   0.500000 )  
               a(3) = (  -0.500000   0.500000   0.000000 )  

     reciprocal axes: (cart. coord. in units 2 pi/alat)
               b(1) = ( -1.000000 -1.000000  1.000000 )  
               b(2) = (  1.000000  1.000000  1.000000 )  
               b(3) = ( -1.000000  1.000000 -1.000000 )  


     PseudoPot. # 1 for Fr read from file:
     /home/lorenzo/pseudos/Fr/Fr.pbe-spdn-rrkjus_psl.1.0.0.UPF
     MD5 check sum: 07cabfa18982bd6b5b9d8ae5689d9732
     Pseudo is Ultrasoft + core correction, Zval = 19.0
     Generated using "atomic" code by A. Dal Corso v.6.2.2
     Using radial grid of 1287 points,  6 beta functions with: 
                l(1) =   0
                l(2) =   0
                l(3) =   1
                l(4) =   1
                l(5) =   2
                l(6) =   2
     Q(r) pseudized with 0 coefficients 


     atomic species   valence    mass     pseudopotential
        Fr            19.00   223.00000     Fr( 1.00)

     48 Sym. Ops., with inversion, found



   Cartesian axes

     site n.     atom                  positions (alat units)
         1           Fr  tau(   1) = (   0.0000000   0.0000000   0.0000000  )

     number of k points=    20  gaussian smearing, width (Ry)=  0.0100
                       cart. coord. in units 2pi/alat
        k(    1) = (   0.0000000   0.0000000   0.0000000), wk =   0.0058309
        k(    2) = (  -0.1428571   0.1428571  -0.1428571), wk =   0.0466472
        k(    3) = (  -0.2857143   0.2857143  -0.2857143), wk =   0.0466472
        k(    4) = (  -0.4285714   0.4285714  -0.4285714), wk =   0.0466472
        k(    5) = (   0.0000000   0.2857143   0.0000000), wk =   0.0349854
        k(    6) = (  -0.1428571   0.4285714  -0.1428571), wk =   0.1399417
        k(    7) = (  -0.2857143   0.5714286  -0.2857143), wk =   0.1399417
        k(    8) = (   0.5714286  -0.2857143   0.5714286), wk =   0.1399417
        k(    9) = (   0.4285714  -0.1428571   0.4285714), wk =   0.1399417
        k(   10) = (   0.2857143  -0.0000000   0.2857143), wk =   0.0699708
        k(   11) = (   0.0000000   0.5714286   0.0000000), wk =   0.0349854
        k(   12) = (  -0.1428571   0.7142857  -0.1428571), wk =   0.1399417
        k(   13) = (   0.7142857  -0.1428571   0.7142857), wk =   0.1399417
        k(   14) = (   0.5714286   0.0000000   0.5714286), wk =   0.0699708
        k(   15) = (   0.0000000   0.8571429   0.0000000), wk =   0.0349854
        k(   16) = (   0.8571429  -0.0000000   0.8571429), wk =   0.0699708
        k(   17) = (  -0.2857143   0.5714286   0.0000000), wk =   0.1399417
        k(   18) = (   0.5714286  -0.2857143   0.8571429), wk =   0.2798834
        k(   19) = (   0.7142857  -0.1428571   1.0000000), wk =   0.1399417
        k(   20) = (   0.5714286   0.0000000   0.8571429), wk =   0.1399417

     Dense  grid:      609 G-vectors     FFT dimensions: (  12,  12,  12)

     Estimated max dynamical RAM per process >       1.21 MB

     Estimated total dynamical RAM >       6.04 MB

     Check: negative/imaginary core charge=   -0.000429    0.000000

     Initial potential from superposition of free atoms

     starting charge   18.97009, renormalised to   19.00000
     Starting wfcs are   10 randomized atomic wfcs +    4 random wfcs

     total cpu time spent up to now is        1.1 secs

     Self-consistent Calculation

     iteration #  1     ecut=    15.00 Ry     beta= 0.70
     Davidson diagonalization with overlap
     ethr =  1.00E-02,  avg # of iterations =  4.2

     total cpu time spent up to now is        1.2 secs

     total energy              =    -261.39551440 Ry
     Harris-Foulkes estimate   =    -266.43587523 Ry
     estimated scf accuracy    <       6.55498550 Ry

     iteration #  2     ecut=    15.00 Ry     beta= 0.70
     Davidson diagonalization with overlap
     ethr =  1.00E-02,  avg # of iterations =  2.8

     total cpu time spent up to now is        1.4 secs

     total energy              =    -262.60249405 Ry
     Harris-Foulkes estimate   =    -262.89985504 Ry
     estimated scf accuracy    <       0.59294380 Ry

     iteration #  3     ecut=    15.00 Ry     beta= 0.70
     Davidson diagonalization with overlap
     ethr =  3.12E-03,  avg # of iterations =  2.0

     total cpu time spent up to now is        1.4 secs

     total energy              =    -262.68270220 Ry
     Harris-Foulkes estimate   =    -262.70826901 Ry
     estimated scf accuracy    <       0.04236087 Ry

     iteration #  4     ecut=    15.00 Ry     beta= 0.70
     Davidson diagonalization with overlap
     ethr =  2.23E-04,  avg # of iterations =  2.0

     total cpu time spent up to now is        1.5 secs

     total energy              =    -262.68820258 Ry
     Harris-Foulkes estimate   =    -262.68886897 Ry
     estimated scf accuracy    <       0.00116849 Ry

     iteration #  5     ecut=    15.00 Ry     beta= 0.70
     Davidson diagonalization with overlap
     ethr =  6.15E-06,  avg # of iterations =  2.5

     total cpu time spent up to now is        1.6 secs

     total energy              =    -262.68841612 Ry
     Harris-Foulkes estimate   =    -262.68841608 Ry
     estimated scf accuracy    <       0.00000296 Ry

     iteration #  6     ecut=    15.00 Ry     beta= 0.70
     Davidson diagonalization with overlap
     ethr =  1.56E-08,  avg # of iterations =  2.0

     total cpu time spent up to now is        1.7 secs

     total energy              =    -262.68841640 Ry
     Harris-Foulkes estimate   =    -262.68841646 Ry
     estimated scf accuracy    <       0.00000025 Ry

     iteration #  7     ecut=    15.00 Ry     beta= 0.70
     Davidson diagonalization with overlap
     ethr =  1.34E-09,  avg # of iterations =  2.0

     total cpu time spent up to now is        1.7 secs

     End of self-consistent calculation

          k = 0.0000 0.0000 0.0000 (    65 PWs)   bands (ev):

     6.4332   6.4332   7.3931   9.6225   9.6225   9.6225  43.5821  43.5821
    43.5821  50.9720  55.1239  60.2621  60.2621  60.2621

          k =-0.1429 0.1429-0.1429 (    71 PWs)   bands (ev):

     4.7845   4.7845   5.8757   7.9313   7.9313   8.2775  38.8318  43.0874
    43.0874  51.6537  56.9677  58.4384  60.3208  60.3208

          k =-0.2857 0.2857-0.2857 (    74 PWs)   bands (ev):

     1.7285   1.7285   4.3438   7.7844   7.7844  10.7823  31.0645  41.6267
    41.6267  51.8593  55.5501  61.8038  61.9455  61.9455

          k =-0.4286 0.4286-0.4286 (    77 PWs)   bands (ev):

     0.4086   0.4086   1.0277   7.3140   7.3140  13.9482  24.6560  40.3528
    40.3528  50.8798  54.7551  64.1983  64.1983  66.6328

          k = 0.0000 0.2857 0.0000 (    72 PWs)   bands (ev):

     4.4182   4.5310   4.5310   7.9917   8.1683   8.6844  39.5926  41.5006
    41.5006  52.0816  55.4353  60.4002  61.4442  61.4442

          k =-0.1429 0.4286-0.1429 (    77 PWs)   bands (ev):

    -0.1321   2.4308   3.8617   4.0124   7.9610  10.2774  33.3696  39.6682
    40.3936  52.5772  54.8220  60.6575  62.5733  63.9271

          k =-0.2857 0.5714-0.2857 (    79 PWs)   bands (ev):

     0.2761   1.3795   2.2511   4.2928   5.7919  13.1959  26.9118  38.2568
    38.8150  51.2614  58.1269  60.0488  63.7050  65.7643

          k = 0.5714-0.2857 0.5714 (    79 PWs)   bands (ev):

     0.4760   1.0266   2.5902   3.4815   6.3906  14.8625  24.5541  36.6755
    39.4709  51.0969  58.3138  63.7091  63.7636  66.1391

          k = 0.4286-0.1429 0.4286 (    79 PWs)   bands (ev):

    -0.0076   1.7276   2.7073   3.8485   5.6146  12.2663  28.9461  36.8076
    41.4481  52.0761  56.4765  60.8849  62.6494  64.2437

          k = 0.2857-0.0000 0.2857 (    71 PWs)   bands (ev):

     3.2650   4.4504   6.9159   7.4197   9.4102   9.6242  35.1445  39.3106
    43.2370  53.4961  54.6465  59.5589  61.3331  63.0580

          k = 0.0000 0.5714 0.0000 (    76 PWs)   bands (ev):

     2.0243   2.0243   3.8908   4.4109   7.6990  11.4545  32.7064  37.3803
    37.3803  51.0774  54.7051  65.3012  65.3012  67.4554

          k =-0.1429 0.7143-0.1429 (    80 PWs)   bands (ev):

    -0.3858   0.0794   2.8338   2.8906   6.4050  13.7935  28.5077  34.8985
    36.2633  50.8201  56.6417  64.0576  65.4661  69.6160

          k = 0.7143-0.1429 0.7143 (    78 PWs)   bands (ev):

     2.0555   2.0940   3.1078   4.1694   6.7716  15.7342  26.6475  31.7523
    36.9723  51.8466  59.8008  63.7437  64.2179  66.7841

          k = 0.5714 0.0000 0.5714 (    79 PWs)   bands (ev):

     1.1147   2.0208   3.0290   3.1474   6.5019  14.4709  28.3987  31.1988
    39.2260  52.0243  60.0215  60.8531  63.6206  65.6507

          k = 0.0000 0.8571 0.0000 (    80 PWs)   bands (ev):

    -1.6769   1.5556   1.5556   3.4571   7.6298  15.4884  26.2009  34.6361
    34.6361  49.8205  57.2302  66.4447  70.1716  70.1716

          k = 0.8571-0.0000 0.8571 (    77 PWs)   bands (ev):

     0.4743   2.9871   4.8108   5.6721   6.9199  16.6097  25.6160  32.6337
    34.9257  51.6488  57.5612  65.5414  68.1897  68.7538

          k =-0.2857 0.5714 0.0000 (    78 PWs)   bands (ev):

     1.1049   2.0286   3.5215   4.6317   5.6966  12.2970  30.3056  35.2466
    39.2635  52.4986  56.1486  60.4357  65.4341  66.5843

          k = 0.5714-0.2857 0.8571 (    79 PWs)   bands (ev):

     0.8753   1.9278   3.5816   4.0732   5.6356  14.8065  26.8584  33.2677
    37.4997  52.3683  59.6860  60.3021  64.6705  66.6455

          k = 0.7143-0.1429 1.0000 (    82 PWs)   bands (ev):

    -0.7275  -0.4173   1.0265   3.7650   5.0457  15.6689  26.9597  32.5820
    34.5330  52.0855  57.4039  62.1514  65.2771  70.6020

          k = 0.5714 0.0000 0.8571 (    80 PWs)   bands (ev):

     0.3735   1.7384   2.9729   3.3357   6.1148  16.0478  28.4705  29.4179
    35.0624  53.5257  59.5548  60.9888  62.1404  68.3630

     the Fermi energy is    52.0486 ev

!    total energy              =    -262.68841644 Ry
     Harris-Foulkes estimate   =    -262.68841644 Ry
     estimated scf accuracy    <          2.7E-09 Ry

     The total energy is the sum of the following terms:

     one-electron contribution =      23.54958301 Ry
     hartree contribution      =      17.31589357 Ry
     xc contribution           =     -61.21966748 Ry
     ewald contribution        =    -242.33312978 Ry
     smearing contrib. (-TS)   =      -0.00109576 Ry

     convergence has been achieved in   7 iterations

     Forces acting on atoms (cartesian axes, Ry/au):

     atom    1 type  1   force =     0.00000000    0.00000000    0.00000000

     Total force =     0.000000     Total SCF correction =     0.000000


     Computing stress (Cartesian axis) and pressure

          total   stress  (Ry/bohr**3)                   (kbar)     P=********
  -0.29538810   0.00000000   0.00000000     -43453.08      0.00      0.00
   0.00000000  -0.29538810  -0.00000000          0.00 -43453.08     -0.00
   0.00000000  -0.00000000  -0.29538810          0.00     -0.00 -43453.08


     Writing output data file Fr.save/

     init_run     :      0.08s CPU      0.09s WALL (       1 calls)
     electrons    :      0.59s CPU      0.67s WALL (       1 calls)
     forces       :      0.01s CPU      0.01s WALL (       1 calls)
     stress       :      0.02s CPU      0.02s WALL (       1 calls)

     Called by init_run:
     wfcinit      :      0.02s CPU      0.02s WALL (       1 calls)
     potinit      :      0.00s CPU      0.00s WALL (       1 calls)
     hinit0       :      0.06s CPU      0.07s WALL (       1 calls)

     Called by electrons:
     c_bands      :      0.52s CPU      0.58s WALL (       7 calls)
     sum_band     :      0.06s CPU      0.07s WALL (       7 calls)
     v_of_rho     :      0.00s CPU      0.00s WALL (       8 calls)
     newd         :      0.01s CPU      0.01s WALL (       8 calls)
     mix_rho      :      0.00s CPU      0.00s WALL (       7 calls)

     Called by c_bands:
     init_us_2    :      0.01s CPU      0.01s WALL (     340 calls)
     cegterg      :      0.51s CPU      0.57s WALL (     140 calls)

     Called by sum_band:
     sum_band:bec :      0.00s CPU      0.00s WALL (     140 calls)
     addusdens    :      0.00s CPU      0.00s WALL (       7 calls)

     Called by *egterg:
     h_psi        :      0.24s CPU      0.28s WALL (     512 calls)
     s_psi        :      0.01s CPU      0.01s WALL (     512 calls)
     g_psi        :      0.00s CPU      0.00s WALL (     352 calls)
     cdiaghg      :      0.21s CPU      0.23s WALL (     492 calls)

     Called by h_psi:
     h_psi:pot    :      0.24s CPU      0.28s WALL (     512 calls)
     h_psi:calbec :      0.01s CPU      0.02s WALL (     512 calls)
     vloc_psi     :      0.22s CPU      0.25s WALL (     512 calls)
     add_vuspsi   :      0.01s CPU      0.01s WALL (     512 calls)

     General routines
     calbec       :      0.02s CPU      0.02s WALL (     752 calls)
     fft          :      0.00s CPU      0.00s WALL (     114 calls)
     ffts         :      0.00s CPU      0.00s WALL (       7 calls)
     fftw         :      0.24s CPU      0.27s WALL (   12720 calls)

     Parallel routines
     fft_scatt_xy :      0.03s CPU      0.03s WALL (   12841 calls)
     fft_scatt_yz :      0.12s CPU      0.13s WALL (   12841 calls)

     PWSCF        :     1.72s CPU         1.85s WALL


   This run was terminated on:  22:22:18   7Apr2024            

=------------------------------------------------------------------------------=
   JOB DONE.
=------------------------------------------------------------------------------=
