
     Program PWSCF v.6.3MaX starts on  7Apr2024 at 22:52:52 

     This program is part of the open-source Quantum ESPRESSO suite
     for quantum simulation of materials; please cite
         "P. Giannozzi et al., J. Phys.:Condens. Matter 21 395502 (2009);
         "P. Giannozzi et al., J. Phys.:Condens. Matter 29 465901 (2017);
          URL http://www.quantum-espresso.org", 
     in publications or presentations arising from this work. More details at
     http://www.quantum-espresso.org/quote

     Parallel version (MPI), running on     5 processors

     MPI processes distributed on     1 nodes
     R & G space division:  proc/nbgrp/npool/nimage =       5
     Waiting for input...
     Reading input from standard input

     Current dimensions of program PWSCF are:
     Max number of different atomic species (ntypx) = 10
     Max number of k-points (npk) =  40000
     Max angular momentum in pseudopotentials (lmaxx) =  3

     Subspace diagonalization in iterative solution of the eigenvalue problem:
     a serial algorithm will be used


     Parallelization info
     --------------------
     sticks:   dense  smooth     PW     G-vecs:    dense   smooth      PW
     Min         102     102     32                 1545     1545     280
     Max         103     103     33                 1546     1546     283
     Sum         511     511    163                 7727     7727    1411



     bravais-lattice index     =            2
     lattice parameter (alat)  =       6.8300  a.u.
     unit-cell volume          =      79.6530 (a.u.)^3
     number of atoms/cell      =            1
     number of atomic types    =            1
     number of electrons       =        19.00
     number of Kohn-Sham states=           14
     kinetic-energy cutoff     =      80.0000  Ry
     charge density cutoff     =     320.0000  Ry
     convergence threshold     =      1.0E-08
     mixing beta               =       0.7000
     number of iterations used =            8  plain     mixing
     Exchange-correlation      = LDA ( 1  1  0  0 0 0)

     celldm(1)=   6.830000  celldm(2)=   0.000000  celldm(3)=   0.000000
     celldm(4)=   0.000000  celldm(5)=   0.000000  celldm(6)=   0.000000

     crystal axes: (cart. coord. in units of alat)
               a(1) = (  -0.500000   0.000000   0.500000 )  
               a(2) = (   0.000000   0.500000   0.500000 )  
               a(3) = (  -0.500000   0.500000   0.000000 )  

     reciprocal axes: (cart. coord. in units 2 pi/alat)
               b(1) = ( -1.000000 -1.000000  1.000000 )  
               b(2) = (  1.000000  1.000000  1.000000 )  
               b(3) = ( -1.000000  1.000000 -1.000000 )  


     PseudoPot. # 1 for Fr read from file:
     /home/lorenzo/pseudos/Fr/Fr.pz-spdn-rrkjus_psl.1.0.0.UPF
     MD5 check sum: 5665a43a3d1ea02b0b7dc7a0ae9ace04
     Pseudo is Ultrasoft + core correction, Zval = 19.0
     Generated using "atomic" code by A. Dal Corso v.6.2.2
     Using radial grid of 1287 points,  6 beta functions with: 
                l(1) =   0
                l(2) =   0
                l(3) =   1
                l(4) =   1
                l(5) =   2
                l(6) =   2
     Q(r) pseudized with 0 coefficients 


     atomic species   valence    mass     pseudopotential
        Fr            19.00   223.00000     Fr( 1.00)

     48 Sym. Ops., with inversion, found



   Cartesian axes

     site n.     atom                  positions (alat units)
         1           Fr  tau(   1) = (   0.0000000   0.0000000   0.0000000  )

     number of k points=    47  gaussian smearing, width (Ry)=  0.0100
                       cart. coord. in units 2pi/alat
        k(    1) = (   0.0000000   0.0000000   0.0000000), wk =   0.0020000
        k(    2) = (  -0.1000000   0.1000000  -0.1000000), wk =   0.0160000
        k(    3) = (  -0.2000000   0.2000000  -0.2000000), wk =   0.0160000
        k(    4) = (  -0.3000000   0.3000000  -0.3000000), wk =   0.0160000
        k(    5) = (  -0.4000000   0.4000000  -0.4000000), wk =   0.0160000
        k(    6) = (   0.5000000  -0.5000000   0.5000000), wk =   0.0080000
        k(    7) = (   0.0000000   0.2000000   0.0000000), wk =   0.0120000
        k(    8) = (  -0.1000000   0.3000000  -0.1000000), wk =   0.0480000
        k(    9) = (  -0.2000000   0.4000000  -0.2000000), wk =   0.0480000
        k(   10) = (  -0.3000000   0.5000000  -0.3000000), wk =   0.0480000
        k(   11) = (   0.6000000  -0.4000000   0.6000000), wk =   0.0480000
        k(   12) = (   0.5000000  -0.3000000   0.5000000), wk =   0.0480000
        k(   13) = (   0.4000000  -0.2000000   0.4000000), wk =   0.0480000
        k(   14) = (   0.3000000  -0.1000000   0.3000000), wk =   0.0480000
        k(   15) = (   0.2000000   0.0000000   0.2000000), wk =   0.0240000
        k(   16) = (   0.0000000   0.4000000   0.0000000), wk =   0.0120000
        k(   17) = (  -0.1000000   0.5000000  -0.1000000), wk =   0.0480000
        k(   18) = (  -0.2000000   0.6000000  -0.2000000), wk =   0.0480000
        k(   19) = (   0.7000000  -0.3000000   0.7000000), wk =   0.0480000
        k(   20) = (   0.6000000  -0.2000000   0.6000000), wk =   0.0480000
        k(   21) = (   0.5000000  -0.1000000   0.5000000), wk =   0.0480000
        k(   22) = (   0.4000000   0.0000000   0.4000000), wk =   0.0240000
        k(   23) = (   0.0000000   0.6000000   0.0000000), wk =   0.0120000
        k(   24) = (  -0.1000000   0.7000000  -0.1000000), wk =   0.0480000
        k(   25) = (   0.8000000  -0.2000000   0.8000000), wk =   0.0480000
        k(   26) = (   0.7000000  -0.1000000   0.7000000), wk =   0.0480000
        k(   27) = (   0.6000000  -0.0000000   0.6000000), wk =   0.0240000
        k(   28) = (   0.0000000   0.8000000   0.0000000), wk =   0.0120000
        k(   29) = (   0.9000000  -0.1000000   0.9000000), wk =   0.0480000
        k(   30) = (   0.8000000   0.0000000   0.8000000), wk =   0.0240000
        k(   31) = (   0.0000000  -1.0000000   0.0000000), wk =   0.0060000
        k(   32) = (  -0.2000000   0.4000000   0.0000000), wk =   0.0480000
        k(   33) = (  -0.3000000   0.5000000  -0.1000000), wk =   0.0960000
        k(   34) = (   0.6000000  -0.4000000   0.8000000), wk =   0.0960000
        k(   35) = (   0.5000000  -0.3000000   0.7000000), wk =   0.0480000
        k(   36) = (  -0.2000000   0.6000000   0.0000000), wk =   0.0480000
        k(   37) = (   0.7000000  -0.3000000   0.9000000), wk =   0.0960000
        k(   38) = (   0.6000000  -0.2000000   0.8000000), wk =   0.0960000
        k(   39) = (   0.5000000  -0.1000000   0.7000000), wk =   0.0960000
        k(   40) = (   0.4000000   0.0000000   0.6000000), wk =   0.0480000
        k(   41) = (   0.8000000  -0.2000000   1.0000000), wk =   0.0480000
        k(   42) = (   0.7000000  -0.1000000   0.9000000), wk =   0.0960000
        k(   43) = (   0.6000000   0.0000000   0.8000000), wk =   0.0480000
        k(   44) = (  -0.2000000  -1.0000000   0.0000000), wk =   0.0240000
        k(   45) = (   0.6000000  -0.2000000   1.0000000), wk =   0.0480000
        k(   46) = (   0.5000000  -0.1000000   0.9000000), wk =   0.0480000
        k(   47) = (  -0.4000000  -1.0000000   0.0000000), wk =   0.0240000

     Dense  grid:     7727 G-vectors     FFT dimensions: (  27,  27,  27)

     Estimated max dynamical RAM per process >       9.27 MB

     Estimated total dynamical RAM >      46.33 MB

     Initial potential from superposition of free atoms

     starting charge   18.97647, renormalised to   19.00000
     Starting wfcs are   10 randomized atomic wfcs +    4 random wfcs

     total cpu time spent up to now is        1.3 secs

     Self-consistent Calculation

     iteration #  1     ecut=    80.00 Ry     beta= 0.70
     Davidson diagonalization with overlap
     ethr =  1.00E-02,  avg # of iterations =  4.8

     Threshold (ethr) on eigenvalues was too large:
     Diagonalizing with lowered threshold

     Davidson diagonalization with overlap
     ethr =  9.05E-05,  avg # of iterations =  1.7

     total cpu time spent up to now is        3.2 secs

     total energy              =    -282.48849445 Ry
     Harris-Foulkes estimate   =    -282.50025598 Ry
     estimated scf accuracy    <       0.01709551 Ry

     iteration #  2     ecut=    80.00 Ry     beta= 0.70
     Davidson diagonalization with overlap
     ethr =  9.00E-05,  avg # of iterations =  2.0

     total cpu time spent up to now is        3.9 secs

     total energy              =    -282.49157593 Ry
     Harris-Foulkes estimate   =    -282.49206236 Ry
     estimated scf accuracy    <       0.00064603 Ry

     iteration #  3     ecut=    80.00 Ry     beta= 0.70
     Davidson diagonalization with overlap
     ethr =  3.40E-06,  avg # of iterations =  2.3

     total cpu time spent up to now is        4.7 secs

     total energy              =    -282.49169426 Ry
     Harris-Foulkes estimate   =    -282.49170930 Ry
     estimated scf accuracy    <       0.00002558 Ry

     iteration #  4     ecut=    80.00 Ry     beta= 0.70
     Davidson diagonalization with overlap
     ethr =  1.35E-07,  avg # of iterations =  2.0

     total cpu time spent up to now is        5.2 secs

     total energy              =    -282.49169714 Ry
     Harris-Foulkes estimate   =    -282.49169718 Ry
     estimated scf accuracy    <       0.00000011 Ry

     iteration #  5     ecut=    80.00 Ry     beta= 0.70
     Davidson diagonalization with overlap
     ethr =  5.83E-10,  avg # of iterations =  2.1

     total cpu time spent up to now is        5.9 secs

     End of self-consistent calculation

          k = 0.0000 0.0000 0.0000 (   941 PWs)   bands (ev):

    -9.4743  -9.4743  -9.4743  -9.1270  -9.1270   9.0996  46.8935  46.8935
    46.8935  48.0902  53.6766  53.6766  53.6766  57.5335

          k =-0.1000 0.1000-0.1000 (   950 PWs)   bands (ev):

    -9.4706  -9.4431  -9.4431  -9.1264  -9.1264   9.4999  42.7545  46.2974
    46.2974  47.9585  54.6566  54.6566  55.6248  57.1644

          k =-0.2000 0.2000-0.2000 (   956 PWs)   bands (ev):

    -9.4636  -9.3901  -9.3901  -9.0944  -9.0944  10.7032  36.5321  45.0731
    45.0731  47.9905  54.1260  54.8199  54.8199  57.0197

          k =-0.3000 0.3000-0.3000 (   956 PWs)   bands (ev):

    -9.4593  -9.3851  -9.3851  -8.9923  -8.9923  12.6901  30.6643  43.8540
    43.8540  47.9823  52.3438  53.0065  53.0065  60.0950

          k =-0.4000 0.4000-0.4000 (   951 PWs)   bands (ev):

    -9.4597  -9.4075  -9.4075  -8.8809  -8.8809  15.2867  25.6635  42.9770
    42.9770  47.8980  51.2893  51.9347  51.9347  63.3306

          k = 0.5000-0.5000 0.5000 (   960 PWs)   bands (ev):

    -9.4610  -9.4190  -9.4190  -8.8352  -8.8352  17.1327  23.0054  42.6577
    42.6577  47.8388  50.9640  51.5860  51.5860  65.1408

          k = 0.0000 0.2000 0.0000 (   945 PWs)   bands (ev):

    -9.5063  -9.4105  -9.4105  -9.1591  -9.1000   9.6333  44.4400  44.4400
    44.8927  46.9237  53.3439  55.7140  56.4273  56.4273

          k =-0.1000 0.3000-0.1000 (   954 PWs)   bands (ev):

    -9.5170  -9.3497  -9.3441  -9.1757  -9.0598  10.5690  38.7777  42.7903
    44.3941  47.9334  50.6973  55.5407  57.9117  58.1276

          k =-0.2000 0.4000-0.2000 (   956 PWs)   bands (ev):

    -9.4999  -9.3454  -9.3209  -9.1089  -8.9673  12.2981  32.7982  41.6418
    42.9631  47.3259  52.0499  55.3742  56.0982  56.5875

          k =-0.3000 0.5000-0.3000 (   966 PWs)   bands (ev):

    -9.4789  -9.3747  -9.3409  -8.9920  -8.8669  14.7229  27.5062  41.1492
    41.3113  46.4720  53.6986  54.3671  54.4229  58.1620

          k = 0.6000-0.4000 0.6000 (   968 PWs)   bands (ev):

    -9.4604  -9.3961  -9.3625  -8.8989  -8.8326  17.1505  23.7563  39.9513
    41.4212  46.3987  52.9495  53.1681  54.8929  62.0412

          k = 0.5000-0.3000 0.5000 (   958 PWs)   bands (ev):

    -9.4369  -9.4083  -9.3643  -8.8917  -8.8713  16.4659  24.7140  39.2162
    42.4946  47.0068  52.1045  52.5208  55.9911  62.6535

          k = 0.4000-0.2000 0.4000 (   958 PWs)   bands (ev):

    -9.4386  -9.3894  -9.3463  -9.0203  -8.9177  13.8506  29.1831  39.2029
    44.2691  48.2424  51.4972  52.4298  57.5093  58.9608

          k = 0.3000-0.1000 0.3000 (   949 PWs)   bands (ev):

    -9.4603  -9.3654  -9.3426  -9.1394  -9.0073  11.6354  34.7355  39.8956
    46.3318  49.5819  51.3797  52.9805  55.7362  57.4321

          k = 0.2000 0.0000 0.2000 (   955 PWs)   bands (ev):

    -9.4756  -9.4036  -9.3866  -9.1553  -9.0845  10.1681  40.3949  41.6149
    47.3986  48.9950  53.3671  54.0353  54.5039  56.2188

          k = 0.0000 0.4000 0.0000 (   966 PWs)   bands (ev):

    -9.5891  -9.2505  -9.2410  -9.2410  -9.0291  11.2369  40.5338  40.8031
    40.8031  45.2140  47.5318  60.0025  60.1872  60.1872

          k =-0.1000 0.5000-0.1000 (   963 PWs)   bands (ev):

    -9.6068  -9.3101  -9.1780  -9.1331  -8.9536  12.7002  35.1428  39.4402
    39.7218  45.2513  47.5421  59.7668  59.8636  60.9458

          k =-0.2000 0.6000-0.2000 (   964 PWs)   bands (ev):

    -9.5737  -9.3336  -9.1871  -9.0580  -8.8554  14.8926  29.8803  37.4912
    38.8536  44.7182  51.3756  57.9917  58.3942  60.3211

          k = 0.7000-0.3000 0.7000 (   960 PWs)   bands (ev):

    -9.5291  -9.3093  -9.2133  -9.0179  -8.8248  17.4237  25.6786  35.5457
    39.1327  44.7500  55.9086  56.4746  56.9782  60.6648

          k = 0.6000-0.2000 0.6000 (   963 PWs)   bands (ev):

    -9.4843  -9.2969  -9.2285  -8.9811  -8.8933  18.0175  24.9040  34.2668
    40.2967  45.3653  55.4450  55.4747  60.5589  62.2194

          k = 0.5000-0.1000 0.5000 (   964 PWs)   bands (ev):

    -9.4321  -9.3436  -9.2214  -9.0381  -8.9432  15.7019  28.4938  33.8270
    42.2575  46.5856  54.2742  54.9970  58.6604  59.8478

          k = 0.4000 0.0000 0.4000 (   967 PWs)   bands (ev):

    -9.4145  -9.3841  -9.2223  -9.1749  -8.9471  13.3418  32.8944  34.8846
    44.6971  48.4237  52.4785  54.7412  55.2603  57.7543

          k = 0.0000 0.6000 0.0000 (   966 PWs)   bands (ev):

    -9.6909  -9.3736  -9.0247  -9.0247  -8.9405  13.8961  34.6500  37.8192
    37.8192  43.9310  44.3255  63.5971  63.5971  64.4395

          k =-0.1000 0.7000-0.1000 (   972 PWs)   bands (ev):

    -9.6969  -9.4130  -9.0017  -8.9506  -8.8521  15.8326  31.0611  35.2414
    36.9966  43.6077  46.0509  61.8667  63.1257  66.3970

          k = 0.8000-0.2000 0.8000 (   963 PWs)   bands (ev):

    -9.6371  -9.3780  -9.0271  -8.9604  -8.8140  18.2333  27.6213  32.2191
    37.0780  43.5892  50.3842  60.0995  61.3610  66.6355

          k = 0.7000-0.1000 0.7000 (   965 PWs)   bands (ev):

    -9.5655  -9.2472  -9.0538  -9.0514  -8.8800  19.5989  26.2094  30.0616
    38.0776  44.0713  55.4583  58.8014  59.7869  64.1048

          k = 0.6000-0.0000 0.6000 (   967 PWs)   bands (ev):

    -9.4959  -9.2046  -9.0886  -9.0650  -9.0059  17.9941  28.3723  29.4735
    39.8984  45.0700  57.6622  57.7037  60.0260  60.1624

          k = 0.0000 0.8000 0.0000 (   962 PWs)   bands (ev):

    -9.7725  -9.4807  -8.8686  -8.8447  -8.8447  17.4980  28.6403  35.9024
    35.9024  42.8876  43.1745  64.1782  67.6657  67.6657

          k = 0.9000-0.1000 0.9000 (   967 PWs)   bands (ev):

    -9.7523  -9.4860  -8.8819  -8.8295  -8.7969  19.5898  26.2255  33.3819
    35.7163  42.9058  45.3592  63.0298  66.5535  69.4204

          k = 0.8000 0.0000 0.8000 (   959 PWs)   bands (ev):

    -9.6619  -9.4015  -8.9261  -8.9161  -8.8374  20.6399  25.9091  30.0658
    36.4699  43.2581  50.0380  61.2964  64.2573  66.2082

          k = 0.0000-1.0000 0.0000 (   982 PWs)   bands (ev):

    -9.8039  -9.5234  -8.8415  -8.7751  -8.7751  20.6345  24.6504  35.2425
    35.2425  42.4708  42.9266  64.0771  70.0391  70.9674

          k =-0.2000 0.4000 0.0000 (   956 PWs)   bands (ev):

    -9.5282  -9.3226  -9.2493  -9.1983  -8.9942  11.7690  36.4828  38.2400
    44.0986  48.2821  49.0586  55.7260  57.0946  59.5596

          k =-0.3000 0.5000-0.1000 (   962 PWs)   bands (ev):

    -9.4937  -9.3528  -9.2328  -9.1093  -8.9159  13.7343  31.4322  36.7204
    41.9201  47.8656  51.5395  54.3116  57.3934  61.1424

          k = 0.6000-0.4000 0.8000 (   962 PWs)   bands (ev):

    -9.4518  -9.3882  -9.2414  -9.0062  -8.8657  16.2640  26.6623  36.3717
    39.9953  47.3436  52.0221  56.8570  57.8619  59.6004

          k = 0.5000-0.3000 0.7000 (   964 PWs)   bands (ev):

    -9.4317  -9.4078  -9.2401  -8.9646  -8.8520  18.0038  24.1576  36.3911
    39.1876  47.1615  51.7568  58.0534  58.5406  61.4251

          k =-0.2000 0.6000 0.0000 (   963 PWs)   bands (ev):

    -9.6144  -9.3539  -9.1332  -9.0303  -8.8961  14.4015  32.8526  35.5304
    38.3884  46.7906  46.8390  57.7472  62.2383  65.0520

          k = 0.7000-0.3000 0.9000 (   962 PWs)   bands (ev):

    -9.5576  -9.3599  -9.1429  -8.9768  -8.8551  16.7305  28.9281  33.7376
    36.6935  46.6046  50.8613  55.8660  62.8202  63.7904

          k = 0.6000-0.2000 0.8000 (   961 PWs)   bands (ev):

    -9.4969  -9.3153  -9.1308  -9.0366  -8.8458  18.9059  25.8344  32.4622
    36.4822  46.9132  53.9930  56.1916  61.5162  62.6044

          k = 0.5000-0.1000 0.7000 (   965 PWs)   bands (ev):

    -9.4472  -9.3249  -9.1296  -9.0425  -8.9058  18.2549  26.8180  31.6014
    37.6032  47.7602  53.2592  57.5143  60.7494  61.1125

          k = 0.4000 0.0000 0.6000 (   960 PWs)   bands (ev):

    -9.4150  -9.3957  -9.1728  -9.0396  -8.9321  15.8534  30.1729  32.2011
    39.5841  48.9460  51.8806  54.4036  59.6326  62.5333

          k = 0.8000-0.2000 1.0000 (   975 PWs)   bands (ev):

    -9.6852  -9.4387  -8.9922  -8.8493  -8.8466  17.8991  28.5915  33.7798
    34.7562  45.6830  45.8446  60.1577  66.0194  67.6489

          k = 0.7000-0.1000 0.9000 (   968 PWs)   bands (ev):

    -9.6001  -9.3905  -9.0331  -8.9294  -8.8076  19.9891  26.7963  30.6929
    34.5543  45.9917  50.2878  58.3730  63.0651  66.2124

          k = 0.6000 0.0000 0.8000 (   964 PWs)   bands (ev):

    -9.5158  -9.2476  -9.1504  -9.0090  -8.8539  20.0805  27.7123  28.2726
    35.6722  46.7262  55.5559  56.5120  59.0968  63.9387

          k =-0.2000-1.0000 0.0000 (   966 PWs)   bands (ev):

    -9.7120  -9.4747  -8.8859  -8.8804  -8.7748  20.7341  25.2833  33.1740
    33.7289  45.3197  45.5309  61.6846  65.8905  68.1628

          k = 0.6000-0.2000 1.0000 (   974 PWs)   bands (ev):

    -9.4507  -9.3801  -9.1670  -8.9548  -8.8507  18.9433  28.2240  30.4796
    34.3463  50.4746  50.8349  54.4750  61.6064  65.6763

          k = 0.5000-0.1000 0.9000 (   958 PWs)   bands (ev):

    -9.4008  -9.3257  -9.2217  -9.0105  -8.8099  20.2709  27.2206  29.6599
    33.4011  50.5790  52.8619  56.0894  57.0259  66.8442

          k =-0.4000-1.0000 0.0000 (   964 PWs)   bands (ev):

    -9.4658  -9.3742  -9.1490  -8.9800  -8.7747  20.9085  27.1034  29.8858
    32.0957  50.4754  50.8983  56.1258  58.5952  68.8968

     the Fermi energy is    46.6246 ev

!    total energy              =    -282.49169718 Ry
     Harris-Foulkes estimate   =    -282.49169718 Ry
     estimated scf accuracy    <          1.8E-09 Ry

     The total energy is the sum of the following terms:

     one-electron contribution =      -4.49810910 Ry
     hartree contribution      =      28.24478515 Ry
     xc contribution           =     -63.90469189 Ry
     ewald contribution        =    -242.33311988 Ry
     smearing contrib. (-TS)   =      -0.00056147 Ry

     convergence has been achieved in   5 iterations

     Forces acting on atoms (cartesian axes, Ry/au):

     atom    1 type  1   force =     0.00000000    0.00000000    0.00000000

     Total force =     0.000000     Total SCF correction =     0.000000


     Computing stress (Cartesian axis) and pressure

          total   stress  (Ry/bohr**3)                   (kbar)     P= 7080.57
   0.04813273  -0.00000000   0.00000000       7080.57     -0.00      0.00
   0.00000000   0.04813273   0.00000000          0.00   7080.57      0.00
   0.00000000  -0.00000000   0.04813273          0.00     -0.00   7080.57


     Writing output data file Fr.save/

     init_run     :      0.38s CPU      0.39s WALL (       1 calls)
     electrons    :      4.40s CPU      4.58s WALL (       1 calls)
     forces       :      0.06s CPU      0.06s WALL (       1 calls)
     stress       :      0.20s CPU      0.20s WALL (       1 calls)

     Called by init_run:
     wfcinit      :      0.19s CPU      0.20s WALL (       1 calls)
     potinit      :      0.01s CPU      0.01s WALL (       1 calls)
     hinit0       :      0.18s CPU      0.18s WALL (       1 calls)

     Called by electrons:
     c_bands      :      3.68s CPU      3.83s WALL (       6 calls)
     sum_band     :      0.67s CPU      0.70s WALL (       6 calls)
     v_of_rho     :      0.00s CPU      0.00s WALL (       6 calls)
     newd         :      0.05s CPU      0.05s WALL (       6 calls)
     mix_rho      :      0.00s CPU      0.00s WALL (       6 calls)

     Called by c_bands:
     init_us_2    :      0.09s CPU      0.09s WALL (     705 calls)
     cegterg      :      3.56s CPU      3.71s WALL (     282 calls)

     Called by sum_band:
     sum_band:bec :      0.00s CPU      0.00s WALL (     282 calls)
     addusdens    :      0.05s CPU      0.05s WALL (       6 calls)

     Called by *egterg:
     h_psi        :      2.61s CPU      2.73s WALL (    1037 calls)
     s_psi        :      0.09s CPU      0.10s WALL (    1037 calls)
     g_psi        :      0.01s CPU      0.01s WALL (     708 calls)
     cdiaghg      :      0.45s CPU      0.46s WALL (     943 calls)

     Called by h_psi:
     h_psi:pot    :      2.59s CPU      2.71s WALL (    1037 calls)
     h_psi:calbec :      0.12s CPU      0.13s WALL (    1037 calls)
     vloc_psi     :      2.37s CPU      2.48s WALL (    1037 calls)
     add_vuspsi   :      0.09s CPU      0.10s WALL (    1037 calls)

     General routines
     calbec       :      0.21s CPU      0.21s WALL (    1554 calls)
     fft          :      0.01s CPU      0.01s WALL (      34 calls)
     ffts         :      0.00s CPU      0.00s WALL (       6 calls)
     fftw         :      2.70s CPU      2.82s WALL (   25224 calls)

     Parallel routines
     fft_scatt_xy :      0.23s CPU      0.24s WALL (   25264 calls)
     fft_scatt_yz :      0.60s CPU      0.62s WALL (   25264 calls)

     PWSCF        :     6.02s CPU         6.28s WALL


   This run was terminated on:  22:52:58   7Apr2024            

=------------------------------------------------------------------------------=
   JOB DONE.
=------------------------------------------------------------------------------=
