
     Program PWSCF v.6.3MaX starts on  7Apr2024 at 22:56: 0 

     This program is part of the open-source Quantum ESPRESSO suite
     for quantum simulation of materials; please cite
         "P. Giannozzi et al., J. Phys.:Condens. Matter 21 395502 (2009);
         "P. Giannozzi et al., J. Phys.:Condens. Matter 29 465901 (2017);
          URL http://www.quantum-espresso.org", 
     in publications or presentations arising from this work. More details at
     http://www.quantum-espresso.org/quote

     Parallel version (MPI), running on     5 processors

     MPI processes distributed on     1 nodes
     R & G space division:  proc/nbgrp/npool/nimage =       5
     Waiting for input...
     Reading input from standard input

     Current dimensions of program PWSCF are:
     Max number of different atomic species (ntypx) = 10
     Max number of k-points (npk) =  40000
     Max angular momentum in pseudopotentials (lmaxx) =  3
               file Fr.pz-spdn-kjpaw_psl.1.0.0.UPF: wavefunction(s)  6P renormalized

     Subspace diagonalization in iterative solution of the eigenvalue problem:
     a serial algorithm will be used


     Parallelization info
     --------------------
     sticks:   dense  smooth     PW     G-vecs:    dense   smooth      PW
     Min         109     109     33                 1677     1677     294
     Max         110     110     35                 1680     1680     295
     Sum         547     547    169                 8393     8393    1471



     bravais-lattice index     =            2
     lattice parameter (alat)  =       6.8300  a.u.
     unit-cell volume          =      79.6530 (a.u.)^3
     number of atoms/cell      =            1
     number of atomic types    =            1
     number of electrons       =        19.00
     number of Kohn-Sham states=           14
     kinetic-energy cutoff     =      85.0000  Ry
     charge density cutoff     =     340.0000  Ry
     convergence threshold     =      1.0E-08
     mixing beta               =       0.7000
     number of iterations used =            8  plain     mixing
     Exchange-correlation      = SLA PZ NOGX NOGC ( 1  1  0  0 0 0)

     celldm(1)=   6.830000  celldm(2)=   0.000000  celldm(3)=   0.000000
     celldm(4)=   0.000000  celldm(5)=   0.000000  celldm(6)=   0.000000

     crystal axes: (cart. coord. in units of alat)
               a(1) = (  -0.500000   0.000000   0.500000 )  
               a(2) = (   0.000000   0.500000   0.500000 )  
               a(3) = (  -0.500000   0.500000   0.000000 )  

     reciprocal axes: (cart. coord. in units 2 pi/alat)
               b(1) = ( -1.000000 -1.000000  1.000000 )  
               b(2) = (  1.000000  1.000000  1.000000 )  
               b(3) = ( -1.000000  1.000000 -1.000000 )  


     PseudoPot. # 1 for Fr read from file:
     /home/lorenzo/pseudos/Fr/Fr.pz-spdn-kjpaw_psl.1.0.0.UPF
     MD5 check sum: 60dafd115682613df3cc92ec23a62a32
     Pseudo is Projector augmented-wave + core cor, Zval = 19.0
     Generated using "atomic" code by A. Dal Corso v.6.2.2
     Shape of augmentation charge: PSQ
     Using radial grid of 1287 points,  6 beta functions with: 
                l(1) =   0
                l(2) =   0
                l(3) =   1
                l(4) =   1
                l(5) =   2
                l(6) =   2
     Q(r) pseudized with 0 coefficients 


     atomic species   valence    mass     pseudopotential
        Fr            19.00   223.00000     Fr( 1.00)

     48 Sym. Ops., with inversion, found



   Cartesian axes

     site n.     atom                  positions (alat units)
         1           Fr  tau(   1) = (   0.0000000   0.0000000   0.0000000  )

     number of k points=    47  gaussian smearing, width (Ry)=  0.0100
                       cart. coord. in units 2pi/alat
        k(    1) = (   0.0000000   0.0000000   0.0000000), wk =   0.0020000
        k(    2) = (  -0.1000000   0.1000000  -0.1000000), wk =   0.0160000
        k(    3) = (  -0.2000000   0.2000000  -0.2000000), wk =   0.0160000
        k(    4) = (  -0.3000000   0.3000000  -0.3000000), wk =   0.0160000
        k(    5) = (  -0.4000000   0.4000000  -0.4000000), wk =   0.0160000
        k(    6) = (   0.5000000  -0.5000000   0.5000000), wk =   0.0080000
        k(    7) = (   0.0000000   0.2000000   0.0000000), wk =   0.0120000
        k(    8) = (  -0.1000000   0.3000000  -0.1000000), wk =   0.0480000
        k(    9) = (  -0.2000000   0.4000000  -0.2000000), wk =   0.0480000
        k(   10) = (  -0.3000000   0.5000000  -0.3000000), wk =   0.0480000
        k(   11) = (   0.6000000  -0.4000000   0.6000000), wk =   0.0480000
        k(   12) = (   0.5000000  -0.3000000   0.5000000), wk =   0.0480000
        k(   13) = (   0.4000000  -0.2000000   0.4000000), wk =   0.0480000
        k(   14) = (   0.3000000  -0.1000000   0.3000000), wk =   0.0480000
        k(   15) = (   0.2000000   0.0000000   0.2000000), wk =   0.0240000
        k(   16) = (   0.0000000   0.4000000   0.0000000), wk =   0.0120000
        k(   17) = (  -0.1000000   0.5000000  -0.1000000), wk =   0.0480000
        k(   18) = (  -0.2000000   0.6000000  -0.2000000), wk =   0.0480000
        k(   19) = (   0.7000000  -0.3000000   0.7000000), wk =   0.0480000
        k(   20) = (   0.6000000  -0.2000000   0.6000000), wk =   0.0480000
        k(   21) = (   0.5000000  -0.1000000   0.5000000), wk =   0.0480000
        k(   22) = (   0.4000000   0.0000000   0.4000000), wk =   0.0240000
        k(   23) = (   0.0000000   0.6000000   0.0000000), wk =   0.0120000
        k(   24) = (  -0.1000000   0.7000000  -0.1000000), wk =   0.0480000
        k(   25) = (   0.8000000  -0.2000000   0.8000000), wk =   0.0480000
        k(   26) = (   0.7000000  -0.1000000   0.7000000), wk =   0.0480000
        k(   27) = (   0.6000000  -0.0000000   0.6000000), wk =   0.0240000
        k(   28) = (   0.0000000   0.8000000   0.0000000), wk =   0.0120000
        k(   29) = (   0.9000000  -0.1000000   0.9000000), wk =   0.0480000
        k(   30) = (   0.8000000   0.0000000   0.8000000), wk =   0.0240000
        k(   31) = (   0.0000000  -1.0000000   0.0000000), wk =   0.0060000
        k(   32) = (  -0.2000000   0.4000000   0.0000000), wk =   0.0480000
        k(   33) = (  -0.3000000   0.5000000  -0.1000000), wk =   0.0960000
        k(   34) = (   0.6000000  -0.4000000   0.8000000), wk =   0.0960000
        k(   35) = (   0.5000000  -0.3000000   0.7000000), wk =   0.0480000
        k(   36) = (  -0.2000000   0.6000000   0.0000000), wk =   0.0480000
        k(   37) = (   0.7000000  -0.3000000   0.9000000), wk =   0.0960000
        k(   38) = (   0.6000000  -0.2000000   0.8000000), wk =   0.0960000
        k(   39) = (   0.5000000  -0.1000000   0.7000000), wk =   0.0960000
        k(   40) = (   0.4000000   0.0000000   0.6000000), wk =   0.0480000
        k(   41) = (   0.8000000  -0.2000000   1.0000000), wk =   0.0480000
        k(   42) = (   0.7000000  -0.1000000   0.9000000), wk =   0.0960000
        k(   43) = (   0.6000000   0.0000000   0.8000000), wk =   0.0480000
        k(   44) = (  -0.2000000  -1.0000000   0.0000000), wk =   0.0240000
        k(   45) = (   0.6000000  -0.2000000   1.0000000), wk =   0.0480000
        k(   46) = (   0.5000000  -0.1000000   0.9000000), wk =   0.0480000
        k(   47) = (  -0.4000000  -1.0000000   0.0000000), wk =   0.0240000

     Dense  grid:     8393 G-vectors     FFT dimensions: (  30,  30,  30)

     Estimated max dynamical RAM per process >      10.04 MB

     Estimated total dynamical RAM >      50.21 MB

     Initial potential from superposition of free atoms

     starting charge   18.97647, renormalised to   19.00000
     Starting wfcs are   10 randomized atomic wfcs +    4 random wfcs
     Checking if some PAW data can be deallocated... 

     total cpu time spent up to now is        1.5 secs

     Self-consistent Calculation

     iteration #  1     ecut=    85.00 Ry     beta= 0.70
     Davidson diagonalization with overlap
     ethr =  1.00E-02,  avg # of iterations =  4.8

     Threshold (ethr) on eigenvalues was too large:
     Diagonalizing with lowered threshold

     Davidson diagonalization with overlap
     ethr =  9.06E-05,  avg # of iterations =  1.8

     total cpu time spent up to now is        3.3 secs

     total energy              =   -1045.26300188 Ry
     Harris-Foulkes estimate   =   -1045.27513670 Ry
     estimated scf accuracy    <       0.01710644 Ry

     iteration #  2     ecut=    85.00 Ry     beta= 0.70
     Davidson diagonalization with overlap
     ethr =  9.00E-05,  avg # of iterations =  2.1

     total cpu time spent up to now is        4.2 secs

     total energy              =   -1045.26607861 Ry
     Harris-Foulkes estimate   =   -1045.26638337 Ry
     estimated scf accuracy    <       0.00056247 Ry

     iteration #  3     ecut=    85.00 Ry     beta= 0.70
     Davidson diagonalization with overlap
     ethr =  2.96E-06,  avg # of iterations =  2.4

     total cpu time spent up to now is        5.1 secs

     total energy              =   -1045.26615396 Ry
     Harris-Foulkes estimate   =   -1045.26615731 Ry
     estimated scf accuracy    <       0.00001643 Ry

     iteration #  4     ecut=    85.00 Ry     beta= 0.70
     Davidson diagonalization with overlap
     ethr =  8.65E-08,  avg # of iterations =  2.1

     total cpu time spent up to now is        5.9 secs

     total energy              =   -1045.26615868 Ry
     Harris-Foulkes estimate   =   -1045.26615810 Ry
     estimated scf accuracy    <       0.00000022 Ry

     iteration #  5     ecut=    85.00 Ry     beta= 0.70
     Davidson diagonalization with overlap
     ethr =  1.14E-09,  avg # of iterations =  2.2

     total cpu time spent up to now is        6.8 secs

     total energy              =   -1045.26615875 Ry
     Harris-Foulkes estimate   =   -1045.26615872 Ry
     estimated scf accuracy    <       0.00000002 Ry

     iteration #  6     ecut=    85.00 Ry     beta= 0.70
     Davidson diagonalization with overlap
     ethr =  9.83E-11,  avg # of iterations =  2.0

     total cpu time spent up to now is        7.6 secs

     End of self-consistent calculation

          k = 0.0000 0.0000 0.0000 (  1067 PWs)   bands (ev):

    -9.4351  -9.4351  -9.4351  -9.0866  -9.0866   9.0950  46.8688  46.8688
    46.8688  48.0887  53.6837  53.6837  53.6837  57.5231

          k =-0.1000 0.1000-0.1000 (  1040 PWs)   bands (ev):

    -9.4312  -9.4036  -9.4036  -9.0860  -9.0860   9.4952  42.7386  46.2746
    46.2746  47.9554  54.6611  54.6611  55.6236  57.1593

          k =-0.2000 0.2000-0.2000 (  1046 PWs)   bands (ev):

    -9.4241  -9.3505  -9.3505  -9.0542  -9.0542  10.6982  36.5194  45.0522
    45.0522  47.9885  54.1191  54.8197  54.8197  57.0201

          k =-0.3000 0.3000-0.3000 (  1056 PWs)   bands (ev):

    -9.4202  -9.3455  -9.3455  -8.9519  -8.9519  12.6846  30.6533  43.8332
    43.8332  47.9810  52.3388  53.0097  53.0097  60.0920

          k =-0.4000 0.4000-0.4000 (  1050 PWs)   bands (ev):

    -9.4207  -9.3681  -9.3681  -8.8404  -8.8404  15.2811  25.6532  42.9558
    42.9558  47.8962  51.2867  51.9400  51.9400  63.3236

          k = 0.5000-0.5000 0.5000 (  1056 PWs)   bands (ev):

    -9.4219  -9.3796  -9.3796  -8.7945  -8.7945  17.1274  22.9950  42.6364
    42.6364  47.8366  50.9624  51.5920  51.5920  65.1301

          k = 0.0000 0.2000 0.0000 (  1038 PWs)   bands (ev):

    -9.4669  -9.3710  -9.3710  -9.1192  -9.0595   9.6285  44.4213  44.4213
    44.8697  46.9248  53.3400  55.7189  56.4299  56.4299

          k =-0.1000 0.3000-0.1000 (  1035 PWs)   bands (ev):

    -9.4776  -9.3101  -9.3044  -9.1357  -9.0193  10.5640  38.7635  42.7731
    44.3769  47.9260  50.6964  55.5446  57.9115  58.1235

          k =-0.2000 0.4000-0.2000 (  1054 PWs)   bands (ev):

    -9.4606  -9.3058  -9.2812  -9.0689  -8.9268  12.2926  32.7864  41.6247
    42.9458  47.3252  52.0416  55.3766  56.0981  56.5856

          k =-0.3000 0.5000-0.3000 (  1059 PWs)   bands (ev):

    -9.4396  -9.3351  -9.3012  -8.9517  -8.8262  14.7171  27.4956  41.1315
    41.2942  46.4728  53.6899  54.3690  54.4252  58.1597

          k = 0.6000-0.4000 0.6000 (  1056 PWs)   bands (ev):

    -9.4211  -9.3566  -9.3230  -8.8582  -8.7917  17.1448  23.7460  39.9351
    41.4025  46.3986  52.9468  53.1715  54.8928  62.0341

          k = 0.5000-0.3000 0.5000 (  1052 PWs)   bands (ev):

    -9.3978  -9.3689  -9.3249  -8.8512  -8.8307  16.4602  24.7038  39.2011
    42.4745  47.0055  52.1028  52.5251  55.9901  62.6467

          k = 0.4000-0.2000 0.4000 (  1050 PWs)   bands (ev):

    -9.3993  -9.3498  -9.3068  -8.9800  -8.8771  13.8450  29.1723  39.1887
    44.2468  48.2396  51.4948  52.4344  57.5070  58.9581

          k = 0.3000-0.1000 0.3000 (  1048 PWs)   bands (ev):

    -9.4210  -9.3259  -9.3031  -9.0995  -8.9669  11.6301  34.7229  39.8824
    46.3055  49.5766  51.3760  52.9847  55.7384  57.4303

          k = 0.2000 0.0000 0.2000 (  1037 PWs)   bands (ev):

    -9.4361  -9.3641  -9.3468  -9.1152  -9.0441  10.1632  40.3782  41.6033
    47.3700  48.9880  53.3632  54.0420  54.5051  56.2183

          k = 0.0000 0.4000 0.0000 (  1054 PWs)   bands (ev):

    -9.5500  -9.2107  -9.2009  -9.2009  -8.9884  11.2316  40.5129  40.7872
    40.7872  45.2174  47.5326  60.0053  60.1867  60.1867

          k =-0.1000 0.5000-0.1000 (  1051 PWs)   bands (ev):

    -9.5678  -9.2705  -9.1379  -9.0931  -8.9131  12.6946  35.1285  39.4246
    39.7067  45.2538  47.5395  59.7674  59.8624  60.9396

          k =-0.2000 0.6000-0.2000 (  1046 PWs)   bands (ev):

    -9.5345  -9.2940  -9.1470  -9.0179  -8.8147  14.8866  29.8686  37.4781
    38.8377  44.7203  51.3701  57.9920  58.3918  60.3177

          k = 0.7000-0.3000 0.7000 (  1061 PWs)   bands (ev):

    -9.4898  -9.2700  -9.1735  -8.9778  -8.7841  17.4174  25.6683  35.5334
    39.1163  44.7513  55.9010  56.4758  56.9767  60.6616

          k = 0.6000-0.2000 0.6000 (  1073 PWs)   bands (ev):

    -9.4450  -9.2574  -9.1888  -8.9409  -8.8526  18.0112  24.8939  34.2549
    40.2796  45.3656  55.4413  55.4765  60.5560  62.2120

          k = 0.5000-0.1000 0.5000 (  1053 PWs)   bands (ev):

    -9.3926  -9.3042  -9.1815  -8.9978  -8.9027  15.6958  28.4830  33.8157
    42.2390  46.5849  54.2695  54.9987  58.6565  59.8433

          k = 0.4000 0.0000 0.4000 (  1057 PWs)   bands (ev):

    -9.3750  -9.3444  -9.1823  -9.1350  -8.9065  13.3361  32.8810  34.8747
    44.6754  48.4218  52.4722  54.7378  55.2655  57.7523

          k = 0.0000 0.6000 0.0000 (  1042 PWs)   bands (ev):

    -9.6519  -9.3340  -8.9845  -8.9845  -8.9000  13.8902  34.6341  37.8040
    37.8040  43.9360  44.3262  63.5933  63.5933  64.4428

          k =-0.1000 0.7000-0.1000 (  1049 PWs)   bands (ev):

    -9.6580  -9.3737  -8.9612  -8.9102  -8.8113  15.8262  31.0474  35.2301
    36.9813  43.6103  46.0497  61.8668  63.1214  66.3929

          k = 0.8000-0.2000 0.8000 (  1054 PWs)   bands (ev):

    -9.5982  -9.3387  -8.9867  -8.9201  -8.7733  18.2264  27.6098  32.2091
    37.0625  43.5914  50.3807  60.1003  61.3563  66.6298

          k = 0.7000-0.1000 0.7000 (  1056 PWs)   bands (ev):

    -9.5264  -9.2075  -9.0136  -9.0113  -8.8393  19.5918  26.1993  30.0514
    38.0618  44.0728  55.4540  58.8032  59.7822  64.0957

          k = 0.6000-0.0000 0.6000 (  1059 PWs)   bands (ev):

    -9.4565  -9.1648  -9.0484  -9.0249  -8.9655  17.9873  28.3618  29.4634
    39.8819  45.0707  57.6656  57.6986  60.0221  60.1541

          k = 0.0000 0.8000 0.0000 (  1042 PWs)   bands (ev):

    -9.7338  -9.4415  -8.8279  -8.8042  -8.8042  17.4912  28.6281  35.8871
    35.8871  42.8878  43.1805  64.1795  67.6592  67.6592

          k = 0.9000-0.1000 0.9000 (  1061 PWs)   bands (ev):

    -9.7135  -9.4469  -8.8413  -8.7887  -8.7560  19.5826  26.2142  33.3704
    35.7010  42.9083  45.3590  63.0306  66.5474  69.4084

          k = 0.8000 0.0000 0.8000 (  1057 PWs)   bands (ev):

    -9.6232  -9.3623  -8.8856  -8.8757  -8.7968  20.6324  25.8983  30.0563
    36.4545  43.2604  50.0350  61.2980  64.2528  66.1975

          k = 0.0000-1.0000 0.0000 (  1034 PWs)   bands (ev):

    -9.7650  -9.4841  -8.8003  -8.7339  -8.7339  20.6274  24.6392  35.2272
    35.2272  42.4711  42.9330  64.0775  70.0320  70.9530

          k =-0.2000 0.4000 0.0000 (  1054 PWs)   bands (ev):

    -9.4890  -9.2829  -9.2094  -9.1585  -8.9537  11.7636  36.4675  38.2291
    44.0783  48.2799  49.0551  55.7253  57.0970  59.5552

          k =-0.3000 0.5000-0.1000 (  1057 PWs)   bands (ev):

    -9.4546  -9.3132  -9.1929  -9.0692  -8.8753  13.7286  31.4203  36.7079
    41.9048  47.8617  51.5328  54.3128  57.3946  61.1379

          k = 0.6000-0.4000 0.8000 (  1054 PWs)   bands (ev):

    -9.4125  -9.3487  -9.2017  -8.9659  -8.8251  16.2579  26.6519  36.3584
    39.9819  47.3384  52.0229  56.8512  57.8628  59.5973

          k = 0.5000-0.3000 0.7000 (  1060 PWs)   bands (ev):

    -9.3922  -9.3686  -9.2004  -8.9242  -8.8112  17.9978  24.1474  36.3773
    39.1748  47.1558  51.7593  58.0550  58.5360  61.4175

          k =-0.2000 0.6000 0.0000 (  1052 PWs)   bands (ev):

    -9.5755  -9.3144  -9.0932  -8.9900  -8.8555  14.3955  32.8380  35.5190
    38.3762  46.7915  46.8338  57.7457  62.2391  65.0431

          k = 0.7000-0.3000 0.9000 (  1053 PWs)   bands (ev):

    -9.5187  -9.3205  -9.1029  -8.9364  -8.8144  16.7240  28.9163  33.7259
    36.6827  46.6018  50.8564  55.8659  62.8211  63.7837

          k = 0.6000-0.2000 0.8000 (  1060 PWs)   bands (ev):

    -9.4577  -9.2758  -9.0910  -8.9963  -8.8052  18.8990  25.8243  32.4507
    36.4710  46.9095  53.9910  56.1885  61.5137  62.5995

          k = 0.5000-0.1000 0.7000 (  1064 PWs)   bands (ev):

    -9.4079  -9.2854  -9.0897  -9.0023  -8.8652  18.2482  26.8078  31.5903
    37.5916  47.7547  53.2593  57.5097  60.7457  61.1092

          k = 0.4000 0.0000 0.6000 (  1049 PWs)   bands (ev):

    -9.3758  -9.3562  -9.1331  -8.9993  -8.8916  15.8471  30.1606  32.1911
    39.5717  48.9374  51.8796  54.4029  59.6326  62.5261

          k = 0.8000-0.2000 1.0000 (  1055 PWs)   bands (ev):

    -9.6463  -9.3995  -8.9516  -8.8084  -8.8058  17.8922  28.5790  33.7680
    34.7453  45.6783  45.8469  60.1566  66.0140  67.6482

          k = 0.7000-0.1000 0.9000 (  1058 PWs)   bands (ev):

    -9.5612  -9.3511  -8.9928  -8.8888  -8.7667  19.9817  26.7852  30.6832
    34.5431  45.9899  50.2842  58.3723  63.0574  66.2088

          k = 0.6000 0.0000 0.8000 (  1064 PWs)   bands (ev):

    -9.4767  -9.2079  -9.1106  -8.9687  -8.8133  20.0730  27.7019  28.2630
    35.6609  46.7233  55.5509  56.5121  59.0897  63.9363

          k =-0.2000-1.0000 0.0000 (  1058 PWs)   bands (ev):

    -9.6733  -9.4356  -8.8450  -8.8398  -8.7340  20.7267  25.2722  33.1620
    33.7177  45.3154  45.5335  61.6851  65.8794  68.1577

          k = 0.6000-0.2000 1.0000 (  1052 PWs)   bands (ev):

    -9.4114  -9.3405  -9.1271  -8.9142  -8.8098  18.9361  28.2126  30.4693
    34.3372  50.4635  50.8352  54.4760  61.6002  65.6750

          k = 0.5000-0.1000 0.9000 (  1058 PWs)   bands (ev):

    -9.3616  -9.2863  -9.1820  -8.9705  -8.7692  20.2632  27.2106  29.6490
    33.3922  50.5711  52.8629  56.0824  57.0238  66.8435

          k =-0.4000-1.0000 0.0000 (  1056 PWs)   bands (ev):

    -9.4268  -9.3347  -9.1089  -8.9396  -8.7339  20.9006  27.0928  29.8752
    32.0874  50.4761  50.8884  56.1259  58.5886  68.8925

     the Fermi energy is    46.6226 ev

!    total energy              =   -1045.26615875 Ry
     Harris-Foulkes estimate   =   -1045.26615875 Ry
     estimated scf accuracy    <          1.1E-10 Ry

     total all-electron energy =    -48490.719132 Ry

     The total energy is the sum of the following terms:

     one-electron contribution =       1.43908229 Ry
     hartree contribution      =      28.25010377 Ry
     xc contribution           =     -63.90557141 Ry
     ewald contribution        =    -242.33311988 Ry
     one-center paw contrib.   =    -768.71608994 Ry
     smearing contrib. (-TS)   =      -0.00056358 Ry

     convergence has been achieved in   6 iterations

     Forces acting on atoms (cartesian axes, Ry/au):

     atom    1 type  1   force =     0.00000000    0.00000000    0.00000000

     Total force =     0.000000     Total SCF correction =     0.000000


     Computing stress (Cartesian axis) and pressure

          total   stress  (Ry/bohr**3)                   (kbar)     P= 7093.50
   0.04822067   0.00000000   0.00000000       7093.50      0.00      0.00
  -0.00000000   0.04822067   0.00000000         -0.00   7093.50      0.00
   0.00000000   0.00000000   0.04822067          0.00      0.00   7093.50


     Writing output data file Fr.save/

     init_run     :      0.49s CPU      0.50s WALL (       1 calls)
     electrons    :      5.86s CPU      6.05s WALL (       1 calls)
     forces       :      0.06s CPU      0.06s WALL (       1 calls)
     stress       :      0.20s CPU      0.20s WALL (       1 calls)

     Called by init_run:
     wfcinit      :      0.23s CPU      0.24s WALL (       1 calls)
     potinit      :      0.05s CPU      0.05s WALL (       1 calls)
     hinit0       :      0.19s CPU      0.19s WALL (       1 calls)

     Called by electrons:
     c_bands      :      4.70s CPU      4.86s WALL (       7 calls)
     sum_band     :      0.82s CPU      0.85s WALL (       7 calls)
     v_of_rho     :      0.01s CPU      0.01s WALL (       7 calls)
     newd         :      0.06s CPU      0.06s WALL (       7 calls)
     PAW_pot      :      0.32s CPU      0.32s WALL (       7 calls)
     mix_rho      :      0.00s CPU      0.00s WALL (       7 calls)

     Called by c_bands:
     init_us_2    :      0.11s CPU      0.11s WALL (     799 calls)
     cegterg      :      4.54s CPU      4.69s WALL (     329 calls)

     Called by sum_band:
     sum_band:bec :      0.00s CPU      0.00s WALL (     329 calls)
     addusdens    :      0.06s CPU      0.06s WALL (       7 calls)

     Called by *egterg:
     h_psi        :      3.43s CPU      3.54s WALL (    1195 calls)
     s_psi        :      0.10s CPU      0.10s WALL (    1195 calls)
     g_psi        :      0.01s CPU      0.01s WALL (     819 calls)
     cdiaghg      :      0.51s CPU      0.53s WALL (    1101 calls)

     Called by h_psi:
     h_psi:pot    :      3.41s CPU      3.53s WALL (    1195 calls)
     h_psi:calbec :      0.16s CPU      0.17s WALL (    1195 calls)
     vloc_psi     :      3.13s CPU      3.24s WALL (    1195 calls)
     add_vuspsi   :      0.10s CPU      0.11s WALL (    1195 calls)

     General routines
     calbec       :      0.25s CPU      0.26s WALL (    1759 calls)
     fft          :      0.01s CPU      0.01s WALL (      38 calls)
     ffts         :      0.00s CPU      0.00s WALL (       7 calls)
     fftw         :      3.53s CPU      3.65s WALL (   28842 calls)

     Parallel routines
     fft_scatt_xy :      0.30s CPU      0.30s WALL (   28887 calls)
     fft_scatt_yz :      0.97s CPU      1.00s WALL (   28887 calls)

     PWSCF        :     7.70s CPU         8.02s WALL


   This run was terminated on:  22:56: 8   7Apr2024            

=------------------------------------------------------------------------------=
   JOB DONE.
=------------------------------------------------------------------------------=
