
     Program PWSCF v.6.3MaX starts on  7Apr2024 at 22:21:47 

     This program is part of the open-source Quantum ESPRESSO suite
     for quantum simulation of materials; please cite
         "P. Giannozzi et al., J. Phys.:Condens. Matter 21 395502 (2009);
         "P. Giannozzi et al., J. Phys.:Condens. Matter 29 465901 (2017);
          URL http://www.quantum-espresso.org", 
     in publications or presentations arising from this work. More details at
     http://www.quantum-espresso.org/quote

     Parallel version (MPI), running on     5 processors

     MPI processes distributed on     1 nodes
     R & G space division:  proc/nbgrp/npool/nimage =       5
     Waiting for input...
     Reading input from standard input

     Current dimensions of program PWSCF are:
     Max number of different atomic species (ntypx) = 10
     Max number of k-points (npk) =  40000
     Max angular momentum in pseudopotentials (lmaxx) =  3
               file Fr.pbe-spdn-kjpaw_psl.1.0.0.UPF: wavefunction(s)  6P renormalized

     Subspace diagonalization in iterative solution of the eigenvalue problem:
     a serial algorithm will be used


     Parallelization info
     --------------------
     sticks:   dense  smooth     PW     G-vecs:    dense   smooth      PW
     Min          18      18      7                  121      121      33
     Max          19      19      8                  123      123      35
     Sum          91      91     37                  609      609     169



     bravais-lattice index     =            2
     lattice parameter (alat)  =       6.8300  a.u.
     unit-cell volume          =      79.6530 (a.u.)^3
     number of atoms/cell      =            1
     number of atomic types    =            1
     number of electrons       =        19.00
     number of Kohn-Sham states=           14
     kinetic-energy cutoff     =      15.0000  Ry
     charge density cutoff     =      60.0000  Ry
     convergence threshold     =      1.0E-08
     mixing beta               =       0.7000
     number of iterations used =            8  plain     mixing
     Exchange-correlation      = SLA PW PBX PBC ( 1  4  3  4 0 0)

     celldm(1)=   6.830000  celldm(2)=   0.000000  celldm(3)=   0.000000
     celldm(4)=   0.000000  celldm(5)=   0.000000  celldm(6)=   0.000000

     crystal axes: (cart. coord. in units of alat)
               a(1) = (  -0.500000   0.000000   0.500000 )  
               a(2) = (   0.000000   0.500000   0.500000 )  
               a(3) = (  -0.500000   0.500000   0.000000 )  

     reciprocal axes: (cart. coord. in units 2 pi/alat)
               b(1) = ( -1.000000 -1.000000  1.000000 )  
               b(2) = (  1.000000  1.000000  1.000000 )  
               b(3) = ( -1.000000  1.000000 -1.000000 )  


     PseudoPot. # 1 for Fr read from file:
     /home/lorenzo/pseudos/Fr/Fr.pbe-spdn-kjpaw_psl.1.0.0.UPF
     MD5 check sum: 362a188b966a64328b94f1ef5f32e8c4
     Pseudo is Projector augmented-wave + core cor, Zval = 19.0
     Generated using "atomic" code by A. Dal Corso v.6.2.2
     Shape of augmentation charge: PSQ
     Using radial grid of 1287 points,  6 beta functions with: 
                l(1) =   0
                l(2) =   0
                l(3) =   1
                l(4) =   1
                l(5) =   2
                l(6) =   2
     Q(r) pseudized with 0 coefficients 


     atomic species   valence    mass     pseudopotential
        Fr            19.00   223.00000     Fr( 1.00)

     48 Sym. Ops., with inversion, found



   Cartesian axes

     site n.     atom                  positions (alat units)
         1           Fr  tau(   1) = (   0.0000000   0.0000000   0.0000000  )

     number of k points=     8  gaussian smearing, width (Ry)=  0.0100
                       cart. coord. in units 2pi/alat
        k(    1) = (   0.0000000   0.0000000   0.0000000), wk =   0.0312500
        k(    2) = (  -0.2500000   0.2500000  -0.2500000), wk =   0.2500000
        k(    3) = (   0.5000000  -0.5000000   0.5000000), wk =   0.1250000
        k(    4) = (   0.0000000   0.5000000   0.0000000), wk =   0.1875000
        k(    5) = (   0.7500000  -0.2500000   0.7500000), wk =   0.7500000
        k(    6) = (   0.5000000   0.0000000   0.5000000), wk =   0.3750000
        k(    7) = (   0.0000000  -1.0000000   0.0000000), wk =   0.0937500
        k(    8) = (  -0.5000000  -1.0000000   0.0000000), wk =   0.1875000

     Dense  grid:      609 G-vectors     FFT dimensions: (  12,  12,  12)

     Estimated max dynamical RAM per process >       1.17 MB

     Estimated total dynamical RAM >       5.84 MB

     Check: negative/imaginary core charge=   -0.000429    0.000000

     Initial potential from superposition of free atoms

     starting charge   18.97009, renormalised to   19.00000
     Starting wfcs are   10 randomized atomic wfcs +    4 random wfcs
     Checking if some PAW data can be deallocated... 

     total cpu time spent up to now is        1.2 secs

     Self-consistent Calculation

     iteration #  1     ecut=    15.00 Ry     beta= 0.70
     Davidson diagonalization with overlap
     ethr =  1.00E-02,  avg # of iterations =  4.4

     total cpu time spent up to now is        1.4 secs

     total energy              =   -1048.35650867 Ry
     Harris-Foulkes estimate   =   -1053.66522754 Ry
     estimated scf accuracy    <       6.44993297 Ry

     iteration #  2     ecut=    15.00 Ry     beta= 0.70
     Davidson diagonalization with overlap
     ethr =  1.00E-02,  avg # of iterations =  2.8

     total cpu time spent up to now is        1.6 secs

     total energy              =   -1049.61356772 Ry
     Harris-Foulkes estimate   =   -1049.75306672 Ry
     estimated scf accuracy    <       0.49181743 Ry

     iteration #  3     ecut=    15.00 Ry     beta= 0.70
     Davidson diagonalization with overlap
     ethr =  2.59E-03,  avg # of iterations =  2.0

     total cpu time spent up to now is        1.7 secs

     total energy              =   -1049.63620034 Ry
     Harris-Foulkes estimate   =   -1049.64632047 Ry
     estimated scf accuracy    <       0.03016162 Ry

     iteration #  4     ecut=    15.00 Ry     beta= 0.70
     Davidson diagonalization with overlap
     ethr =  1.59E-04,  avg # of iterations =  1.5

     total cpu time spent up to now is        1.9 secs

     total energy              =   -1049.63747763 Ry
     Harris-Foulkes estimate   =   -1049.63767724 Ry
     estimated scf accuracy    <       0.00054711 Ry

     iteration #  5     ecut=    15.00 Ry     beta= 0.70
     Davidson diagonalization with overlap
     ethr =  2.88E-06,  avg # of iterations =  2.4

     total cpu time spent up to now is        2.0 secs

     total energy              =   -1049.63754638 Ry
     Harris-Foulkes estimate   =   -1049.63754646 Ry
     estimated scf accuracy    <       0.00000464 Ry

     iteration #  6     ecut=    15.00 Ry     beta= 0.70
     Davidson diagonalization with overlap
     ethr =  2.44E-08,  avg # of iterations =  2.0

     total cpu time spent up to now is        2.1 secs

     total energy              =   -1049.63754676 Ry
     Harris-Foulkes estimate   =   -1049.63754672 Ry
     estimated scf accuracy    <       0.00000005 Ry

     iteration #  7     ecut=    15.00 Ry     beta= 0.70
     Davidson diagonalization with overlap
     ethr =  2.69E-10,  avg # of iterations =  2.1

     total cpu time spent up to now is        2.3 secs

     End of self-consistent calculation

          k = 0.0000 0.0000 0.0000 (    65 PWs)   bands (ev):

     6.1832   6.1832   6.8304   9.4344   9.4344   9.4344  43.3431  43.3431
    43.3431  50.8681  54.4102  60.1847  60.1847  60.1847

          k =-0.2500 0.2500-0.2500 (    74 PWs)   bands (ev):

     1.4694   1.4694   4.0103   7.7061   7.7061   9.4414  32.6502  41.7814
    41.7814  51.8183  55.4893  60.1411  61.4002  61.4002

          k = 0.5000-0.5000 0.5000 (    76 PWs)   bands (ev):

    -0.0108  -0.0108   2.9758   7.0497   7.0497  14.2594  23.2834  39.9324
    39.9324  50.6508  55.2595  64.8759  64.8759  65.9601

          k = 0.0000 0.5000 0.0000 (    76 PWs)   bands (ev):

     1.6027   1.6027   3.6407   3.9570   7.5923   9.9301  34.0821  38.1321
    38.1321  51.6727  53.8413  64.0407  64.0407  65.3464

          k = 0.7500-0.2500 0.7500 (    80 PWs)   bands (ev):

    -1.0279   1.3317   2.6826   2.8822   5.3429  14.0365  26.4621  33.6845
    36.8031  51.1471  58.7536  61.5421  64.2580  67.6428

          k = 0.5000 0.0000 0.5000 (    79 PWs)   bands (ev):

     0.7365   1.6311   2.1321   2.5261   6.2509  12.5782  28.7957  32.8708
    40.2541  52.1509  57.9026  60.2791  63.3473  63.7179

          k = 0.0000-1.0000 0.0000 (    80 PWs)   bands (ev):

    -2.1271  -0.7434  -0.7434   6.3575   8.0451  15.9149  24.6546  34.0536
    34.0536  51.5652  56.8308  66.1002  70.9841  71.4489

          k =-0.5000-1.0000 0.0000 (    84 PWs)   bands (ev):

    -1.0160   0.4544   0.5643   1.9196   1.9196  15.2857  28.8738  28.8738
    33.2523  55.0013  58.7107  59.3795  59.3795  70.9671

     the Fermi energy is    51.5885 ev

!    total energy              =   -1049.63754677 Ry
     Harris-Foulkes estimate   =   -1049.63754677 Ry
     estimated scf accuracy    <          3.1E-10 Ry

     total all-electron energy =    -48495.247858 Ry

     The total energy is the sum of the following terms:

     one-electron contribution =      26.96188816 Ry
     hartree contribution      =      17.72669541 Ry
     xc contribution           =     -61.36371245 Ry
     ewald contribution        =    -242.33312978 Ry
     one-center paw contrib.   =    -790.62862983 Ry
     smearing contrib. (-TS)   =      -0.00065829 Ry

     convergence has been achieved in   7 iterations

     Forces acting on atoms (cartesian axes, Ry/au):

     atom    1 type  1   force =     0.00000000    0.00000000    0.00000000

     Total force =     0.000000     Total SCF correction =     0.000000


     Computing stress (Cartesian axis) and pressure

          total   stress  (Ry/bohr**3)                   (kbar)     P=********
  -0.30068569  -0.00000000  -0.00000000     -44232.39     -0.00     -0.00
  -0.00000000  -0.30068569   0.00000000         -0.00 -44232.39      0.00
  -0.00000000   0.00000000  -0.30068569         -0.00      0.00 -44232.39


     Writing output data file Fr.save/

     init_run     :      0.20s CPU      0.22s WALL (       1 calls)
     electrons    :      0.98s CPU      1.14s WALL (       1 calls)
     forces       :      0.01s CPU      0.01s WALL (       1 calls)
     stress       :      0.01s CPU      0.01s WALL (       1 calls)

     Called by init_run:
     wfcinit      :      0.01s CPU      0.01s WALL (       1 calls)
     potinit      :      0.10s CPU      0.12s WALL (       1 calls)
     hinit0       :      0.07s CPU      0.07s WALL (       1 calls)

     Called by electrons:
     c_bands      :      0.22s CPU      0.25s WALL (       7 calls)
     sum_band     :      0.03s CPU      0.03s WALL (       7 calls)
     v_of_rho     :      0.00s CPU      0.00s WALL (       8 calls)
     newd         :      0.01s CPU      0.01s WALL (       8 calls)
     PAW_pot      :      0.82s CPU      0.94s WALL (       8 calls)
     mix_rho      :      0.00s CPU      0.00s WALL (       7 calls)

     Called by c_bands:
     init_us_2    :      0.00s CPU      0.00s WALL (     136 calls)
     cegterg      :      0.21s CPU      0.25s WALL (      56 calls)

     Called by sum_band:
     sum_band:bec :      0.00s CPU      0.00s WALL (      56 calls)
     addusdens    :      0.00s CPU      0.00s WALL (       7 calls)

     Called by *egterg:
     h_psi        :      0.10s CPU      0.12s WALL (     201 calls)
     s_psi        :      0.00s CPU      0.00s WALL (     201 calls)
     g_psi        :      0.00s CPU      0.00s WALL (     137 calls)
     cdiaghg      :      0.10s CPU      0.11s WALL (     193 calls)

     Called by h_psi:
     h_psi:pot    :      0.10s CPU      0.11s WALL (     201 calls)
     h_psi:calbec :      0.01s CPU      0.01s WALL (     201 calls)
     vloc_psi     :      0.09s CPU      0.10s WALL (     201 calls)
     add_vuspsi   :      0.00s CPU      0.00s WALL (     201 calls)

     General routines
     calbec       :      0.01s CPU      0.01s WALL (     297 calls)
     fft          :      0.00s CPU      0.00s WALL (     114 calls)
     ffts         :      0.00s CPU      0.00s WALL (       7 calls)
     fftw         :      0.09s CPU      0.11s WALL (    4904 calls)

     Parallel routines
     fft_scatt_xy :      0.01s CPU      0.01s WALL (    5025 calls)
     fft_scatt_yz :      0.04s CPU      0.05s WALL (    5025 calls)

     PWSCF        :     2.14s CPU         2.38s WALL


   This run was terminated on:  22:21:49   7Apr2024            

=------------------------------------------------------------------------------=
   JOB DONE.
=------------------------------------------------------------------------------=
