
     Program PWSCF v.6.3MaX starts on  7Apr2024 at 22:22:14 

     This program is part of the open-source Quantum ESPRESSO suite
     for quantum simulation of materials; please cite
         "P. Giannozzi et al., J. Phys.:Condens. Matter 21 395502 (2009);
         "P. Giannozzi et al., J. Phys.:Condens. Matter 29 465901 (2017);
          URL http://www.quantum-espresso.org", 
     in publications or presentations arising from this work. More details at
     http://www.quantum-espresso.org/quote

     Parallel version (MPI), running on     5 processors

     MPI processes distributed on     1 nodes
     R & G space division:  proc/nbgrp/npool/nimage =       5
     Waiting for input...
     Reading input from standard input

     Current dimensions of program PWSCF are:
     Max number of different atomic species (ntypx) = 10
     Max number of k-points (npk) =  40000
     Max angular momentum in pseudopotentials (lmaxx) =  3
               file Fr.pbe-spdn-kjpaw_psl.1.0.0.UPF: wavefunction(s)  6P renormalized

     Subspace diagonalization in iterative solution of the eigenvalue problem:
     a serial algorithm will be used


     Parallelization info
     --------------------
     sticks:   dense  smooth     PW     G-vecs:    dense   smooth      PW
     Min          18      18      7                  121      121      33
     Max          19      19      8                  123      123      35
     Sum          91      91     37                  609      609     169



     bravais-lattice index     =            2
     lattice parameter (alat)  =       6.8300  a.u.
     unit-cell volume          =      79.6530 (a.u.)^3
     number of atoms/cell      =            1
     number of atomic types    =            1
     number of electrons       =        19.00
     number of Kohn-Sham states=           14
     kinetic-energy cutoff     =      15.0000  Ry
     charge density cutoff     =      60.0000  Ry
     convergence threshold     =      1.0E-08
     mixing beta               =       0.7000
     number of iterations used =            8  plain     mixing
     Exchange-correlation      = SLA PW PBX PBC ( 1  4  3  4 0 0)

     celldm(1)=   6.830000  celldm(2)=   0.000000  celldm(3)=   0.000000
     celldm(4)=   0.000000  celldm(5)=   0.000000  celldm(6)=   0.000000

     crystal axes: (cart. coord. in units of alat)
               a(1) = (  -0.500000   0.000000   0.500000 )  
               a(2) = (   0.000000   0.500000   0.500000 )  
               a(3) = (  -0.500000   0.500000   0.000000 )  

     reciprocal axes: (cart. coord. in units 2 pi/alat)
               b(1) = ( -1.000000 -1.000000  1.000000 )  
               b(2) = (  1.000000  1.000000  1.000000 )  
               b(3) = ( -1.000000  1.000000 -1.000000 )  


     PseudoPot. # 1 for Fr read from file:
     /home/lorenzo/pseudos/Fr/Fr.pbe-spdn-kjpaw_psl.1.0.0.UPF
     MD5 check sum: 362a188b966a64328b94f1ef5f32e8c4
     Pseudo is Projector augmented-wave + core cor, Zval = 19.0
     Generated using "atomic" code by A. Dal Corso v.6.2.2
     Shape of augmentation charge: PSQ
     Using radial grid of 1287 points,  6 beta functions with: 
                l(1) =   0
                l(2) =   0
                l(3) =   1
                l(4) =   1
                l(5) =   2
                l(6) =   2
     Q(r) pseudized with 0 coefficients 


     atomic species   valence    mass     pseudopotential
        Fr            19.00   223.00000     Fr( 1.00)

     48 Sym. Ops., with inversion, found



   Cartesian axes

     site n.     atom                  positions (alat units)
         1           Fr  tau(   1) = (   0.0000000   0.0000000   0.0000000  )

     number of k points=    20  gaussian smearing, width (Ry)=  0.0100
                       cart. coord. in units 2pi/alat
        k(    1) = (   0.0000000   0.0000000   0.0000000), wk =   0.0058309
        k(    2) = (  -0.1428571   0.1428571  -0.1428571), wk =   0.0466472
        k(    3) = (  -0.2857143   0.2857143  -0.2857143), wk =   0.0466472
        k(    4) = (  -0.4285714   0.4285714  -0.4285714), wk =   0.0466472
        k(    5) = (   0.0000000   0.2857143   0.0000000), wk =   0.0349854
        k(    6) = (  -0.1428571   0.4285714  -0.1428571), wk =   0.1399417
        k(    7) = (  -0.2857143   0.5714286  -0.2857143), wk =   0.1399417
        k(    8) = (   0.5714286  -0.2857143   0.5714286), wk =   0.1399417
        k(    9) = (   0.4285714  -0.1428571   0.4285714), wk =   0.1399417
        k(   10) = (   0.2857143  -0.0000000   0.2857143), wk =   0.0699708
        k(   11) = (   0.0000000   0.5714286   0.0000000), wk =   0.0349854
        k(   12) = (  -0.1428571   0.7142857  -0.1428571), wk =   0.1399417
        k(   13) = (   0.7142857  -0.1428571   0.7142857), wk =   0.1399417
        k(   14) = (   0.5714286   0.0000000   0.5714286), wk =   0.0699708
        k(   15) = (   0.0000000   0.8571429   0.0000000), wk =   0.0349854
        k(   16) = (   0.8571429  -0.0000000   0.8571429), wk =   0.0699708
        k(   17) = (  -0.2857143   0.5714286   0.0000000), wk =   0.1399417
        k(   18) = (   0.5714286  -0.2857143   0.8571429), wk =   0.2798834
        k(   19) = (   0.7142857  -0.1428571   1.0000000), wk =   0.1399417
        k(   20) = (   0.5714286   0.0000000   0.8571429), wk =   0.1399417

     Dense  grid:      609 G-vectors     FFT dimensions: (  12,  12,  12)

     Estimated max dynamical RAM per process >       1.21 MB

     Estimated total dynamical RAM >       6.04 MB

     Check: negative/imaginary core charge=   -0.000429    0.000000

     Initial potential from superposition of free atoms

     starting charge   18.97009, renormalised to   19.00000
     Starting wfcs are   10 randomized atomic wfcs +    4 random wfcs
     Checking if some PAW data can be deallocated... 

     total cpu time spent up to now is        1.3 secs

     Self-consistent Calculation

     iteration #  1     ecut=    15.00 Ry     beta= 0.70
     Davidson diagonalization with overlap
     ethr =  1.00E-02,  avg # of iterations =  4.2

     total cpu time spent up to now is        1.6 secs

     total energy              =   -1048.14297446 Ry
     Harris-Foulkes estimate   =   -1053.54213562 Ry
     estimated scf accuracy    <       6.55541710 Ry

     iteration #  2     ecut=    15.00 Ry     beta= 0.70
     Davidson diagonalization with overlap
     ethr =  1.00E-02,  avg # of iterations =  2.8

     total cpu time spent up to now is        1.8 secs

     total energy              =   -1049.41646256 Ry
     Harris-Foulkes estimate   =   -1049.55994886 Ry
     estimated scf accuracy    <       0.50671023 Ry

     iteration #  3     ecut=    15.00 Ry     beta= 0.70
     Davidson diagonalization with overlap
     ethr =  2.67E-03,  avg # of iterations =  2.0

     total cpu time spent up to now is        2.0 secs

     total energy              =   -1049.43929261 Ry
     Harris-Foulkes estimate   =   -1049.45019203 Ry
     estimated scf accuracy    <       0.03031312 Ry

     iteration #  4     ecut=    15.00 Ry     beta= 0.70
     Davidson diagonalization with overlap
     ethr =  1.60E-04,  avg # of iterations =  1.9

     total cpu time spent up to now is        2.2 secs

     total energy              =   -1049.44072297 Ry
     Harris-Foulkes estimate   =   -1049.44101858 Ry
     estimated scf accuracy    <       0.00074383 Ry

     iteration #  5     ecut=    15.00 Ry     beta= 0.70
     Davidson diagonalization with overlap
     ethr =  3.91E-06,  avg # of iterations =  2.5

     total cpu time spent up to now is        2.4 secs

     total energy              =   -1049.44080819 Ry
     Harris-Foulkes estimate   =   -1049.44081040 Ry
     estimated scf accuracy    <       0.00001091 Ry

     iteration #  6     ecut=    15.00 Ry     beta= 0.70
     Davidson diagonalization with overlap
     ethr =  5.74E-08,  avg # of iterations =  2.0

     total cpu time spent up to now is        2.6 secs

     total energy              =   -1049.44080944 Ry
     Harris-Foulkes estimate   =   -1049.44080935 Ry
     estimated scf accuracy    <       0.00000025 Ry

     iteration #  7     ecut=    15.00 Ry     beta= 0.70
     Davidson diagonalization with overlap
     ethr =  1.32E-09,  avg # of iterations =  1.9

     total cpu time spent up to now is        2.8 secs

     End of self-consistent calculation

          k = 0.0000 0.0000 0.0000 (    65 PWs)   bands (ev):

     6.0855   6.0855   6.7894   9.3622   9.3622   9.3622  43.2891  43.2891
    43.2891  50.9052  54.3426  60.1933  60.1933  60.1933

          k =-0.1429 0.1429-0.1429 (    71 PWs)   bands (ev):

     4.4020   4.4020   5.5208   7.6315   7.6315   7.6922  38.4621  42.7920
    42.7920  51.5566  56.7104  57.9110  60.2506  60.2506

          k =-0.2857 0.2857-0.2857 (    74 PWs)   bands (ev):

     1.2785   1.2785   3.9671   7.4839   7.4839  10.1599  30.7061  41.3396
    41.3396  51.7421  55.2601  61.3592  61.8600  61.8600

          k =-0.4286 0.4286-0.4286 (    77 PWs)   bands (ev):

    -0.0772  -0.0772   0.5956   7.0097   7.0097  13.2027  24.4102  40.0800
    40.0800  50.8074  54.2376  64.0704  64.0704  66.5268

          k = 0.0000 0.2857 0.0000 (    72 PWs)   bands (ev):

     4.0234   4.1584   4.1584   7.5022   7.8896   8.2450  39.1647  41.2175
    41.2175  51.9979  55.2943  59.7639  61.3844  61.3844

          k =-0.1429 0.4286-0.1429 (    77 PWs)   bands (ev):

    -0.6200   2.0235   3.4648   3.6234   7.6685   9.6414  32.9799  39.3962
    40.0797  52.4609  54.7047  60.2139  62.5068  63.7203

          k =-0.2857 0.5714-0.2857 (    79 PWs)   bands (ev):

    -0.2005   0.9116   1.8418   3.9125   5.4579  12.4690  26.6163  37.9518
    38.5507  51.1539  57.7350  59.8685  63.6077  65.6382

          k = 0.5714-0.2857 0.5714 (    79 PWs)   bands (ev):

    -0.0091   0.5693   2.1702   3.0922   6.0630  14.0530  24.3459  36.3849
    39.2017  51.0067  57.8406  63.5767  63.6794  66.0316

          k = 0.4286-0.1429 0.4286 (    79 PWs)   bands (ev):

    -0.4920   1.2802   2.3041   3.4638   5.2637  11.5845  28.6091  36.5271
    41.1589  51.9894  56.2216  60.5209  62.5176  64.1336

          k = 0.2857-0.0000 0.2857 (    71 PWs)   bands (ev):

     2.8424   4.0937   6.5734   7.0915   9.0247   9.1263  34.7473  39.0370
    42.9331  53.4004  54.5598  58.9225  61.2400  62.9921

          k = 0.0000 0.5714 0.0000 (    76 PWs)   bands (ev):

     1.5801   1.5801   3.5148   4.0020   7.4275  10.7937  32.2640  37.1244
    37.1244  50.8999  54.5703  65.2412  65.2412  66.9173

          k =-0.1429 0.7143-0.1429 (    80 PWs)   bands (ev):

    -0.8814  -0.4202   2.4033   2.5019   6.1030  13.0477  28.1602  34.6380
    36.0158  50.6146  56.4806  63.7578  65.4077  69.5327

          k = 0.7143-0.1429 0.7143 (    78 PWs)   bands (ev):

     1.5918   1.6475   2.6885   3.7923   6.4598  14.8807  26.4267  31.4858
    36.7188  51.6689  59.5958  63.4871  64.1584  66.6349

          k = 0.5714 0.0000 0.5714 (    79 PWs)   bands (ev):

     0.6440   1.5765   2.6209   2.7374   6.1816  13.6838  28.0964  30.9567
    38.9530  51.8862  59.9216  60.5010  63.5367  65.4942

          k = 0.0000 0.8571 0.0000 (    80 PWs)   bands (ev):

    -2.2073   1.0760   1.0760   3.0874   7.3676  14.6577  25.9164  34.4011
    34.4011  49.5692  57.0386  66.4329  70.0751  70.0751

          k = 0.8571-0.0000 0.8571 (    77 PWs)   bands (ev):

    -0.0289   2.5363   4.4048   5.3520   6.6190  15.7113  25.4071  32.3985
    34.6881  51.3987  57.3723  65.5157  67.9450  68.6692

          k =-0.2857 0.5714 0.0000 (    78 PWs)   bands (ev):

     0.6516   1.5917   3.1274   4.2420   5.3623  11.5981  29.9301  34.9927
    38.9787  52.3634  56.0230  60.0683  65.2613  66.5042

          k = 0.5714-0.2857 0.8571 (    79 PWs)   bands (ev):

     0.3981   1.4787   3.1822   3.7033   5.2849  13.9909  26.6041  32.9933
    37.2372  52.2416  59.2987  60.1787  64.5653  66.5756

          k = 0.7143-0.1429 1.0000 (    82 PWs)   bands (ev):

    -1.2437  -0.9128   0.5693   3.3761   4.7104  14.8144  26.6975  32.3452
    34.2895  51.8542  57.2389  61.9310  65.1591  70.5197

          k = 0.5714 0.0000 0.8571 (    80 PWs)   bands (ev):

    -0.0979   1.2668   2.5524   2.9537   5.7701  15.1570  28.2435  29.1793
    34.8132  53.3328  59.3205  60.8889  61.9139  68.3101

     the Fermi energy is    51.8951 ev

!    total energy              =   -1049.44080946 Ry
     Harris-Foulkes estimate   =   -1049.44080946 Ry
     estimated scf accuracy    <          1.3E-09 Ry

     total all-electron energy =    -48495.051121 Ry

     The total energy is the sum of the following terms:

     one-electron contribution =      27.20915497 Ry
     hartree contribution      =      17.63986068 Ry
     xc contribution           =     -61.34012650 Ry
     ewald contribution        =    -242.33312978 Ry
     one-center paw contrib.   =    -790.61564801 Ry
     smearing contrib. (-TS)   =      -0.00092082 Ry

     convergence has been achieved in   7 iterations

     Forces acting on atoms (cartesian axes, Ry/au):

     atom    1 type  1   force =     0.00000000    0.00000000    0.00000000

     Total force =     0.000000     Total SCF correction =     0.000000


     Computing stress (Cartesian axis) and pressure

          total   stress  (Ry/bohr**3)                   (kbar)     P=********
  -0.30205657  -0.00000000  -0.00000000     -44434.05     -0.00     -0.00
  -0.00000000  -0.30205657   0.00000000         -0.00 -44434.05      0.00
  -0.00000000   0.00000000  -0.30205657         -0.00      0.00 -44434.05


     Writing output data file Fr.save/

     init_run     :      0.19s CPU      0.22s WALL (       1 calls)
     electrons    :      1.26s CPU      1.46s WALL (       1 calls)
     forces       :      0.01s CPU      0.01s WALL (       1 calls)
     stress       :      0.02s CPU      0.02s WALL (       1 calls)

     Called by init_run:
     wfcinit      :      0.01s CPU      0.02s WALL (       1 calls)
     potinit      :      0.10s CPU      0.12s WALL (       1 calls)
     hinit0       :      0.07s CPU      0.07s WALL (       1 calls)

     Called by electrons:
     c_bands      :      0.46s CPU      0.54s WALL (       7 calls)
     sum_band     :      0.05s CPU      0.06s WALL (       7 calls)
     v_of_rho     :      0.01s CPU      0.01s WALL (       8 calls)
     newd         :      0.01s CPU      0.01s WALL (       8 calls)
     PAW_pot      :      0.82s CPU      0.95s WALL (       8 calls)
     mix_rho      :      0.00s CPU      0.00s WALL (       7 calls)

     Called by c_bands:
     init_us_2    :      0.01s CPU      0.01s WALL (     340 calls)
     cegterg      :      0.45s CPU      0.52s WALL (     140 calls)

     Called by sum_band:
     sum_band:bec :      0.00s CPU      0.00s WALL (     140 calls)
     addusdens    :      0.00s CPU      0.00s WALL (       7 calls)

     Called by *egterg:
     h_psi        :      0.21s CPU      0.26s WALL (     506 calls)
     s_psi        :      0.01s CPU      0.01s WALL (     506 calls)
     g_psi        :      0.00s CPU      0.00s WALL (     346 calls)
     cdiaghg      :      0.19s CPU      0.21s WALL (     486 calls)

     Called by h_psi:
     h_psi:pot    :      0.21s CPU      0.25s WALL (     506 calls)
     h_psi:calbec :      0.01s CPU      0.01s WALL (     506 calls)
     vloc_psi     :      0.18s CPU      0.23s WALL (     506 calls)
     add_vuspsi   :      0.01s CPU      0.01s WALL (     506 calls)

     General routines
     calbec       :      0.02s CPU      0.02s WALL (     746 calls)
     fft          :      0.01s CPU      0.01s WALL (     114 calls)
     ffts         :      0.00s CPU      0.00s WALL (       7 calls)
     fftw         :      0.20s CPU      0.24s WALL (   12268 calls)

     Parallel routines
     fft_scatt_xy :      0.02s CPU      0.03s WALL (   12389 calls)
     fft_scatt_yz :      0.09s CPU      0.11s WALL (   12389 calls)

     PWSCF        :     2.57s CPU         2.86s WALL


   This run was terminated on:  22:22:16   7Apr2024            

=------------------------------------------------------------------------------=
   JOB DONE.
=------------------------------------------------------------------------------=
