
     Program PWSCF v.6.3MaX starts on  7Apr2024 at 22:16: 3 

     This program is part of the open-source Quantum ESPRESSO suite
     for quantum simulation of materials; please cite
         "P. Giannozzi et al., J. Phys.:Condens. Matter 21 395502 (2009);
         "P. Giannozzi et al., J. Phys.:Condens. Matter 29 465901 (2017);
          URL http://www.quantum-espresso.org", 
     in publications or presentations arising from this work. More details at
     http://www.quantum-espresso.org/quote

     Parallel version (MPI), running on     5 processors

     MPI processes distributed on     1 nodes
     R & G space division:  proc/nbgrp/npool/nimage =       5
     Waiting for input...
     Reading input from standard input

     Current dimensions of program PWSCF are:
     Max number of different atomic species (ntypx) = 10
     Max number of k-points (npk) =  40000
     Max angular momentum in pseudopotentials (lmaxx) =  3
               file Fr.pz-spdn-kjpaw_psl.1.0.0.UPF: wavefunction(s)  6P renormalized

     Subspace diagonalization in iterative solution of the eigenvalue problem:
     a serial algorithm will be used


     Parallelization info
     --------------------
     sticks:   dense  smooth     PW     G-vecs:    dense   smooth      PW
     Min         129     129     32                 2168     2168     272
     Max         130     130     33                 2171     2171     273
     Sum         649     649    163                10849    10849    1363



     bravais-lattice index     =            2
     lattice parameter (alat)  =       6.8300  a.u.
     unit-cell volume          =      79.6530 (a.u.)^3
     number of atoms/cell      =            1
     number of atomic types    =            1
     number of electrons       =        19.00
     number of Kohn-Sham states=           14
     kinetic-energy cutoff     =     100.0000  Ry
     charge density cutoff     =     400.0000  Ry
     convergence threshold     =      1.0E-08
     mixing beta               =       0.7000
     number of iterations used =            8  plain     mixing
     Exchange-correlation      = SLA PZ NOGX NOGC ( 1  1  0  0 0 0)

     celldm(1)=   6.830000  celldm(2)=   0.000000  celldm(3)=   0.000000
     celldm(4)=   0.000000  celldm(5)=   0.000000  celldm(6)=   0.000000

     crystal axes: (cart. coord. in units of alat)
               a(1) = (  -0.500000   0.000000   0.500000 )  
               a(2) = (   0.000000   0.500000   0.500000 )  
               a(3) = (  -0.500000   0.500000   0.000000 )  

     reciprocal axes: (cart. coord. in units 2 pi/alat)
               b(1) = ( -1.000000 -1.000000  1.000000 )  
               b(2) = (  1.000000  1.000000  1.000000 )  
               b(3) = ( -1.000000  1.000000 -1.000000 )  


     PseudoPot. # 1 for Fr read from file:
     /home/lorenzo/pseudos/Fr/Fr.pz-spdn-kjpaw_psl.1.0.0.UPF
     MD5 check sum: 60dafd115682613df3cc92ec23a62a32
     Pseudo is Projector augmented-wave + core cor, Zval = 19.0
     Generated using "atomic" code by A. Dal Corso v.6.2.2
     Shape of augmentation charge: PSQ
     Using radial grid of 1287 points,  6 beta functions with: 
                l(1) =   0
                l(2) =   0
                l(3) =   1
                l(4) =   1
                l(5) =   2
                l(6) =   2
     Q(r) pseudized with 0 coefficients 


     atomic species   valence    mass     pseudopotential
        Fr            19.00   223.00000     Fr( 1.00)

     48 Sym. Ops., with inversion, found



   Cartesian axes

     site n.     atom                  positions (alat units)
         1           Fr  tau(   1) = (   0.0000000   0.0000000   0.0000000  )

     number of k points=     1  gaussian smearing, width (Ry)=  0.0100
                       cart. coord. in units 2pi/alat
        k(    1) = (   0.0000000   0.0000000   0.0000000), wk =   2.0000000

     Dense  grid:    10849 G-vectors     FFT dimensions: (  32,  32,  32)

     Estimated max dynamical RAM per process >       9.93 MB

     Estimated total dynamical RAM >      49.65 MB

     Initial potential from superposition of free atoms

     starting charge   18.97647, renormalised to   19.00000
     Starting wfcs are   10 randomized atomic wfcs +    4 random wfcs
     Checking if some PAW data can be deallocated... 

     total cpu time spent up to now is        1.3 secs

     Self-consistent Calculation

     iteration #  1     ecut=   100.00 Ry     beta= 0.70
     Davidson diagonalization with overlap
     ethr =  1.00E-02,  avg # of iterations =  5.0

     Threshold (ethr) on eigenvalues was too large:
     Diagonalizing with lowered threshold

     Davidson diagonalization with overlap
     ethr =  8.58E-04,  avg # of iterations =  1.0

     total cpu time spent up to now is        1.5 secs

     total energy              =   -1040.75834766 Ry
     Harris-Foulkes estimate   =   -1040.78983342 Ry
     estimated scf accuracy    <       0.16393157 Ry

     iteration #  2     ecut=   100.00 Ry     beta= 0.70
     Davidson diagonalization with overlap
     ethr =  8.63E-04,  avg # of iterations =  1.0

     total cpu time spent up to now is        1.6 secs

     total energy              =   -1040.76576099 Ry
     Harris-Foulkes estimate   =   -1040.76477329 Ry
     estimated scf accuracy    <       0.00922549 Ry

     iteration #  3     ecut=   100.00 Ry     beta= 0.70
     Davidson diagonalization with overlap
     ethr =  4.86E-05,  avg # of iterations =  2.0

     total cpu time spent up to now is        1.7 secs

     total energy              =   -1040.76595550 Ry
     Harris-Foulkes estimate   =   -1040.76843670 Ry
     estimated scf accuracy    <       0.00805791 Ry

     iteration #  4     ecut=   100.00 Ry     beta= 0.70
     Davidson diagonalization with overlap
     ethr =  4.24E-05,  avg # of iterations =  1.0

     total cpu time spent up to now is        1.7 secs

     total energy              =   -1040.76520257 Ry
     Harris-Foulkes estimate   =   -1040.76874906 Ry
     estimated scf accuracy    <       0.01771139 Ry

     iteration #  5     ecut=   100.00 Ry     beta= 0.70
     Davidson diagonalization with overlap
     ethr =  4.24E-05,  avg # of iterations =  1.0

     total cpu time spent up to now is        1.8 secs

     total energy              =   -1040.76746044 Ry
     Harris-Foulkes estimate   =   -1040.76796695 Ry
     estimated scf accuracy    <       0.00308086 Ry

     iteration #  6     ecut=   100.00 Ry     beta= 0.70
     Davidson diagonalization with overlap
     ethr =  1.62E-05,  avg # of iterations =  1.0

     total cpu time spent up to now is        1.9 secs

     total energy              =   -1040.76760789 Ry
     Harris-Foulkes estimate   =   -1040.76762565 Ry
     estimated scf accuracy    <       0.00007969 Ry

     iteration #  7     ecut=   100.00 Ry     beta= 0.70
     Davidson diagonalization with overlap
     ethr =  4.19E-07,  avg # of iterations =  1.0

     total cpu time spent up to now is        2.0 secs

     total energy              =   -1040.76761663 Ry
     Harris-Foulkes estimate   =   -1040.76761896 Ry
     estimated scf accuracy    <       0.00001298 Ry

     iteration #  8     ecut=   100.00 Ry     beta= 0.70
     Davidson diagonalization with overlap
     ethr =  6.83E-08,  avg # of iterations =  1.0

     total cpu time spent up to now is        2.1 secs

     total energy              =   -1040.76761788 Ry
     Harris-Foulkes estimate   =   -1040.76761800 Ry
     estimated scf accuracy    <       0.00000039 Ry

     iteration #  9     ecut=   100.00 Ry     beta= 0.70
     Davidson diagonalization with overlap
     ethr =  2.03E-09,  avg # of iterations =  3.0

     total cpu time spent up to now is        2.2 secs

     total energy              =   -1040.76761796 Ry
     Harris-Foulkes estimate   =   -1040.76761808 Ry
     estimated scf accuracy    <       0.00000073 Ry

     iteration # 10     ecut=   100.00 Ry     beta= 0.70
     Davidson diagonalization with overlap
     ethr =  2.03E-09,  avg # of iterations =  1.0

     total cpu time spent up to now is        2.2 secs

     End of self-consistent calculation

          k = 0.0000 0.0000 0.0000 (  1363 PWs)   bands (ev):

    -8.8279  -8.8279  -8.8279  -8.0646  -8.0646   9.2909  47.2937  47.2937
    47.2937  47.4567  53.7115  53.7115  53.7115  58.1003

     the Fermi energy is    47.4772 ev

!    total energy              =   -1040.76761801 Ry
     Harris-Foulkes estimate   =   -1040.76761801 Ry
     estimated scf accuracy    <          3.8E-09 Ry

     total all-electron energy =    -48486.220591 Ry

     The total energy is the sum of the following terms:

     one-electron contribution =       5.32716252 Ry
     hartree contribution      =      29.36300269 Ry
     xc contribution           =     -64.18745695 Ry
     ewald contribution        =    -242.33311988 Ry
     one-center paw contrib.   =    -768.92894935 Ry
     smearing contrib. (-TS)   =      -0.00825704 Ry

     convergence has been achieved in  10 iterations

     Forces acting on atoms (cartesian axes, Ry/au):

     atom    1 type  1   force =     0.00000000    0.00000000    0.00000000

     Total force =     0.000000     Total SCF correction =     0.000000


     Computing stress (Cartesian axis) and pressure

          total   stress  (Ry/bohr**3)                   (kbar)     P=13562.01
   0.09219268   0.00000000   0.00000000      13562.01      0.00      0.00
   0.00000000   0.09219268  -0.00000000          0.00  13562.01     -0.00
   0.00000000  -0.00000000   0.09219268          0.00     -0.00  13562.01


     Writing output data file Fr.save/

     init_run     :      0.34s CPU      0.35s WALL (       1 calls)
     electrons    :      0.88s CPU      0.90s WALL (       1 calls)
     forces       :      0.03s CPU      0.03s WALL (       1 calls)
     stress       :      0.09s CPU      0.09s WALL (       1 calls)

     Called by init_run:
     wfcinit      :      0.00s CPU      0.01s WALL (       1 calls)
     potinit      :      0.06s CPU      0.06s WALL (       1 calls)
     hinit0       :      0.26s CPU      0.26s WALL (       1 calls)

     Called by electrons:
     c_bands      :      0.13s CPU      0.13s WALL (      11 calls)
     sum_band     :      0.16s CPU      0.17s WALL (      11 calls)
     v_of_rho     :      0.01s CPU      0.01s WALL (      11 calls)
     newd         :      0.12s CPU      0.12s WALL (      11 calls)
     PAW_pot      :      0.50s CPU      0.51s WALL (      11 calls)
     mix_rho      :      0.01s CPU      0.01s WALL (      11 calls)

     Called by c_bands:
     init_us_2    :      0.01s CPU      0.01s WALL (      23 calls)
     cegterg      :      0.12s CPU      0.13s WALL (      11 calls)

     Called by sum_band:
     sum_band:bec :      0.00s CPU      0.00s WALL (      11 calls)
     addusdens    :      0.11s CPU      0.12s WALL (      11 calls)

     Called by *egterg:
     h_psi        :      0.09s CPU      0.09s WALL (      30 calls)
     s_psi        :      0.00s CPU      0.00s WALL (      30 calls)
     g_psi        :      0.00s CPU      0.00s WALL (      18 calls)
     cdiaghg      :      0.01s CPU      0.01s WALL (      28 calls)

     Called by h_psi:
     h_psi:pot    :      0.09s CPU      0.09s WALL (      30 calls)
     h_psi:calbec :      0.01s CPU      0.01s WALL (      30 calls)
     vloc_psi     :      0.08s CPU      0.08s WALL (      30 calls)
     add_vuspsi   :      0.00s CPU      0.00s WALL (      30 calls)

     General routines
     calbec       :      0.01s CPU      0.01s WALL (      46 calls)
     fft          :      0.02s CPU      0.02s WALL (      54 calls)
     ffts         :      0.00s CPU      0.00s WALL (      11 calls)
     fftw         :      0.09s CPU      0.09s WALL (     858 calls)

     Parallel routines
     fft_scatt_xy :      0.01s CPU      0.01s WALL (     923 calls)
     fft_scatt_yz :      0.03s CPU      0.03s WALL (     923 calls)

     PWSCF        :     2.34s CPU         2.40s WALL


   This run was terminated on:  22:16: 6   7Apr2024            

=------------------------------------------------------------------------------=
   JOB DONE.
=------------------------------------------------------------------------------=
