
     Program PWSCF v.6.3MaX starts on  7Apr2024 at 22:28:13 

     This program is part of the open-source Quantum ESPRESSO suite
     for quantum simulation of materials; please cite
         "P. Giannozzi et al., J. Phys.:Condens. Matter 21 395502 (2009);
         "P. Giannozzi et al., J. Phys.:Condens. Matter 29 465901 (2017);
          URL http://www.quantum-espresso.org", 
     in publications or presentations arising from this work. More details at
     http://www.quantum-espresso.org/quote

     Parallel version (MPI), running on     5 processors

     MPI processes distributed on     1 nodes
     R & G space division:  proc/nbgrp/npool/nimage =       5
     Waiting for input...
     Reading input from standard input

     Current dimensions of program PWSCF are:
     Max number of different atomic species (ntypx) = 10
     Max number of k-points (npk) =  40000
     Max angular momentum in pseudopotentials (lmaxx) =  3
               file Fr.pz-spdn-kjpaw_psl.1.0.0.UPF: wavefunction(s)  6P renormalized

     Subspace diagonalization in iterative solution of the eigenvalue problem:
     a serial algorithm will be used


     Parallelization info
     --------------------
     sticks:   dense  smooth     PW     G-vecs:    dense   smooth      PW
     Min          39      39     13                  361      361      77
     Max          40      40     15                  363      363      78
     Sum         199     199     73                 1807     1807     387



     bravais-lattice index     =            2
     lattice parameter (alat)  =       6.8300  a.u.
     unit-cell volume          =      79.6530 (a.u.)^3
     number of atoms/cell      =            1
     number of atomic types    =            1
     number of electrons       =        19.00
     number of Kohn-Sham states=           14
     kinetic-energy cutoff     =      30.0000  Ry
     charge density cutoff     =     120.0000  Ry
     convergence threshold     =      1.0E-08
     mixing beta               =       0.7000
     number of iterations used =            8  plain     mixing
     Exchange-correlation      = SLA PZ NOGX NOGC ( 1  1  0  0 0 0)

     celldm(1)=   6.830000  celldm(2)=   0.000000  celldm(3)=   0.000000
     celldm(4)=   0.000000  celldm(5)=   0.000000  celldm(6)=   0.000000

     crystal axes: (cart. coord. in units of alat)
               a(1) = (  -0.500000   0.000000   0.500000 )  
               a(2) = (   0.000000   0.500000   0.500000 )  
               a(3) = (  -0.500000   0.500000   0.000000 )  

     reciprocal axes: (cart. coord. in units 2 pi/alat)
               b(1) = ( -1.000000 -1.000000  1.000000 )  
               b(2) = (  1.000000  1.000000  1.000000 )  
               b(3) = ( -1.000000  1.000000 -1.000000 )  


     PseudoPot. # 1 for Fr read from file:
     /home/lorenzo/pseudos/Fr/Fr.pz-spdn-kjpaw_psl.1.0.0.UPF
     MD5 check sum: 60dafd115682613df3cc92ec23a62a32
     Pseudo is Projector augmented-wave + core cor, Zval = 19.0
     Generated using "atomic" code by A. Dal Corso v.6.2.2
     Shape of augmentation charge: PSQ
     Using radial grid of 1287 points,  6 beta functions with: 
                l(1) =   0
                l(2) =   0
                l(3) =   1
                l(4) =   1
                l(5) =   2
                l(6) =   2
     Q(r) pseudized with 0 coefficients 


     atomic species   valence    mass     pseudopotential
        Fr            19.00   223.00000     Fr( 1.00)

     48 Sym. Ops., with inversion, found



   Cartesian axes

     site n.     atom                  positions (alat units)
         1           Fr  tau(   1) = (   0.0000000   0.0000000   0.0000000  )

     number of k points=    20  gaussian smearing, width (Ry)=  0.0100
                       cart. coord. in units 2pi/alat
        k(    1) = (   0.0000000   0.0000000   0.0000000), wk =   0.0058309
        k(    2) = (  -0.1428571   0.1428571  -0.1428571), wk =   0.0466472
        k(    3) = (  -0.2857143   0.2857143  -0.2857143), wk =   0.0466472
        k(    4) = (  -0.4285714   0.4285714  -0.4285714), wk =   0.0466472
        k(    5) = (   0.0000000   0.2857143   0.0000000), wk =   0.0349854
        k(    6) = (  -0.1428571   0.4285714  -0.1428571), wk =   0.1399417
        k(    7) = (  -0.2857143   0.5714286  -0.2857143), wk =   0.1399417
        k(    8) = (   0.5714286  -0.2857143   0.5714286), wk =   0.1399417
        k(    9) = (   0.4285714  -0.1428571   0.4285714), wk =   0.1399417
        k(   10) = (   0.2857143  -0.0000000   0.2857143), wk =   0.0699708
        k(   11) = (   0.0000000   0.5714286   0.0000000), wk =   0.0349854
        k(   12) = (  -0.1428571   0.7142857  -0.1428571), wk =   0.1399417
        k(   13) = (   0.7142857  -0.1428571   0.7142857), wk =   0.1399417
        k(   14) = (   0.5714286   0.0000000   0.5714286), wk =   0.0699708
        k(   15) = (   0.0000000   0.8571429   0.0000000), wk =   0.0349854
        k(   16) = (   0.8571429  -0.0000000   0.8571429), wk =   0.0699708
        k(   17) = (  -0.2857143   0.5714286   0.0000000), wk =   0.1399417
        k(   18) = (   0.5714286  -0.2857143   0.8571429), wk =   0.2798834
        k(   19) = (   0.7142857  -0.1428571   1.0000000), wk =   0.1399417
        k(   20) = (   0.5714286   0.0000000   0.8571429), wk =   0.1399417

     Dense  grid:     1807 G-vectors     FFT dimensions: (  18,  18,  18)

     Estimated max dynamical RAM per process >       2.52 MB

     Estimated total dynamical RAM >      12.60 MB

     Check: negative/imaginary core charge=   -0.000065    0.000000

     Initial potential from superposition of free atoms

     starting charge   18.97647, renormalised to   19.00000
     Starting wfcs are   10 randomized atomic wfcs +    4 random wfcs
     Checking if some PAW data can be deallocated... 

     total cpu time spent up to now is        1.1 secs

     Self-consistent Calculation

     iteration #  1     ecut=    30.00 Ry     beta= 0.70
     Davidson diagonalization with overlap
     ethr =  1.00E-02,  avg # of iterations =  4.7

     total cpu time spent up to now is        1.4 secs

     total energy              =   -1043.42522714 Ry
     Harris-Foulkes estimate   =   -1043.61616547 Ry
     estimated scf accuracy    <       0.22429144 Ry

     iteration #  2     ecut=    30.00 Ry     beta= 0.70
     Davidson diagonalization with overlap
     ethr =  1.18E-03,  avg # of iterations =  2.0

     total cpu time spent up to now is        1.6 secs

     total energy              =   -1043.48298374 Ry
     Harris-Foulkes estimate   =   -1043.48797378 Ry
     estimated scf accuracy    <       0.01193511 Ry

     iteration #  3     ecut=    30.00 Ry     beta= 0.70
     Davidson diagonalization with overlap
     ethr =  6.28E-05,  avg # of iterations =  2.2

     total cpu time spent up to now is        1.8 secs

     total energy              =   -1043.48419274 Ry
     Harris-Foulkes estimate   =   -1043.48429649 Ry
     estimated scf accuracy    <       0.00047259 Ry

     iteration #  4     ecut=    30.00 Ry     beta= 0.70
     Davidson diagonalization with overlap
     ethr =  2.49E-06,  avg # of iterations =  3.0

     total cpu time spent up to now is        2.0 secs

     total energy              =   -1043.48421891 Ry
     Harris-Foulkes estimate   =   -1043.48421867 Ry
     estimated scf accuracy    <       0.00000194 Ry

     iteration #  5     ecut=    30.00 Ry     beta= 0.70
     Davidson diagonalization with overlap
     ethr =  1.02E-08,  avg # of iterations =  2.5

     total cpu time spent up to now is        2.2 secs

     total energy              =   -1043.48421944 Ry
     Harris-Foulkes estimate   =   -1043.48421948 Ry
     estimated scf accuracy    <       0.00000009 Ry

     iteration #  6     ecut=    30.00 Ry     beta= 0.70
     Davidson diagonalization with overlap
     ethr =  4.97E-10,  avg # of iterations =  2.0

     total cpu time spent up to now is        2.3 secs

     End of self-consistent calculation

          k = 0.0000 0.0000 0.0000 (   229 PWs)   bands (ev):

    -9.5333  -9.5333  -9.5333  -9.2728  -9.2728   8.9090  46.5068  46.5068
    46.5068  48.3132  55.3239  55.3239  55.3239  57.2779

          k =-0.1429 0.1429-0.1429 (   220 PWs)   bands (ev):

    -9.5111  -9.2445  -9.2445  -9.0709  -9.0709   9.7201  40.0367  45.5789
    45.5789  48.2871  55.3692  56.6760  56.6761  57.1289

          k =-0.2857 0.2857-0.2857 (   217 PWs)   bands (ev):

    -9.4684  -9.4016  -9.4016  -8.7974  -8.7974  12.1464  31.3966  43.7883
    43.7883  48.3925  52.8629  54.4449  54.4449  60.4983

          k =-0.4286 0.4286-0.4286 (   226 PWs)   bands (ev):

    -9.9742  -9.6004  -9.6004  -9.2744  -9.2744  15.7611  24.4449  42.5136
    42.5136  48.1265  51.6353  53.1261  53.1261  64.3322

          k = 0.0000 0.2857 0.0000 (   218 PWs)   bands (ev):

    -9.5194  -9.3932  -9.3932  -8.9521  -8.7184   9.9899  42.7802  42.7857
    42.7857  46.9237  51.2302  58.5304  58.8944  58.8944

          k =-0.1429 0.4286-0.1429 (   219 PWs)   bands (ev):

    -9.5979  -9.3345  -9.3132  -9.2254  -8.9691  11.8792  34.5424  40.7069
    41.7974  47.2209  50.4549  57.9743  58.6599  58.8230

          k =-0.2857 0.5714-0.2857 (   221 PWs)   bands (ev):

    -9.6976  -9.5272  -9.1845  -9.1816  -9.0701  15.2003  27.0719  39.0973
    40.0238  46.2745  55.3825  56.5559  56.7216  58.2060

          k = 0.5714-0.2857 0.5714 (   225 PWs)   bands (ev):

    -9.8375  -9.6904  -9.5498  -9.2088  -9.2067  17.2624  23.9609  37.2002
    41.0220  46.6484  54.2473  54.9891  58.6988  62.8721

          k = 0.4286-0.1429 0.4286 (   217 PWs)   bands (ev):

    -9.4074  -9.2922  -9.1449  -9.1255  -9.0153  13.9713  29.4206  36.9070
    43.6542  48.3458  52.8719  54.5737  58.9967  59.7740

          k = 0.2857-0.0000 0.2857 (   216 PWs)   bands (ev):

    -9.5356  -9.3770  -9.1125  -8.9536  -8.8004  11.0723  36.7321  38.8043
    46.5080  50.4459  51.5154  54.4874  55.8725  57.6405

          k = 0.0000 0.5714 0.0000 (   218 PWs)   bands (ev):

    -9.8517  -9.6565  -9.1269  -9.1269  -8.7083  13.2241  35.1554  38.0943
    38.0943  45.1531  45.3183  63.2472  63.2472  65.3215

          k =-0.1429 0.7143-0.1429 (   221 PWs)   bands (ev):

   -10.0233  -9.5730  -9.2989  -9.1191  -8.9010  16.0529  29.7856  34.5053
    37.0325  44.4753  48.6250  61.4836  62.2160  66.0172

          k = 0.7143-0.1429 0.7143 (   224 PWs)   bands (ev):

    -9.8137  -9.4904  -9.4621  -9.3895  -9.3144  18.9495  25.9610  31.0268
    37.8441  44.8284  55.3503  59.4115  59.9230  65.5079

          k = 0.5714 0.0000 0.5714 (   222 PWs)   bands (ev):

    -9.5561  -9.4643  -9.4059  -9.3653  -9.2169  17.0190  28.6304  30.2102
    40.4052  46.2156  57.2041  58.1108  60.0230  60.1770

          k = 0.0000 0.8571 0.0000 (   222 PWs)   bands (ev):

   -10.1945  -9.5449  -9.3869  -9.3869  -8.7282  18.3223  26.9065  35.4183
    35.4183  43.4184  44.1718  64.4356  69.0326  69.0326

          k = 0.8571-0.0000 0.8571 (   222 PWs)   bands (ev):

    -9.8821  -9.4883  -9.4148  -9.2300  -9.1047  20.2554  25.2478  31.8636
    35.7159  43.8626  48.0318  62.7886  66.6077  67.9623

          k =-0.2857 0.5714 0.0000 (   219 PWs)   bands (ev):

    -9.6163  -9.4316  -9.2949  -9.1309  -9.0142  14.2489  31.8366  34.5351
    39.7312  49.0581  49.8702  55.6954  60.9726  63.6863

          k = 0.5714-0.2857 0.8571 (   226 PWs)   bands (ev):

    -9.7973  -9.7012  -9.6607  -9.3542  -9.1864  17.6073  26.5302  33.0680
    37.1304  48.6935  53.0960  56.6780  62.0010  62.5519

          k = 0.7143-0.1429 1.0000 (   216 PWs)   bands (ev):

    -9.4706  -9.4146  -9.0667  -9.0101  -8.9023  18.9283  27.3309  32.1161
    33.7913  48.1837  48.7706  58.7775  64.2177  68.7569

          k = 0.5714 0.0000 0.8571 (   217 PWs)   bands (ev):

    -9.3438  -9.2855  -9.1435  -9.1005  -9.0978  19.9657  27.7730  28.5245
    34.2470  49.1608  55.5125  56.2174  58.3744  66.2077

     the Fermi energy is    47.3419 ev

!    total energy              =   -1043.48421945 Ry
     Harris-Foulkes estimate   =   -1043.48421945 Ry
     estimated scf accuracy    <          1.7E-09 Ry

     total all-electron energy =    -48488.937192 Ry

     The total energy is the sum of the following terms:

     one-electron contribution =       3.82553009 Ry
     hartree contribution      =      26.62523510 Ry
     xc contribution           =     -63.32868200 Ry
     ewald contribution        =    -242.33311990 Ry
     one-center paw contrib.   =    -768.27300384 Ry
     smearing contrib. (-TS)   =      -0.00017890 Ry

     convergence has been achieved in   6 iterations

     Forces acting on atoms (cartesian axes, Ry/au):

     atom    1 type  1   force =     0.00000000    0.00000000    0.00000000

     Total force =     0.000000     Total SCF correction =     0.000000


     Computing stress (Cartesian axis) and pressure

          total   stress  (Ry/bohr**3)                   (kbar)     P=-5818.50
  -0.03955338   0.00000000   0.00000000      -5818.50      0.00      0.00
   0.00000000  -0.03955338  -0.00000000          0.00  -5818.50     -0.00
   0.00000000  -0.00000000  -0.03955338          0.00     -0.00  -5818.50


     Writing output data file Fr.save/

     init_run     :      0.18s CPU      0.19s WALL (       1 calls)
     electrons    :      1.18s CPU      1.25s WALL (       1 calls)
     forces       :      0.01s CPU      0.01s WALL (       1 calls)
     stress       :      0.03s CPU      0.03s WALL (       1 calls)

     Called by init_run:
     wfcinit      :      0.03s CPU      0.03s WALL (       1 calls)
     potinit      :      0.05s CPU      0.05s WALL (       1 calls)
     hinit0       :      0.10s CPU      0.10s WALL (       1 calls)

     Called by electrons:
     c_bands      :      0.80s CPU      0.86s WALL (       6 calls)
     sum_band     :      0.10s CPU      0.10s WALL (       6 calls)
     v_of_rho     :      0.00s CPU      0.00s WALL (       7 calls)
     newd         :      0.01s CPU      0.01s WALL (       7 calls)
     PAW_pot      :      0.31s CPU      0.31s WALL (       7 calls)
     mix_rho      :      0.00s CPU      0.00s WALL (       6 calls)

     Called by c_bands:
     init_us_2    :      0.01s CPU      0.01s WALL (     300 calls)
     cegterg      :      0.78s CPU      0.84s WALL (     120 calls)

     Called by sum_band:
     sum_band:bec :      0.00s CPU      0.00s WALL (     120 calls)
     addusdens    :      0.01s CPU      0.01s WALL (       6 calls)

     Called by *egterg:
     h_psi        :      0.48s CPU      0.51s WALL (     469 calls)
     s_psi        :      0.01s CPU      0.01s WALL (     469 calls)
     g_psi        :      0.00s CPU      0.00s WALL (     329 calls)
     cdiaghg      :      0.22s CPU      0.23s WALL (     449 calls)

     Called by h_psi:
     h_psi:pot    :      0.48s CPU      0.51s WALL (     469 calls)
     h_psi:calbec :      0.02s CPU      0.02s WALL (     469 calls)
     vloc_psi     :      0.44s CPU      0.47s WALL (     469 calls)
     add_vuspsi   :      0.01s CPU      0.01s WALL (     469 calls)

     General routines
     calbec       :      0.03s CPU      0.03s WALL (     689 calls)
     fft          :      0.00s CPU      0.00s WALL (      37 calls)
     ffts         :      0.00s CPU      0.00s WALL (       6 calls)
     fftw         :      0.47s CPU      0.50s WALL (   10968 calls)

     Parallel routines
     fft_scatt_xy :      0.04s CPU      0.04s WALL (   11011 calls)
     fft_scatt_yz :      0.18s CPU      0.19s WALL (   11011 calls)

     PWSCF        :     2.32s CPU         2.45s WALL


   This run was terminated on:  22:28:16   7Apr2024            

=------------------------------------------------------------------------------=
   JOB DONE.
=------------------------------------------------------------------------------=
