
     Program PWSCF v.6.3MaX starts on  7Apr2024 at 22:41:12 

     This program is part of the open-source Quantum ESPRESSO suite
     for quantum simulation of materials; please cite
         "P. Giannozzi et al., J. Phys.:Condens. Matter 21 395502 (2009);
         "P. Giannozzi et al., J. Phys.:Condens. Matter 29 465901 (2017);
          URL http://www.quantum-espresso.org", 
     in publications or presentations arising from this work. More details at
     http://www.quantum-espresso.org/quote

     Parallel version (MPI), running on     5 processors

     MPI processes distributed on     1 nodes
     R & G space division:  proc/nbgrp/npool/nimage =       5
     Waiting for input...
     Reading input from standard input

     Current dimensions of program PWSCF are:
     Max number of different atomic species (ntypx) = 10
     Max number of k-points (npk) =  40000
     Max angular momentum in pseudopotentials (lmaxx) =  3

     Subspace diagonalization in iterative solution of the eigenvalue problem:
     a serial algorithm will be used


     Parallelization info
     --------------------
     sticks:   dense  smooth     PW     G-vecs:    dense   smooth      PW
     Min          75      75     24                 1003     1003     187
     Max          76      76     25                 1007     1007     191
     Sum         379     379    121                 5029     5029     941



     bravais-lattice index     =            2
     lattice parameter (alat)  =       6.8300  a.u.
     unit-cell volume          =      79.6530 (a.u.)^3
     number of atoms/cell      =            1
     number of atomic types    =            1
     number of electrons       =        19.00
     number of Kohn-Sham states=           14
     kinetic-energy cutoff     =      60.0000  Ry
     charge density cutoff     =     240.0000  Ry
     convergence threshold     =      1.0E-08
     mixing beta               =       0.7000
     number of iterations used =            8  plain     mixing
     Exchange-correlation      = PBE ( 1  4  3  4 0 0)

     celldm(1)=   6.830000  celldm(2)=   0.000000  celldm(3)=   0.000000
     celldm(4)=   0.000000  celldm(5)=   0.000000  celldm(6)=   0.000000

     crystal axes: (cart. coord. in units of alat)
               a(1) = (  -0.500000   0.000000   0.500000 )  
               a(2) = (   0.000000   0.500000   0.500000 )  
               a(3) = (  -0.500000   0.500000   0.000000 )  

     reciprocal axes: (cart. coord. in units 2 pi/alat)
               b(1) = ( -1.000000 -1.000000  1.000000 )  
               b(2) = (  1.000000  1.000000  1.000000 )  
               b(3) = ( -1.000000  1.000000 -1.000000 )  


     PseudoPot. # 1 for Fr read from file:
     /home/lorenzo/pseudos/Fr/Fr.pbe-spdn-rrkjus_psl.1.0.0.UPF
     MD5 check sum: 07cabfa18982bd6b5b9d8ae5689d9732
     Pseudo is Ultrasoft + core correction, Zval = 19.0
     Generated using "atomic" code by A. Dal Corso v.6.2.2
     Using radial grid of 1287 points,  6 beta functions with: 
                l(1) =   0
                l(2) =   0
                l(3) =   1
                l(4) =   1
                l(5) =   2
                l(6) =   2
     Q(r) pseudized with 0 coefficients 


     atomic species   valence    mass     pseudopotential
        Fr            19.00   223.00000     Fr( 1.00)

     48 Sym. Ops., with inversion, found



   Cartesian axes

     site n.     atom                  positions (alat units)
         1           Fr  tau(   1) = (   0.0000000   0.0000000   0.0000000  )

     number of k points=    56  gaussian smearing, width (Ry)=  0.0100
                       cart. coord. in units 2pi/alat
        k(    1) = (   0.0000000   0.0000000   0.0000000), wk =   0.0015026
        k(    2) = (  -0.0909091   0.0909091  -0.0909091), wk =   0.0120210
        k(    3) = (  -0.1818182   0.1818182  -0.1818182), wk =   0.0120210
        k(    4) = (  -0.2727273   0.2727273  -0.2727273), wk =   0.0120210
        k(    5) = (  -0.3636364   0.3636364  -0.3636364), wk =   0.0120210
        k(    6) = (  -0.4545455   0.4545455  -0.4545455), wk =   0.0120210
        k(    7) = (   0.0000000   0.1818182   0.0000000), wk =   0.0090158
        k(    8) = (  -0.0909091   0.2727273  -0.0909091), wk =   0.0360631
        k(    9) = (  -0.1818182   0.3636364  -0.1818182), wk =   0.0360631
        k(   10) = (  -0.2727273   0.4545455  -0.2727273), wk =   0.0360631
        k(   11) = (  -0.3636364   0.5454545  -0.3636364), wk =   0.0360631
        k(   12) = (   0.5454545  -0.3636364   0.5454545), wk =   0.0360631
        k(   13) = (   0.4545455  -0.2727273   0.4545455), wk =   0.0360631
        k(   14) = (   0.3636364  -0.1818182   0.3636364), wk =   0.0360631
        k(   15) = (   0.2727273  -0.0909091   0.2727273), wk =   0.0360631
        k(   16) = (   0.1818182  -0.0000000   0.1818182), wk =   0.0180316
        k(   17) = (   0.0000000   0.3636364   0.0000000), wk =   0.0090158
        k(   18) = (  -0.0909091   0.4545455  -0.0909091), wk =   0.0360631
        k(   19) = (  -0.1818182   0.5454545  -0.1818182), wk =   0.0360631
        k(   20) = (  -0.2727273   0.6363636  -0.2727273), wk =   0.0360631
        k(   21) = (   0.6363636  -0.2727273   0.6363636), wk =   0.0360631
        k(   22) = (   0.5454545  -0.1818182   0.5454545), wk =   0.0360631
        k(   23) = (   0.4545455  -0.0909091   0.4545455), wk =   0.0360631
        k(   24) = (   0.3636364   0.0000000   0.3636364), wk =   0.0180316
        k(   25) = (   0.0000000   0.5454545   0.0000000), wk =   0.0090158
        k(   26) = (  -0.0909091   0.6363636  -0.0909091), wk =   0.0360631
        k(   27) = (  -0.1818182   0.7272727  -0.1818182), wk =   0.0360631
        k(   28) = (   0.7272727  -0.1818182   0.7272727), wk =   0.0360631
        k(   29) = (   0.6363636  -0.0909091   0.6363636), wk =   0.0360631
        k(   30) = (   0.5454545   0.0000000   0.5454545), wk =   0.0180316
        k(   31) = (   0.0000000   0.7272727   0.0000000), wk =   0.0090158
        k(   32) = (  -0.0909091   0.8181818  -0.0909091), wk =   0.0360631
        k(   33) = (   0.8181818  -0.0909091   0.8181818), wk =   0.0360631
        k(   34) = (   0.7272727   0.0000000   0.7272727), wk =   0.0180316
        k(   35) = (   0.0000000   0.9090909   0.0000000), wk =   0.0090158
        k(   36) = (   0.9090909  -0.0000000   0.9090909), wk =   0.0180316
        k(   37) = (  -0.1818182   0.3636364   0.0000000), wk =   0.0360631
        k(   38) = (  -0.2727273   0.4545455  -0.0909091), wk =   0.0721262
        k(   39) = (  -0.3636364   0.5454545  -0.1818182), wk =   0.0721262
        k(   40) = (   0.5454545  -0.3636364   0.7272727), wk =   0.0721262
        k(   41) = (  -0.1818182   0.5454545   0.0000000), wk =   0.0360631
        k(   42) = (  -0.2727273   0.6363636  -0.0909091), wk =   0.0721262
        k(   43) = (   0.6363636  -0.2727273   0.8181818), wk =   0.0721262
        k(   44) = (   0.5454545  -0.1818182   0.7272727), wk =   0.0721262
        k(   45) = (   0.4545455  -0.0909091   0.6363636), wk =   0.0721262
        k(   46) = (   0.3636364   0.0000000   0.5454545), wk =   0.0360631
        k(   47) = (  -0.1818182   0.7272727   0.0000000), wk =   0.0360631
        k(   48) = (   0.7272727  -0.1818182   0.9090909), wk =   0.0721262
        k(   49) = (   0.6363636  -0.0909091   0.8181818), wk =   0.0721262
        k(   50) = (   0.5454545   0.0000000   0.7272727), wk =   0.0360631
        k(   51) = (   0.8181818  -0.0909091   1.0000000), wk =   0.0360631
        k(   52) = (   0.7272727   0.0000000   0.9090909), wk =   0.0360631
        k(   53) = (   0.6363636  -0.2727273   1.0000000), wk =   0.0360631
        k(   54) = (   0.5454545  -0.1818182   0.9090909), wk =   0.0721262
        k(   55) = (   0.6363636  -0.0909091   1.0000000), wk =   0.0360631
        k(   56) = (   0.5454545   0.0000000   0.9090909), wk =   0.0360631

     Dense  grid:     5029 G-vectors     FFT dimensions: (  24,  24,  24)

     Estimated max dynamical RAM per process >       6.61 MB

     Estimated total dynamical RAM >      33.07 MB

     Check: negative/imaginary core charge=   -0.000002    0.000000

     Initial potential from superposition of free atoms

     starting charge   18.97009, renormalised to   19.00000
     Starting wfcs are   10 randomized atomic wfcs +    4 random wfcs

     total cpu time spent up to now is        1.2 secs

     Self-consistent Calculation

     iteration #  1     ecut=    60.00 Ry     beta= 0.70
     Davidson diagonalization with overlap
     ethr =  1.00E-02,  avg # of iterations =  4.6

     Threshold (ethr) on eigenvalues was too large:
     Diagonalizing with lowered threshold

     Davidson diagonalization with overlap
     ethr =  1.00E-04,  avg # of iterations =  2.0

     total cpu time spent up to now is        2.6 secs

     total energy              =    -282.83524392 Ry
     Harris-Foulkes estimate   =    -282.84685436 Ry
     estimated scf accuracy    <       0.01890243 Ry

     iteration #  2     ecut=    60.00 Ry     beta= 0.70
     Davidson diagonalization with overlap
     ethr =  9.95E-05,  avg # of iterations =  2.0

     total cpu time spent up to now is        3.2 secs

     total energy              =    -282.83803430 Ry
     Harris-Foulkes estimate   =    -282.83847728 Ry
     estimated scf accuracy    <       0.00065616 Ry

     iteration #  3     ecut=    60.00 Ry     beta= 0.70
     Davidson diagonalization with overlap
     ethr =  3.45E-06,  avg # of iterations =  2.3

     total cpu time spent up to now is        3.7 secs

     total energy              =    -282.83813776 Ry
     Harris-Foulkes estimate   =    -282.83815447 Ry
     estimated scf accuracy    <       0.00003915 Ry

     iteration #  4     ecut=    60.00 Ry     beta= 0.70
     Davidson diagonalization with overlap
     ethr =  2.06E-07,  avg # of iterations =  1.7

     total cpu time spent up to now is        4.2 secs

     total energy              =    -282.83814163 Ry
     Harris-Foulkes estimate   =    -282.83814161 Ry
     estimated scf accuracy    <       0.00000013 Ry

     iteration #  5     ecut=    60.00 Ry     beta= 0.70
     Davidson diagonalization with overlap
     ethr =  7.01E-10,  avg # of iterations =  2.6

     total cpu time spent up to now is        4.9 secs

     End of self-consistent calculation

          k = 0.0000 0.0000 0.0000 (   609 PWs)   bands (ev):

    -9.2740  -9.2740  -9.2740  -8.9331  -8.9331   9.4730  47.2948  47.2948
    47.2948  48.3119  53.8731  53.8731  53.8731  57.8187

          k =-0.0909 0.0909-0.0909 (   621 PWs)   bands (ev):

    -9.2714  -9.2484  -9.2484  -8.9341  -8.9341   9.8043  43.6520  46.7795
    46.7795  48.1963  54.7112  54.7112  55.7995  57.6608

          k =-0.1818 0.1818-0.1818 (   619 PWs)   bands (ev):

    -9.2646  -9.1987  -9.1987  -8.9125  -8.9125  10.8005  37.9891  45.6846
    45.6846  48.2227  54.7626  55.4701  55.4701  56.7665

          k =-0.2727 0.2727-0.2727 (   613 PWs)   bands (ev):

    -9.2603  -9.1828  -9.1828  -8.8320  -8.8320  12.4542  32.5255  44.5388
    44.5388  48.2244  53.0389  53.6531  53.6531  59.4830

          k =-0.3636 0.3636-0.3636 (   613 PWs)   bands (ev):

    -9.2600  -9.2007  -9.2007  -8.7246  -8.7246  14.6912  27.6576  43.6174
    43.6174  48.1590  51.8580  52.4440  52.4440  62.4896

          k =-0.4545 0.4545-0.4545 (   619 PWs)   bands (ev):

    -9.2623  -9.2179  -9.2179  -8.6539  -8.6539  17.0446  23.9663  43.1041
    43.1041  48.0742  51.3069  51.8541  51.8541  65.0313

          k = 0.0000 0.1818 0.0000 (   613 PWs)   bands (ev):

    -9.3002  -9.2222  -9.2222  -8.9597  -8.9112   9.9147  45.1311  45.1311
    45.6038  47.2924  54.2143  55.6141  56.2859  56.2859

          k =-0.0909 0.2727-0.0909 (   615 PWs)   bands (ev):

    -9.3101  -9.1679  -9.1631  -8.9764  -8.8809  10.6892  40.0310  43.6078
    45.1659  48.2490  51.5581  55.4999  57.9763  58.2642

          k =-0.1818 0.3636-0.1818 (   620 PWs)   bands (ev):

    -9.2976  -9.1499  -9.1326  -8.9331  -8.8072  12.1253  34.4955  42.4580
    43.9853  48.1186  51.8808  55.4458  56.5644  56.9156

          k =-0.2727 0.4545-0.2727 (   615 PWs)   bands (ev):

    -9.2798  -9.1726  -9.1440  -8.8306  -8.7082  14.1794  29.4373  41.8087
    42.5578  47.0951  53.3432  54.7413  54.8661  57.7447

          k =-0.3636 0.5455-0.3636 (   624 PWs)   bands (ev):

    -9.2663  -9.1970  -9.1670  -8.7312  -8.6469  16.5976  25.2679  41.2134
    41.7537  46.7316  53.3866  53.5952  54.3073  61.0163

          k = 0.5455-0.3636 0.5455 (   623 PWs)   bands (ev):

    -9.2498  -9.2109  -9.1779  -8.6775  -8.6570  17.7404  23.6871  40.2894
    42.3492  46.9684  52.5403  52.7951  55.1117  64.2823

          k = 0.4545-0.2727 0.4545 (   614 PWs)   bands (ev):

    -9.2373  -9.2077  -9.1695  -8.7395  -8.6870  15.7898  26.5246  39.9329
    43.5799  47.7426  51.9302  52.4650  56.2670  61.6510

          k = 0.3636-0.1818 0.3636 (   618 PWs)   bands (ev):

    -9.2486  -9.1810  -9.1514  -8.8622  -8.7529  13.4316  31.0633  40.1630
    45.3002  48.9388  51.5715  52.6333  57.7682  58.3431

          k = 0.2727-0.0909 0.2727 (   620 PWs)   bands (ev):

    -9.2660  -9.1682  -9.1597  -8.9524  -8.8394  11.5740  36.2968  40.9475
    47.0683  49.6988  52.0855  53.4257  55.5839  57.3642

          k = 0.1818-0.0000 0.1818 (   616 PWs)   bands (ev):

    -9.2758  -9.2163  -9.1972  -8.9578  -8.9014  10.3573  41.5185  42.5697
    47.7948  49.0513  54.0606  54.1720  55.1426  56.4406

          k = 0.0000 0.3636 0.0000 (   613 PWs)   bands (ev):

    -9.3696  -9.0792  -9.0792  -9.0357  -8.8528  11.2421  41.7752  41.7752
    41.8892  45.6968  48.6147  59.3523  59.8328  59.8328

          k =-0.0909 0.4545-0.0909 (   618 PWs)   bands (ev):

    -9.3886  -9.0956  -9.0170  -8.9761  -8.7918  12.4572  36.6675  40.4318
    41.2202  45.9481  47.9503  59.3021  59.8954  60.6585

          k =-0.1818 0.5455-0.1818 (   619 PWs)   bands (ev):

    -9.3663  -9.1296  -9.0152  -8.8937  -8.6970  14.3039  31.6247  39.2985
    39.6963  45.3316  51.0984  58.1998  58.4383  59.6228

          k =-0.2727 0.6364-0.2727 (   623 PWs)   bands (ev):

    -9.3304  -9.1304  -9.0383  -8.8344  -8.6376  16.6232  27.2607  37.4356
    39.6475  45.1339  55.1102  56.6715  57.0878  59.6087

          k = 0.6364-0.2727 0.6364 (   625 PWs)   bands (ev):

    -9.2960  -9.1200  -9.0578  -8.7875  -8.6543  18.4748  24.6094  36.0262
    40.3260  45.4417  55.5573  55.6092  59.6832  60.3712

          k = 0.5455-0.1818 0.5455 (   624 PWs)   bands (ev):

    -9.2557  -9.1365  -9.0613  -8.7504  -8.7477  17.3650  26.1802  35.2301
    41.7150  46.2522  54.6241  54.8749  60.9765  61.5311

          k = 0.4545-0.0909 0.4545 (   622 PWs)   bands (ev):

    -9.2109  -9.1830  -9.0474  -8.8866  -8.7399  15.0192  30.1908  35.1407
    43.7052  47.5904  53.5678  54.6084  57.8476  59.3577

          k = 0.3636 0.0000 0.3636 (   620 PWs)   bands (ev):

    -9.2362  -9.1742  -9.0634  -8.9833  -8.7719  12.9991  34.4519  36.3174
    45.9450  49.4553  51.9658  54.3537  55.1730  57.6515

          k = 0.0000 0.5455 0.0000 (   632 PWs)   bands (ev):

    -9.4614  -9.1434  -8.8895  -8.8895  -8.7753  13.4505  36.7366  38.8710
    38.8710  44.4135  45.1856  62.8802  62.8802  64.1238

          k =-0.0909 0.6364-0.0909 (   625 PWs)   bands (ev):

    -9.4743  -9.1867  -8.8531  -8.8098  -8.6948  15.0806  33.0830  36.7791
    37.9414  44.1825  46.2903  61.8168  62.6367  65.0717

          k =-0.1818 0.7273-0.1818 (   632 PWs)   bands (ev):

    -9.4333  -9.1809  -8.8720  -8.7890  -8.6298  17.2296  29.2433  34.2286
    37.7344  43.9969  50.0080  60.0971  61.0752  65.1422

          k = 0.7273-0.1818 0.7273 (   631 PWs)   bands (ev):

    -9.3754  -9.1005  -8.8962  -8.8297  -8.6453  19.3156  26.3651  32.2170
    38.2871  44.2380  54.4436  58.7783  59.5917  65.5192

          k = 0.6364-0.0909 0.6364 (   628 PWs)   bands (ev):

    -9.3188  -9.0066  -8.9131  -8.8840  -8.7401  19.1843  26.7398  30.9402
    39.5728  44.9130  57.8679  58.2764  59.0976  62.3590

          k = 0.5455 0.0000 0.5455 (   628 PWs)   bands (ev):

    -9.2612  -9.0802  -8.9305  -8.8689  -8.8046  17.0979  29.5214  31.0713
    41.4773  46.0389  56.3940  57.1077  58.7634  59.9884

          k = 0.0000 0.7273 0.0000 (   628 PWs)   bands (ev):

    -9.5440  -9.2519  -8.7081  -8.7081  -8.7012  16.4908  31.1280  36.7911
    36.7911  43.4947  43.5675  64.5416  66.4060  66.4060

          k =-0.0909 0.8182-0.0909 (   631 PWs)   bands (ev):

    -9.5396  -9.2722  -8.7221  -8.6694  -8.6223  18.4264  28.4886  34.4285
    36.3673  43.2827  45.4097  63.1787  65.7490  69.1488

          k = 0.8182-0.0909 0.8182 (   628 PWs)   bands (ev):

    -9.4732  -9.2229  -8.7475  -8.7122  -8.6275  20.3883  26.6947  31.2129
    36.7194  43.4331  49.4317  61.6610  64.1029  67.9654

          k = 0.7273 0.0000 0.7273 (   626 PWs)   bands (ev):

    -9.3925  -9.0912  -8.8237  -8.7944  -8.6967  20.6837  27.2454  28.7829
    37.8241  43.9707  54.1601  60.1214  62.0123  64.4353

          k = 0.0000 0.9091 0.0000 (   628 PWs)   bands (ev):

    -9.5933  -9.3178  -8.6577  -8.5985  -8.5985  20.0541  26.1630  35.7089
    35.7089  42.7867  43.1522  64.3924  70.2597  70.2634

          k = 0.9091-0.0000 0.9091 (   634 PWs)   bands (ev):

    -9.5641  -9.3051  -8.6710  -8.6151  -8.5976  21.1411  25.1999  33.7637
    35.8293  43.0044  45.1287  63.5977  68.3683  69.8409

          k =-0.1818 0.3636 0.0000 (   616 PWs)   bands (ev):

    -9.3225  -9.1303  -9.0871  -8.9997  -8.8262  11.6843  37.8959  39.4349
    45.2559  48.4146  49.6887  56.1970  56.7623  59.1892

          k =-0.2727 0.4545-0.0909 (   624 PWs)   bands (ev):

    -9.2994  -9.1480  -9.0542  -8.9438  -8.7499  13.3275  33.1250  37.9485
    43.4022  48.2076  51.4552  54.6327  57.0037  60.9320

          k =-0.3636 0.5455-0.1818 (   624 PWs)   bands (ev):

    -9.2643  -9.1815  -9.0671  -8.8378  -8.6872  15.5304  28.4335  37.4734
    41.4661  47.6154  52.3962  55.8651  57.4531  59.5839

          k = 0.5455-0.3636 0.7273 (   627 PWs)   bands (ev):

    -9.2388  -9.2102  -9.0726  -8.7638  -8.6606  17.8032  24.8829  37.4408
    40.2180  47.3065  51.9789  57.2215  58.2936  60.5399

          k =-0.1818 0.5455 0.0000 (   622 PWs)   bands (ev):

    -9.4016  -9.1353  -8.9634  -8.8947  -8.7324  13.8801  34.5348  36.7932
    40.0425  46.9659  47.2144  57.9952  61.2806  64.1928

          k =-0.2727 0.6364-0.0909 (   621 PWs)   bands (ev):

    -9.3627  -9.1564  -8.9666  -8.8230  -8.6773  15.8872  30.5591  35.2359
    38.2530  46.7396  50.5408  56.1908  61.8223  63.3983

          k = 0.6364-0.2727 0.8182 (   627 PWs)   bands (ev):

    -9.3110  -9.1394  -8.9645  -8.8263  -8.6514  18.1766  26.8459  34.2491
    37.4350  46.8077  53.9134  55.6498  61.4807  62.7009

          k = 0.5455-0.1818 0.7273 (   630 PWs)   bands (ev):

    -9.2697  -9.1306  -8.9322  -8.8642  -8.6760  19.1650  25.5429  33.3203
    37.9125  47.3204  53.5067  59.4611  60.4813  60.9594

          k = 0.4545-0.0909 0.6364 (   625 PWs)   bands (ev):

    -9.2267  -9.1707  -8.9667  -8.8302  -8.7356  17.3797  28.1423  32.8653
    39.3061  48.2797  52.8392  56.6630  59.7017  63.0194

          k = 0.3636 0.0000 0.5455 (   626 PWs)   bands (ev):

    -9.2459  -9.1815  -8.9875  -8.9035  -8.7318  15.1366  31.6838  33.7099
    41.2986  49.4246  51.5000  54.3212  58.7884  61.6983

          k =-0.1818 0.7273 0.0000 (   631 PWs)   bands (ev):

    -9.4755  -9.2215  -8.8346  -8.7108  -8.6651  16.8719  30.7047  34.8907
    36.0881  45.8565  45.9290  60.1361  66.1082  66.3671

          k = 0.7273-0.1818 0.9091 (   630 PWs)   bands (ev):

    -9.4144  -9.2013  -8.8580  -8.7203  -8.6343  19.0205  28.1811  32.2790
    35.4308  45.9214  49.7720  58.4196  64.5768  66.5837

          k = 0.6364-0.0909 0.8182 (   628 PWs)   bands (ev):

    -9.3426  -9.1012  -8.9091  -8.8045  -8.6487  20.4515  26.9121  30.0776
    36.0079  46.3865  54.3467  57.0600  61.4114  64.1530

          k = 0.5455 0.0000 0.7273 (   629 PWs)   bands (ev):

    -9.2816  -9.0364  -8.9674  -8.8384  -8.7214  19.4161  28.4388  29.1790
    37.3677  47.2711  55.4999  57.9372  59.2582  62.2907

          k = 0.8182-0.0909 1.0000 (   630 PWs)   bands (ev):

    -9.5194  -9.2784  -8.7202  -8.6565  -8.5989  20.2697  26.5037  33.8942
    34.4121  45.2306  45.4133  62.0368  66.7096  69.0700

          k = 0.7273 0.0000 0.9091 (   628 PWs)   bands (ev):

    -9.4338  -9.2216  -8.7736  -8.7370  -8.6014  21.2250  26.2312  31.0083
    34.7369  45.6577  49.5038  60.1047  63.6283  66.9970

          k = 0.6364-0.2727 1.0000 (   632 PWs)   bands (ev):

    -9.2882  -9.1812  -8.9697  -8.7294  -8.7168  17.9406  29.4718  31.8495
    36.1497  50.0471  50.3867  54.7508  64.1016  64.1947

          k = 0.5455-0.1818 0.9091 (   633 PWs)   bands (ev):

    -9.2214  -9.1583  -8.9810  -8.8155  -8.6489  19.9107  27.3256  30.9516
    34.8146  50.0514  52.7564  55.6882  59.9478  65.3441

          k = 0.6364-0.0909 1.0000 (   635 PWs)   bands (ev):

    -9.3164  -9.1936  -8.9132  -8.7633  -8.5994  20.7664  27.4605  30.8795
    32.9761  49.8010  50.1164  56.7285  61.0412  68.9153

          k = 0.5455 0.0000 0.9091 (   625 PWs)   bands (ev):

    -9.2267  -9.1070  -9.0386  -8.8094  -8.6004  21.1633  28.1910  28.9151
    33.1182  50.4925  54.5889  54.8648  57.2987  67.9695

     the Fermi energy is    46.8280 ev

!    total energy              =    -282.83814169 Ry
     Harris-Foulkes estimate   =    -282.83814169 Ry
     estimated scf accuracy    <          7.5E-09 Ry

     The total energy is the sum of the following terms:

     one-electron contribution =      -4.07946528 Ry
     hartree contribution      =      28.16569147 Ry
     xc contribution           =     -64.59071613 Ry
     ewald contribution        =    -242.33311991 Ry
     smearing contrib. (-TS)   =      -0.00053184 Ry

     convergence has been achieved in   5 iterations

     Forces acting on atoms (cartesian axes, Ry/au):

     atom    1 type  1   force =     0.00000000    0.00000000    0.00000000

     Total force =     0.000000     Total SCF correction =     0.000000


     Computing stress (Cartesian axis) and pressure

          total   stress  (Ry/bohr**3)                   (kbar)     P= 7196.98
   0.04892411   0.00000000   0.00000000       7196.98      0.00      0.00
   0.00000000   0.04892411   0.00000000          0.00   7196.98      0.00
   0.00000000  -0.00000000   0.04892411          0.00     -0.00   7196.98


     Writing output data file Fr.save/

     init_run     :      0.33s CPU      0.35s WALL (       1 calls)
     electrons    :      3.52s CPU      3.72s WALL (       1 calls)
     forces       :      0.06s CPU      0.06s WALL (       1 calls)
     stress       :      0.13s CPU      0.13s WALL (       1 calls)

     Called by init_run:
     wfcinit      :      0.16s CPU      0.17s WALL (       1 calls)
     potinit      :      0.01s CPU      0.01s WALL (       1 calls)
     hinit0       :      0.15s CPU      0.16s WALL (       1 calls)

     Called by electrons:
     c_bands      :      3.02s CPU      3.18s WALL (       6 calls)
     sum_band     :      0.46s CPU      0.49s WALL (       6 calls)
     v_of_rho     :      0.02s CPU      0.02s WALL (       6 calls)
     newd         :      0.03s CPU      0.03s WALL (       6 calls)
     mix_rho      :      0.00s CPU      0.00s WALL (       6 calls)

     Called by c_bands:
     init_us_2    :      0.07s CPU      0.07s WALL (     840 calls)
     cegterg      :      2.91s CPU      3.08s WALL (     336 calls)

     Called by sum_band:
     sum_band:bec :      0.00s CPU      0.00s WALL (     336 calls)
     addusdens    :      0.03s CPU      0.03s WALL (       6 calls)

     Called by *egterg:
     h_psi        :      2.00s CPU      2.13s WALL (    1242 calls)
     s_psi        :      0.06s CPU      0.07s WALL (    1242 calls)
     g_psi        :      0.01s CPU      0.01s WALL (     850 calls)
     cdiaghg      :      0.53s CPU      0.54s WALL (    1130 calls)

     Called by h_psi:
     h_psi:pot    :      1.99s CPU      2.12s WALL (    1242 calls)
     h_psi:calbec :      0.10s CPU      0.11s WALL (    1242 calls)
     vloc_psi     :      1.81s CPU      1.93s WALL (    1242 calls)
     add_vuspsi   :      0.07s CPU      0.07s WALL (    1242 calls)

     General routines
     calbec       :      0.17s CPU      0.18s WALL (    1858 calls)
     fft          :      0.01s CPU      0.01s WALL (      93 calls)
     ffts         :      0.00s CPU      0.00s WALL (       6 calls)
     fftw         :      2.01s CPU      2.15s WALL (   29832 calls)

     Parallel routines
     fft_scatt_xy :      0.17s CPU      0.18s WALL (   29931 calls)
     fft_scatt_yz :      0.71s CPU      0.76s WALL (   29931 calls)

     PWSCF        :     4.97s CPU         5.29s WALL


   This run was terminated on:  22:41:18   7Apr2024            

=------------------------------------------------------------------------------=
   JOB DONE.
=------------------------------------------------------------------------------=
