
     Program PWSCF v.6.3MaX starts on  7Apr2024 at 22:24:30 

     This program is part of the open-source Quantum ESPRESSO suite
     for quantum simulation of materials; please cite
         "P. Giannozzi et al., J. Phys.:Condens. Matter 21 395502 (2009);
         "P. Giannozzi et al., J. Phys.:Condens. Matter 29 465901 (2017);
          URL http://www.quantum-espresso.org", 
     in publications or presentations arising from this work. More details at
     http://www.quantum-espresso.org/quote

     Parallel version (MPI), running on     5 processors

     MPI processes distributed on     1 nodes
     R & G space division:  proc/nbgrp/npool/nimage =       5
     Waiting for input...
     Reading input from standard input

     Current dimensions of program PWSCF are:
     Max number of different atomic species (ntypx) = 10
     Max number of k-points (npk) =  40000
     Max angular momentum in pseudopotentials (lmaxx) =  3

     Subspace diagonalization in iterative solution of the eigenvalue problem:
     a serial algorithm will be used


     Parallelization info
     --------------------
     sticks:   dense  smooth     PW     G-vecs:    dense   smooth      PW
     Min          24      24     11                  187      187      51
     Max          25      25     11                  191      191      52
     Sum         121     121     55                  941      941     259



     bravais-lattice index     =            2
     lattice parameter (alat)  =       6.8300  a.u.
     unit-cell volume          =      79.6530 (a.u.)^3
     number of atoms/cell      =            1
     number of atomic types    =            1
     number of electrons       =        19.00
     number of Kohn-Sham states=           14
     kinetic-energy cutoff     =      20.0000  Ry
     charge density cutoff     =      80.0000  Ry
     convergence threshold     =      1.0E-08
     mixing beta               =       0.7000
     number of iterations used =            8  plain     mixing
     Exchange-correlation      = LDA ( 1  1  0  0 0 0)

     celldm(1)=   6.830000  celldm(2)=   0.000000  celldm(3)=   0.000000
     celldm(4)=   0.000000  celldm(5)=   0.000000  celldm(6)=   0.000000

     crystal axes: (cart. coord. in units of alat)
               a(1) = (  -0.500000   0.000000   0.500000 )  
               a(2) = (   0.000000   0.500000   0.500000 )  
               a(3) = (  -0.500000   0.500000   0.000000 )  

     reciprocal axes: (cart. coord. in units 2 pi/alat)
               b(1) = ( -1.000000 -1.000000  1.000000 )  
               b(2) = (  1.000000  1.000000  1.000000 )  
               b(3) = ( -1.000000  1.000000 -1.000000 )  


     PseudoPot. # 1 for Fr read from file:
     /home/lorenzo/pseudos/Fr/Fr.pz-spdn-rrkjus_psl.1.0.0.UPF
     MD5 check sum: 5665a43a3d1ea02b0b7dc7a0ae9ace04
     Pseudo is Ultrasoft + core correction, Zval = 19.0
     Generated using "atomic" code by A. Dal Corso v.6.2.2
     Using radial grid of 1287 points,  6 beta functions with: 
                l(1) =   0
                l(2) =   0
                l(3) =   1
                l(4) =   1
                l(5) =   2
                l(6) =   2
     Q(r) pseudized with 0 coefficients 


     atomic species   valence    mass     pseudopotential
        Fr            19.00   223.00000     Fr( 1.00)

     48 Sym. Ops., with inversion, found



   Cartesian axes

     site n.     atom                  positions (alat units)
         1           Fr  tau(   1) = (   0.0000000   0.0000000   0.0000000  )

     number of k points=    29  gaussian smearing, width (Ry)=  0.0100
                       cart. coord. in units 2pi/alat
        k(    1) = (   0.0000000   0.0000000   0.0000000), wk =   0.0039062
        k(    2) = (  -0.1250000   0.1250000  -0.1250000), wk =   0.0312500
        k(    3) = (  -0.2500000   0.2500000  -0.2500000), wk =   0.0312500
        k(    4) = (  -0.3750000   0.3750000  -0.3750000), wk =   0.0312500
        k(    5) = (   0.5000000  -0.5000000   0.5000000), wk =   0.0156250
        k(    6) = (   0.0000000   0.2500000   0.0000000), wk =   0.0234375
        k(    7) = (  -0.1250000   0.3750000  -0.1250000), wk =   0.0937500
        k(    8) = (  -0.2500000   0.5000000  -0.2500000), wk =   0.0937500
        k(    9) = (   0.6250000  -0.3750000   0.6250000), wk =   0.0937500
        k(   10) = (   0.5000000  -0.2500000   0.5000000), wk =   0.0937500
        k(   11) = (   0.3750000  -0.1250000   0.3750000), wk =   0.0937500
        k(   12) = (   0.2500000   0.0000000   0.2500000), wk =   0.0468750
        k(   13) = (   0.0000000   0.5000000   0.0000000), wk =   0.0234375
        k(   14) = (  -0.1250000   0.6250000  -0.1250000), wk =   0.0937500
        k(   15) = (   0.7500000  -0.2500000   0.7500000), wk =   0.0937500
        k(   16) = (   0.6250000  -0.1250000   0.6250000), wk =   0.0937500
        k(   17) = (   0.5000000   0.0000000   0.5000000), wk =   0.0468750
        k(   18) = (   0.0000000   0.7500000   0.0000000), wk =   0.0234375
        k(   19) = (   0.8750000  -0.1250000   0.8750000), wk =   0.0937500
        k(   20) = (   0.7500000   0.0000000   0.7500000), wk =   0.0468750
        k(   21) = (   0.0000000  -1.0000000   0.0000000), wk =   0.0117188
        k(   22) = (  -0.2500000   0.5000000   0.0000000), wk =   0.0937500
        k(   23) = (   0.6250000  -0.3750000   0.8750000), wk =   0.1875000
        k(   24) = (   0.5000000  -0.2500000   0.7500000), wk =   0.0937500
        k(   25) = (   0.7500000  -0.2500000   1.0000000), wk =   0.0937500
        k(   26) = (   0.6250000  -0.1250000   0.8750000), wk =   0.1875000
        k(   27) = (   0.5000000   0.0000000   0.7500000), wk =   0.0937500
        k(   28) = (  -0.2500000  -1.0000000   0.0000000), wk =   0.0468750
        k(   29) = (  -0.5000000  -1.0000000   0.0000000), wk =   0.0234375

     Dense  grid:      941 G-vectors     FFT dimensions: (  15,  15,  15)

     Estimated max dynamical RAM per process >       1.64 MB

     Estimated total dynamical RAM >       8.22 MB

     Check: negative/imaginary core charge=   -0.000219    0.000000

     Initial potential from superposition of free atoms

     starting charge   18.97647, renormalised to   19.00000
     Starting wfcs are   10 randomized atomic wfcs +    4 random wfcs

     total cpu time spent up to now is        1.0 secs

     Self-consistent Calculation

     iteration #  1     ecut=    20.00 Ry     beta= 0.70
     Davidson diagonalization with overlap
     ethr =  1.00E-02,  avg # of iterations =  4.6

     total cpu time spent up to now is        1.3 secs

     total energy              =    -272.13874111 Ry
     Harris-Foulkes estimate   =    -273.96137291 Ry
     estimated scf accuracy    <       2.31722963 Ry

     iteration #  2     ecut=    20.00 Ry     beta= 0.70
     Davidson diagonalization with overlap
     ethr =  1.00E-02,  avg # of iterations =  2.0

     total cpu time spent up to now is        1.5 secs

     total energy              =    -272.56410117 Ry
     Harris-Foulkes estimate   =    -272.67289248 Ry
     estimated scf accuracy    <       0.17710189 Ry

     iteration #  3     ecut=    20.00 Ry     beta= 0.70
     Davidson diagonalization with overlap
     ethr =  9.32E-04,  avg # of iterations =  2.0

     total cpu time spent up to now is        1.7 secs

     total energy              =    -272.59082625 Ry
     Harris-Foulkes estimate   =    -272.59847140 Ry
     estimated scf accuracy    <       0.01133265 Ry

     iteration #  4     ecut=    20.00 Ry     beta= 0.70
     Davidson diagonalization with overlap
     ethr =  5.96E-05,  avg # of iterations =  2.3

     total cpu time spent up to now is        1.8 secs

     total energy              =    -272.59213031 Ry
     Harris-Foulkes estimate   =    -272.59218340 Ry
     estimated scf accuracy    <       0.00008656 Ry

     iteration #  5     ecut=    20.00 Ry     beta= 0.70
     Davidson diagonalization with overlap
     ethr =  4.56E-07,  avg # of iterations =  2.3

     total cpu time spent up to now is        1.9 secs

     total energy              =    -272.59215146 Ry
     Harris-Foulkes estimate   =    -272.59215154 Ry
     estimated scf accuracy    <       0.00000080 Ry

     iteration #  6     ecut=    20.00 Ry     beta= 0.70
     Davidson diagonalization with overlap
     ethr =  4.23E-09,  avg # of iterations =  1.8

     total cpu time spent up to now is        2.1 secs

     total energy              =    -272.59215149 Ry
     Harris-Foulkes estimate   =    -272.59215153 Ry
     estimated scf accuracy    <       0.00000006 Ry

     iteration #  7     ecut=    20.00 Ry     beta= 0.70
     Davidson diagonalization with overlap
     ethr =  2.94E-10,  avg # of iterations =  2.0

     total cpu time spent up to now is        2.2 secs

     End of self-consistent calculation

          k = 0.0000 0.0000 0.0000 (   113 PWs)   bands (ev):

    -3.0706  -3.0706  -3.0706  -2.9561  -2.9561   8.3021  45.3270  45.3270
    45.3270  49.2096  56.2923  59.0807  59.0807  59.0807

          k =-0.1250 0.1250-0.1250 (   122 PWs)   bands (ev):

    -5.7569  -5.6837  -5.6837  -4.0245  -4.0245   8.9002  40.6496  44.7836
    44.7836  49.3448  56.2942  58.3183  58.3183  58.4996

          k =-0.2500 0.2500-0.2500 (   123 PWs)   bands (ev):

    -7.0044  -5.4306  -5.4306  -3.8111  -3.8111  10.7146  33.1798  43.4016
    43.4016  49.5782  54.0384  57.6254  57.6254  60.7512

          k =-0.3750 0.3750-0.3750 (   117 PWs)   bands (ev):

    -4.4943  -4.4943  -3.7958  -3.0817  -3.0817  13.6179  26.6678  42.0053
    42.0053  49.3991  53.9085  57.4003  57.4003  64.3657

          k = 0.5000-0.5000 0.5000 (   120 PWs)   bands (ev):

    -6.6517  -6.6517  -3.9492  -3.0491  -3.0491  15.8692  23.0824  41.4165
    41.4165  49.0203  53.9859  56.6239  56.6239  65.2859

          k = 0.0000 0.2500 0.0000 (   125 PWs)   bands (ev):

    -6.8159  -6.1841  -6.1841  -4.7451  -4.6549   9.0954  42.1334  42.9190
    42.9190  48.8736  53.7420  59.7325  59.7325  61.0152

          k =-0.1250 0.3750-0.1250 (   125 PWs)   bands (ev):

    -7.6654  -6.2179  -5.9115  -4.1114  -4.0771  10.5080  35.6958  41.1198
    42.1956  49.5485  51.8965  59.4581  60.0336  60.2057

          k =-0.2500 0.5000-0.2500 (   126 PWs)   bands (ev):

    -8.1928  -6.8394  -6.1188  -4.2593  -3.5552  13.0378  28.9608  40.0352
    40.2052  48.6241  55.0099  58.0997  59.1161  59.7062

          k = 0.6250-0.3750 0.6250 (   119 PWs)   bands (ev):

    -6.9747  -4.8825  -4.1341  -3.3515  -2.6496  15.8966  24.2136  38.4745
    40.1121  48.2575  56.3199  58.5896  59.4124  61.9901

          k = 0.5000-0.2500 0.5000 (   124 PWs)   bands (ev):

    -7.5116  -6.9226  -4.8775  -4.7242  -3.3136  15.0366  25.4602  37.5973
    41.4481  48.7885  55.2083  57.3880  60.1722  63.3680

          k = 0.3750-0.1250 0.3750 (   126 PWs)   bands (ev):

    -7.7468  -6.6967  -6.0384  -4.5669  -3.7238  12.0835  31.1133  37.9677
    43.7034  50.4007  53.2307  57.0067  59.7894  60.4665

          k = 0.2500 0.0000 0.2500 (   123 PWs)   bands (ev):

    -6.5087  -6.3008  -4.8638  -4.1825  -3.9308   9.9064  37.3903  40.2128
    45.3531  50.6554  53.4523  56.9283  58.6142  59.8336

          k = 0.0000 0.5000 0.0000 (   125 PWs)   bands (ev):

    -7.1929  -5.9355  -5.3613  -5.3613  -4.5656  11.4925  35.9875  38.8546
    38.8546  48.1418  48.5453  62.7336  62.7336  65.5956

          k =-0.1250 0.6250-0.1250 (   120 PWs)   bands (ev):

    -7.4888  -6.1402  -4.7016  -3.1769  -1.4861  13.6358  31.0901  36.5519
    37.5450  47.4621  50.3303  62.5218  62.7899  65.4096

          k = 0.7500-0.2500 0.7500 (   119 PWs)   bands (ev):

    -7.1479  -5.5267  -4.7207  -2.4685  -2.4251  16.3796  26.6337  33.8069
    37.5581  47.2253  55.6950  60.6153  61.3717  65.3102

          k = 0.6250-0.1250 0.6250 (   120 PWs)   bands (ev):

    -7.5496  -5.6312  -4.0066  -3.6637  -2.4755  16.9050  26.2123  31.9067
    39.0150  47.6834  58.9276  60.4676  60.5815  64.4496

          k = 0.5000 0.0000 0.5000 (   125 PWs)   bands (ev):

    -8.0052  -7.1109  -6.3036  -4.5315  -2.4012  14.4682  29.4810  32.4006
    41.4955  48.8152  56.1333  59.8594  60.0727  60.1189

          k = 0.0000 0.7500 0.0000 (   121 PWs)   bands (ev):

    -9.1330  -5.5751  -3.5663  -3.0915  -3.0915  15.3221  29.0862  35.8196
    35.8196  46.2672  47.2057  65.9066  67.4593  67.4593

          k = 0.8750-0.1250 0.8750 (   117 PWs)   bands (ev):

    -8.6081  -4.4298  -3.4589  -2.0178  -1.9839  17.6407  26.3546  33.0034
    35.4757  46.6319  49.6542  64.1662  66.1992  69.6276

          k = 0.7500 0.0000 0.7500 (   116 PWs)   bands (ev):

    -6.5937  -3.9502  -3.3385  -3.0387  -2.1495  18.3606  26.8644  29.5954
    36.6838  47.1285  55.4491  62.5539  64.0943  65.2464

          k = 0.0000-1.0000 0.0000 (   116 PWs)   bands (ev):

    -9.3707  -4.7558  -2.2892  -1.9287  -1.9287  18.6924  24.5848  34.6818
    34.6818  45.9161  46.9267  65.0679  70.3831  70.6313

          k =-0.2500 0.5000 0.0000 (   123 PWs)   bands (ev):

    -7.7159  -7.1730  -5.1063  -3.6330  -2.3707  12.2997  32.7788  36.2414
    41.1603  50.2763  51.2630  58.1158  61.9369  63.0414

          k = 0.6250-0.3750 0.8750 (   120 PWs)   bands (ev):

    -7.2021  -5.2043  -4.4924  -3.6410  -2.4860  15.0120  27.9246  34.4985
    39.0192  49.6246  55.1185  57.7223  62.0527  63.6116

          k = 0.5000-0.2500 0.7500 (   118 PWs)   bands (ev):

    -6.9226  -4.3611  -3.9707  -3.4685  -2.4574  16.9313  25.0528  34.3015
    37.8997  49.2777  56.0649  60.5944  62.8563  62.9809

          k = 0.7500-0.2500 1.0000 (   124 PWs)   bands (ev):

    -8.2478  -7.0007  -5.3184  -4.1565  -2.8238  15.9282  28.6087  33.4093
    35.6173  48.9328  50.4451  60.2737  65.8477  67.3779

          k = 0.6250-0.1250 0.8750 (   116 PWs)   bands (ev):

    -6.4823  -4.4829  -3.5688  -2.7974  -1.6650  18.0009  27.0041  30.7503
    35.0275  49.9477  55.5876  58.7521  62.4000  66.9900

          k = 0.5000 0.0000 0.7500 (   115 PWs)   bands (ev):

    -5.5744  -3.7530  -3.3712  -2.8771  -2.1419  17.3202  28.1583  29.8001
    36.5615  50.6039  56.9211  58.5028  61.3943  64.8309

          k =-0.2500-1.0000 0.0000 (   120 PWs)   bands (ev):

    -9.2287  -5.3671  -3.8577  -3.4542  -1.8344  18.6886  25.7156  32.3302
    33.6733  48.9230  49.9089  62.4182  64.8384  68.8143

          k =-0.5000-1.0000 0.0000 (   116 PWs)   bands (ev):

    -5.1380  -4.9932  -4.9932  -2.8531  -1.2908  18.7564  28.6632  28.6632
    32.8092  54.0062  56.3317  56.3317  58.3188  70.3609

     the Fermi energy is    48.9991 ev

!    total energy              =    -272.59215151 Ry
     Harris-Foulkes estimate   =    -272.59215151 Ry
     estimated scf accuracy    <          2.8E-11 Ry

     The total energy is the sum of the following terms:

     one-electron contribution =       9.79857883 Ry
     hartree contribution      =      21.75886810 Ry
     xc contribution           =     -61.81605141 Ry
     ewald contribution        =    -242.33311997 Ry
     smearing contrib. (-TS)   =      -0.00042705 Ry

     convergence has been achieved in   7 iterations

     Forces acting on atoms (cartesian axes, Ry/au):

     atom    1 type  1   force =     0.00000000    0.00000000    0.00000000

     Total force =     0.000000     Total SCF correction =     0.000000


     Computing stress (Cartesian axis) and pressure

          total   stress  (Ry/bohr**3)                   (kbar)     P=********
  -0.20673937   0.00000000  -0.00000000     -30412.41      0.00     -0.00
   0.00000000  -0.20673937   0.00000000          0.00 -30412.41      0.00
  -0.00000000   0.00000000  -0.20673937         -0.00      0.00 -30412.41


     Writing output data file Fr.save/

     init_run     :      0.11s CPU      0.12s WALL (       1 calls)
     electrons    :      1.05s CPU      1.18s WALL (       1 calls)
     forces       :      0.01s CPU      0.01s WALL (       1 calls)
     stress       :      0.05s CPU      0.05s WALL (       1 calls)

     Called by init_run:
     wfcinit      :      0.03s CPU      0.03s WALL (       1 calls)
     potinit      :      0.00s CPU      0.00s WALL (       1 calls)
     hinit0       :      0.08s CPU      0.08s WALL (       1 calls)

     Called by electrons:
     c_bands      :      0.95s CPU      1.05s WALL (       7 calls)
     sum_band     :      0.09s CPU      0.11s WALL (       7 calls)
     v_of_rho     :      0.00s CPU      0.00s WALL (       8 calls)
     newd         :      0.01s CPU      0.01s WALL (       8 calls)
     mix_rho      :      0.00s CPU      0.00s WALL (       7 calls)

     Called by c_bands:
     init_us_2    :      0.01s CPU      0.01s WALL (     493 calls)
     cegterg      :      0.93s CPU      1.03s WALL (     203 calls)

     Called by sum_band:
     sum_band:bec :      0.00s CPU      0.00s WALL (     203 calls)
     addusdens    :      0.01s CPU      0.01s WALL (       7 calls)

     Called by *egterg:
     h_psi        :      0.49s CPU      0.55s WALL (     728 calls)
     s_psi        :      0.01s CPU      0.01s WALL (     728 calls)
     g_psi        :      0.00s CPU      0.00s WALL (     496 calls)
     cdiaghg      :      0.33s CPU      0.36s WALL (     699 calls)

     Called by h_psi:
     h_psi:pot    :      0.49s CPU      0.55s WALL (     728 calls)
     h_psi:calbec :      0.02s CPU      0.03s WALL (     728 calls)
     vloc_psi     :      0.44s CPU      0.50s WALL (     728 calls)
     add_vuspsi   :      0.01s CPU      0.02s WALL (     728 calls)

     General routines
     calbec       :      0.05s CPU      0.06s WALL (    1076 calls)
     fft          :      0.00s CPU      0.00s WALL (      41 calls)
     ffts         :      0.00s CPU      0.00s WALL (       7 calls)
     fftw         :      0.47s CPU      0.53s WALL (   18112 calls)

     Parallel routines
     fft_scatt_xy :      0.05s CPU      0.05s WALL (   18160 calls)
     fft_scatt_yz :      0.22s CPU      0.24s WALL (   18160 calls)

     PWSCF        :     2.15s CPU         2.34s WALL


   This run was terminated on:  22:24:33   7Apr2024            

=------------------------------------------------------------------------------=
   JOB DONE.
=------------------------------------------------------------------------------=
