
     Program PWSCF v.6.3MaX starts on  7Apr2024 at 22:51:52 

     This program is part of the open-source Quantum ESPRESSO suite
     for quantum simulation of materials; please cite
         "P. Giannozzi et al., J. Phys.:Condens. Matter 21 395502 (2009);
         "P. Giannozzi et al., J. Phys.:Condens. Matter 29 465901 (2017);
          URL http://www.quantum-espresso.org", 
     in publications or presentations arising from this work. More details at
     http://www.quantum-espresso.org/quote

     Parallel version (MPI), running on     5 processors

     MPI processes distributed on     1 nodes
     R & G space division:  proc/nbgrp/npool/nimage =       5
     Waiting for input...
     Reading input from standard input

     Current dimensions of program PWSCF are:
     Max number of different atomic species (ntypx) = 10
     Max number of k-points (npk) =  40000
     Max angular momentum in pseudopotentials (lmaxx) =  3

     Subspace diagonalization in iterative solution of the eigenvalue problem:
     a serial algorithm will be used


     Parallelization info
     --------------------
     sticks:   dense  smooth     PW     G-vecs:    dense   smooth      PW
     Min          95      95     30                 1375     1375     248
     Max          95      95     31                 1376     1376     251
     Sum         475     475    151                 6879     6879    1243



     bravais-lattice index     =            2
     lattice parameter (alat)  =       6.8300  a.u.
     unit-cell volume          =      79.6530 (a.u.)^3
     number of atoms/cell      =            1
     number of atomic types    =            1
     number of electrons       =        19.00
     number of Kohn-Sham states=           14
     kinetic-energy cutoff     =      75.0000  Ry
     charge density cutoff     =     300.0000  Ry
     convergence threshold     =      1.0E-08
     mixing beta               =       0.7000
     number of iterations used =            8  plain     mixing
     Exchange-correlation      = PBE ( 1  4  3  4 0 0)

     celldm(1)=   6.830000  celldm(2)=   0.000000  celldm(3)=   0.000000
     celldm(4)=   0.000000  celldm(5)=   0.000000  celldm(6)=   0.000000

     crystal axes: (cart. coord. in units of alat)
               a(1) = (  -0.500000   0.000000   0.500000 )  
               a(2) = (   0.000000   0.500000   0.500000 )  
               a(3) = (  -0.500000   0.500000   0.000000 )  

     reciprocal axes: (cart. coord. in units 2 pi/alat)
               b(1) = ( -1.000000 -1.000000  1.000000 )  
               b(2) = (  1.000000  1.000000  1.000000 )  
               b(3) = ( -1.000000  1.000000 -1.000000 )  


     PseudoPot. # 1 for Fr read from file:
     /home/lorenzo/pseudos/Fr/Fr.pbe-spdn-rrkjus_psl.1.0.0.UPF
     MD5 check sum: 07cabfa18982bd6b5b9d8ae5689d9732
     Pseudo is Ultrasoft + core correction, Zval = 19.0
     Generated using "atomic" code by A. Dal Corso v.6.2.2
     Using radial grid of 1287 points,  6 beta functions with: 
                l(1) =   0
                l(2) =   0
                l(3) =   1
                l(4) =   1
                l(5) =   2
                l(6) =   2
     Q(r) pseudized with 0 coefficients 


     atomic species   valence    mass     pseudopotential
        Fr            19.00   223.00000     Fr( 1.00)

     48 Sym. Ops., with inversion, found



   Cartesian axes

     site n.     atom                  positions (alat units)
         1           Fr  tau(   1) = (   0.0000000   0.0000000   0.0000000  )

     number of k points=    29  gaussian smearing, width (Ry)=  0.0100
                       cart. coord. in units 2pi/alat
        k(    1) = (   0.0000000   0.0000000   0.0000000), wk =   0.0039062
        k(    2) = (  -0.1250000   0.1250000  -0.1250000), wk =   0.0312500
        k(    3) = (  -0.2500000   0.2500000  -0.2500000), wk =   0.0312500
        k(    4) = (  -0.3750000   0.3750000  -0.3750000), wk =   0.0312500
        k(    5) = (   0.5000000  -0.5000000   0.5000000), wk =   0.0156250
        k(    6) = (   0.0000000   0.2500000   0.0000000), wk =   0.0234375
        k(    7) = (  -0.1250000   0.3750000  -0.1250000), wk =   0.0937500
        k(    8) = (  -0.2500000   0.5000000  -0.2500000), wk =   0.0937500
        k(    9) = (   0.6250000  -0.3750000   0.6250000), wk =   0.0937500
        k(   10) = (   0.5000000  -0.2500000   0.5000000), wk =   0.0937500
        k(   11) = (   0.3750000  -0.1250000   0.3750000), wk =   0.0937500
        k(   12) = (   0.2500000   0.0000000   0.2500000), wk =   0.0468750
        k(   13) = (   0.0000000   0.5000000   0.0000000), wk =   0.0234375
        k(   14) = (  -0.1250000   0.6250000  -0.1250000), wk =   0.0937500
        k(   15) = (   0.7500000  -0.2500000   0.7500000), wk =   0.0937500
        k(   16) = (   0.6250000  -0.1250000   0.6250000), wk =   0.0937500
        k(   17) = (   0.5000000   0.0000000   0.5000000), wk =   0.0468750
        k(   18) = (   0.0000000   0.7500000   0.0000000), wk =   0.0234375
        k(   19) = (   0.8750000  -0.1250000   0.8750000), wk =   0.0937500
        k(   20) = (   0.7500000   0.0000000   0.7500000), wk =   0.0468750
        k(   21) = (   0.0000000  -1.0000000   0.0000000), wk =   0.0117188
        k(   22) = (  -0.2500000   0.5000000   0.0000000), wk =   0.0937500
        k(   23) = (   0.6250000  -0.3750000   0.8750000), wk =   0.1875000
        k(   24) = (   0.5000000  -0.2500000   0.7500000), wk =   0.0937500
        k(   25) = (   0.7500000  -0.2500000   1.0000000), wk =   0.0937500
        k(   26) = (   0.6250000  -0.1250000   0.8750000), wk =   0.1875000
        k(   27) = (   0.5000000   0.0000000   0.7500000), wk =   0.0937500
        k(   28) = (  -0.2500000  -1.0000000   0.0000000), wk =   0.0468750
        k(   29) = (  -0.5000000  -1.0000000   0.0000000), wk =   0.0234375

     Dense  grid:     6879 G-vectors     FFT dimensions: (  27,  27,  27)

     Estimated max dynamical RAM per process >       7.77 MB

     Estimated total dynamical RAM >      38.83 MB

     Initial potential from superposition of free atoms

     starting charge   18.97009, renormalised to   19.00000
     Starting wfcs are   10 randomized atomic wfcs +    4 random wfcs

     total cpu time spent up to now is        1.3 secs

     Self-consistent Calculation

     iteration #  1     ecut=    75.00 Ry     beta= 0.70
     Davidson diagonalization with overlap
     ethr =  1.00E-02,  avg # of iterations =  4.8

     Threshold (ethr) on eigenvalues was too large:
     Diagonalizing with lowered threshold

     Davidson diagonalization with overlap
     ethr =  1.07E-04,  avg # of iterations =  1.7

     total cpu time spent up to now is        2.3 secs

     total energy              =    -282.84152228 Ry
     Harris-Foulkes estimate   =    -282.85423117 Ry
     estimated scf accuracy    <       0.02021067 Ry

     iteration #  2     ecut=    75.00 Ry     beta= 0.70
     Davidson diagonalization with overlap
     ethr =  1.06E-04,  avg # of iterations =  2.0

     total cpu time spent up to now is        2.7 secs

     total energy              =    -282.84458240 Ry
     Harris-Foulkes estimate   =    -282.84502926 Ry
     estimated scf accuracy    <       0.00067513 Ry

     iteration #  3     ecut=    75.00 Ry     beta= 0.70
     Davidson diagonalization with overlap
     ethr =  3.55E-06,  avg # of iterations =  2.6

     total cpu time spent up to now is        3.1 secs

     total energy              =    -282.84468117 Ry
     Harris-Foulkes estimate   =    -282.84469882 Ry
     estimated scf accuracy    <       0.00003952 Ry

     iteration #  4     ecut=    75.00 Ry     beta= 0.70
     Davidson diagonalization with overlap
     ethr =  2.08E-07,  avg # of iterations =  1.7

     total cpu time spent up to now is        3.5 secs

     total energy              =    -282.84468464 Ry
     Harris-Foulkes estimate   =    -282.84468466 Ry
     estimated scf accuracy    <       0.00000013 Ry

     iteration #  5     ecut=    75.00 Ry     beta= 0.70
     Davidson diagonalization with overlap
     ethr =  6.63E-10,  avg # of iterations =  2.6

     total cpu time spent up to now is        3.9 secs

     End of self-consistent calculation

          k = 0.0000 0.0000 0.0000 (   893 PWs)   bands (ev):

    -9.3394  -9.3394  -9.3394  -8.9944  -8.9944   9.4609  47.2773  47.2773
    47.2773  48.3048  53.8600  53.8600  53.8600  57.8327

          k =-0.1250 0.1250-0.1250 (   893 PWs)   bands (ev):

    -9.3334  -9.2934  -9.2934  -8.9920  -8.9920  10.0875  41.5367  46.3820
    46.3820  48.1959  55.3649  55.3649  55.7543  56.8271

          k =-0.2500 0.2500-0.2500 (   881 PWs)   bands (ev):

    -9.3240  -9.2462  -9.2462  -8.9187  -8.9187  11.9678  33.8352  44.7923
    44.7923  48.2265  53.4261  54.0482  54.0482  58.7510

          k =-0.3750 0.3750-0.3750 (   869 PWs)   bands (ev):

    -9.3233  -9.2668  -9.2668  -8.7735  -8.7735  14.9842  27.1003  43.5068
    43.5068  48.1519  51.7415  52.3327  52.3327  62.8504

          k = 0.5000-0.5000 0.5000 (   862 PWs)   bands (ev):

    -9.3235  -9.2835  -9.2835  -8.7045  -8.7045  17.5401  23.2778  43.0161
    43.0161  48.0688  51.2224  51.7772  51.7772  65.4755

          k = 0.0000 0.2500 0.0000 (   889 PWs)   bands (ev):

    -9.3870  -9.2418  -9.2418  -9.0452  -8.9533  10.2961  43.8488  43.8488
    44.3709  46.6718  51.9383  56.8535  57.6910  57.6910

          k =-0.1250 0.3750-0.1250 (   873 PWs)   bands (ev):

    -9.3977  -9.1807  -9.1629  -9.0427  -8.8826  11.7595  36.6599  41.8993
    43.4048  47.5037  50.1173  56.5865  58.2303  58.5627

          k =-0.2500 0.5000-0.2500 (   876 PWs)   bands (ev):

    -9.3670  -9.2143  -9.1681  -8.9179  -8.7538  14.4206  29.6307  40.9452
    41.1737  46.2968  54.0864  55.8549  55.8738  57.1353

          k = 0.6250-0.3750 0.6250 (   869 PWs)   bands (ev):

    -9.3358  -9.2378  -9.1979  -8.7986  -8.7007  17.5821  24.4329  39.1878
    41.2094  46.1624  54.0267  54.1261  56.4944  60.9488

          k = 0.5000-0.2500 0.5000 (   873 PWs)   bands (ev):

    -9.2975  -9.2591  -9.2009  -8.7904  -8.7584  16.6149  25.8283  38.1824
    42.7721  47.0840  52.8401  53.2292  57.9379  61.9511

          k = 0.3750-0.1250 0.3750 (   877 PWs)   bands (ev):

    -9.3010  -9.2435  -9.1790  -8.9655  -8.8156  13.4097  31.8778  38.3554
    45.4027  49.0419  51.8075  53.1461  57.2822  58.8271

          k = 0.2500 0.0000 0.2500 (   887 PWs)   bands (ev):

    -9.3345  -9.2333  -9.2319  -9.0338  -8.9187  11.1330  38.6954  40.1324
    47.6955  49.9295  52.2931  53.9362  54.4424  56.7284

          k = 0.0000 0.5000 0.0000 (   881 PWs)   bands (ev):

    -9.5025  -9.1757  -9.0009  -9.0009  -8.8544  12.8038  38.0963  39.5147
    39.5147  44.6831  45.8476  62.0971  62.0971  62.8406

          k =-0.1250 0.6250-0.1250 (   868 PWs)   bands (ev):

    -9.5087  -9.2305  -8.9566  -8.8933  -8.7438  15.0622  32.4217  36.8287
    38.2557  44.3718  47.8355  60.6738  61.3702  63.6757

          k = 0.7500-0.2500 0.7500 (   866 PWs)   bands (ev):

    -9.4415  -9.1858  -8.9876  -8.8841  -8.6896  18.1499  27.1135  33.8681
    38.3586  44.3152  53.4589  58.5465  59.2303  63.9575

          k = 0.6250-0.1250 0.6250 (   870 PWs)   bands (ev):

    -9.3709  -9.0959  -9.0111  -8.9148  -8.7891  18.9185  26.2034  32.0242
    39.8678  45.0985  57.2195  57.4566  59.7150  62.5193

          k = 0.5000 0.0000 0.5000 (   883 PWs)   bands (ev):

    -9.2969  -9.1936  -9.0144  -8.9808  -8.8274  15.9730  30.4671  32.2509
    42.5561  46.7593  55.1577  56.5153  57.4364  59.3109

          k = 0.0000 0.7500 0.0000 (   870 PWs)   bands (ev):

    -9.6168  -9.3217  -8.7533  -8.7510  -8.7510  16.9062  30.4317  36.5858
    36.5858  43.3705  43.4801  64.5100  66.8856  66.8856

          k = 0.8750-0.1250 0.8750 (   873 PWs)   bands (ev):

    -9.5875  -9.3285  -8.7790  -8.7271  -8.6725  19.6238  27.1416  33.0319
    36.2957  43.2415  46.7319  62.7064  65.5154  69.3373

          k = 0.7500 0.0000 0.7500 (   874 PWs)   bands (ev):

    -9.4757  -9.1906  -8.8525  -8.8350  -8.7406  20.8585  26.8737  29.1582
    37.4601  43.7932  52.9261  60.5577  62.7789  65.0542

          k = 0.0000-1.0000 0.0000 (   846 PWs)   bands (ev):

    -9.6628  -9.3848  -8.7108  -8.6439  -8.6439  21.0793  24.9259  35.5593
    35.5593  42.7114  43.0882  64.3679  70.3510  71.3221

          k =-0.2500 0.5000 0.0000 (   866 PWs)   bands (ev):

    -9.3975  -9.1965  -9.0610  -9.0108  -8.8016  13.6218  34.1518  36.1976
    41.8895  48.8930  48.9531  55.4163  59.0824  61.9288

          k = 0.6250-0.3750 0.8750 (   873 PWs)   bands (ev):

    -9.3288  -9.2383  -9.0562  -8.8992  -8.7519  16.5464  28.5353  34.8053
    39.1844  48.2383  52.3315  55.2522  59.8244  62.5231

          k = 0.5000-0.2500 0.7500 (   870 PWs)   bands (ev):

    -9.2967  -9.2511  -9.0265  -8.8942  -8.7258  18.9007  25.0529  34.7589
    37.9679  47.9983  52.1960  60.0508  60.4750  61.1904

          k = 0.7500-0.2500 1.0000 (   863 PWs)   bands (ev):

    -9.4866  -9.2665  -8.9392  -8.7544  -8.7364  17.5937  29.8570  33.5643
    35.5083  47.3717  47.3751  58.1739  65.9929  66.0983

          k = 0.6250-0.1250 0.8750 (   873 PWs)   bands (ev):

    -9.3813  -9.1986  -8.9922  -8.8468  -8.6922  20.2562  27.1708  30.6951
    34.8298  47.7150  53.2288  56.1500  61.4018  65.6725

          k = 0.5000 0.0000 0.7500 (   872 PWs)   bands (ev):

    -9.3053  -9.1641  -9.0395  -8.8780  -8.7620  19.3274  28.5099  29.6003
    36.4040  48.8134  54.0640  56.3167  60.0155  63.3890

          k =-0.2500-1.0000 0.0000 (   876 PWs)   bands (ev):

    -9.5247  -9.3143  -8.8047  -8.7776  -8.6451  21.2325  25.9078  32.6366
    33.4982  46.8571  46.8578  60.6625  64.3518  68.4272

          k =-0.5000-1.0000 0.0000 (   876 PWs)   bands (ev):

    -9.2168  -9.1747  -9.1747  -8.8698  -8.6450  21.4007  28.6683  28.6683
    32.1280  53.3533  53.4735  53.4735  56.5059  70.1643

     the Fermi energy is    47.1518 ev

!    total energy              =    -282.84468469 Ry
     Harris-Foulkes estimate   =    -282.84468469 Ry
     estimated scf accuracy    <          6.6E-09 Ry

     The total energy is the sum of the following terms:

     one-electron contribution =      -4.05408726 Ry
     hartree contribution      =      28.12499388 Ry
     xc contribution           =     -64.58221084 Ry
     ewald contribution        =    -242.33311988 Ry
     smearing contrib. (-TS)   =      -0.00026060 Ry

     convergence has been achieved in   5 iterations

     Forces acting on atoms (cartesian axes, Ry/au):

     atom    1 type  1   force =     0.00000000    0.00000000    0.00000000

     Total force =     0.000000     Total SCF correction =     0.000000


     Computing stress (Cartesian axis) and pressure

          total   stress  (Ry/bohr**3)                   (kbar)     P= 7119.58
   0.04839795   0.00000000  -0.00000000       7119.58      0.00     -0.00
  -0.00000000   0.04839795   0.00000000         -0.00   7119.58      0.00
  -0.00000000   0.00000000   0.04839795         -0.00      0.00   7119.58


     Writing output data file Fr.save/

     init_run     :      0.30s CPU      0.31s WALL (       1 calls)
     electrons    :      2.51s CPU      2.62s WALL (       1 calls)
     forces       :      0.05s CPU      0.05s WALL (       1 calls)
     stress       :      0.13s CPU      0.13s WALL (       1 calls)

     Called by init_run:
     wfcinit      :      0.10s CPU      0.11s WALL (       1 calls)
     potinit      :      0.01s CPU      0.01s WALL (       1 calls)
     hinit0       :      0.17s CPU      0.18s WALL (       1 calls)

     Called by electrons:
     c_bands      :      2.08s CPU      2.17s WALL (       6 calls)
     sum_band     :      0.37s CPU      0.38s WALL (       6 calls)
     v_of_rho     :      0.02s CPU      0.02s WALL (       6 calls)
     newd         :      0.04s CPU      0.04s WALL (       6 calls)
     mix_rho      :      0.00s CPU      0.00s WALL (       6 calls)

     Called by c_bands:
     init_us_2    :      0.05s CPU      0.05s WALL (     435 calls)
     cegterg      :      2.02s CPU      2.10s WALL (     174 calls)

     Called by sum_band:
     sum_band:bec :      0.00s CPU      0.00s WALL (     174 calls)
     addusdens    :      0.04s CPU      0.04s WALL (       6 calls)

     Called by *egterg:
     h_psi        :      1.48s CPU      1.56s WALL (     650 calls)
     s_psi        :      0.04s CPU      0.05s WALL (     650 calls)
     g_psi        :      0.00s CPU      0.00s WALL (     447 calls)
     cdiaghg      :      0.28s CPU      0.29s WALL (     592 calls)

     Called by h_psi:
     h_psi:pot    :      1.47s CPU      1.55s WALL (     650 calls)
     h_psi:calbec :      0.07s CPU      0.07s WALL (     650 calls)
     vloc_psi     :      1.36s CPU      1.43s WALL (     650 calls)
     add_vuspsi   :      0.04s CPU      0.05s WALL (     650 calls)

     General routines
     calbec       :      0.11s CPU      0.11s WALL (     969 calls)
     fft          :      0.02s CPU      0.02s WALL (      93 calls)
     ffts         :      0.00s CPU      0.00s WALL (       6 calls)
     fftw         :      1.53s CPU      1.61s WALL (   15458 calls)

     Parallel routines
     fft_scatt_xy :      0.13s CPU      0.14s WALL (   15557 calls)
     fft_scatt_yz :      0.38s CPU      0.40s WALL (   15557 calls)

     PWSCF        :     3.98s CPU         4.17s WALL


   This run was terminated on:  22:51:56   7Apr2024            

=------------------------------------------------------------------------------=
   JOB DONE.
=------------------------------------------------------------------------------=
