
     Program PWSCF v.6.3MaX starts on  7Apr2024 at 22:36:39 

     This program is part of the open-source Quantum ESPRESSO suite
     for quantum simulation of materials; please cite
         "P. Giannozzi et al., J. Phys.:Condens. Matter 21 395502 (2009);
         "P. Giannozzi et al., J. Phys.:Condens. Matter 29 465901 (2017);
          URL http://www.quantum-espresso.org", 
     in publications or presentations arising from this work. More details at
     http://www.quantum-espresso.org/quote

     Parallel version (MPI), running on     5 processors

     MPI processes distributed on     1 nodes
     R & G space division:  proc/nbgrp/npool/nimage =       5
     Waiting for input...
     Reading input from standard input

     Current dimensions of program PWSCF are:
     Max number of different atomic species (ntypx) = 10
     Max number of k-points (npk) =  40000
     Max angular momentum in pseudopotentials (lmaxx) =  3

     Subspace diagonalization in iterative solution of the eigenvalue problem:
     a serial algorithm will be used


     Parallelization info
     --------------------
     sticks:   dense  smooth     PW     G-vecs:    dense   smooth      PW
     Min          62      62     21                  765      765     140
     Max          63      63     22                  770      770     141
     Sum         313     313    109                 3839     3839     701



     bravais-lattice index     =            2
     lattice parameter (alat)  =       6.8300  a.u.
     unit-cell volume          =      79.6530 (a.u.)^3
     number of atoms/cell      =            1
     number of atomic types    =            1
     number of electrons       =        19.00
     number of Kohn-Sham states=           14
     kinetic-energy cutoff     =      50.0000  Ry
     charge density cutoff     =     200.0000  Ry
     convergence threshold     =      1.0E-08
     mixing beta               =       0.7000
     number of iterations used =            8  plain     mixing
     Exchange-correlation      = LDA ( 1  1  0  0 0 0)

     celldm(1)=   6.830000  celldm(2)=   0.000000  celldm(3)=   0.000000
     celldm(4)=   0.000000  celldm(5)=   0.000000  celldm(6)=   0.000000

     crystal axes: (cart. coord. in units of alat)
               a(1) = (  -0.500000   0.000000   0.500000 )  
               a(2) = (   0.000000   0.500000   0.500000 )  
               a(3) = (  -0.500000   0.500000   0.000000 )  

     reciprocal axes: (cart. coord. in units 2 pi/alat)
               b(1) = ( -1.000000 -1.000000  1.000000 )  
               b(2) = (  1.000000  1.000000  1.000000 )  
               b(3) = ( -1.000000  1.000000 -1.000000 )  


     PseudoPot. # 1 for Fr read from file:
     /home/lorenzo/pseudos/Fr/Fr.pz-spdn-rrkjus_psl.1.0.0.UPF
     MD5 check sum: 5665a43a3d1ea02b0b7dc7a0ae9ace04
     Pseudo is Ultrasoft + core correction, Zval = 19.0
     Generated using "atomic" code by A. Dal Corso v.6.2.2
     Using radial grid of 1287 points,  6 beta functions with: 
                l(1) =   0
                l(2) =   0
                l(3) =   1
                l(4) =   1
                l(5) =   2
                l(6) =   2
     Q(r) pseudized with 0 coefficients 


     atomic species   valence    mass     pseudopotential
        Fr            19.00   223.00000     Fr( 1.00)

     48 Sym. Ops., with inversion, found



   Cartesian axes

     site n.     atom                  positions (alat units)
         1           Fr  tau(   1) = (   0.0000000   0.0000000   0.0000000  )

     number of k points=     3  gaussian smearing, width (Ry)=  0.0100
                       cart. coord. in units 2pi/alat
        k(    1) = (   0.0000000   0.0000000   0.0000000), wk =   0.2500000
        k(    2) = (   0.5000000  -0.5000000   0.5000000), wk =   1.0000000
        k(    3) = (   0.0000000  -1.0000000   0.0000000), wk =   0.7500000

     Dense  grid:     3839 G-vectors     FFT dimensions: (  24,  24,  24)

     Estimated max dynamical RAM per process >       4.22 MB

     Estimated total dynamical RAM >      21.11 MB

     Check: negative/imaginary core charge=   -0.000007    0.000000

     Initial potential from superposition of free atoms

     starting charge   18.97647, renormalised to   19.00000
     Starting wfcs are   10 randomized atomic wfcs +    4 random wfcs

     total cpu time spent up to now is        1.2 secs

     Self-consistent Calculation

     iteration #  1     ecut=    50.00 Ry     beta= 0.70
     Davidson diagonalization with overlap
     ethr =  1.00E-02,  avg # of iterations =  4.7

     Threshold (ethr) on eigenvalues was too large:
     Diagonalizing with lowered threshold

     Davidson diagonalization with overlap
     ethr =  4.87E-05,  avg # of iterations =  2.0

     total cpu time spent up to now is        1.2 secs

     total energy              =    -282.10850363 Ry
     Harris-Foulkes estimate   =    -282.11461186 Ry
     estimated scf accuracy    <       0.00927106 Ry

     iteration #  2     ecut=    50.00 Ry     beta= 0.70
     Davidson diagonalization with overlap
     ethr =  4.88E-05,  avg # of iterations =  2.0

     total cpu time spent up to now is        1.3 secs

     total energy              =    -282.10964560 Ry
     Harris-Foulkes estimate   =    -282.10985789 Ry
     estimated scf accuracy    <       0.00037106 Ry

     iteration #  3     ecut=    50.00 Ry     beta= 0.70
     Davidson diagonalization with overlap
     ethr =  1.95E-06,  avg # of iterations =  2.3

     total cpu time spent up to now is        1.3 secs

     total energy              =    -282.10968901 Ry
     Harris-Foulkes estimate   =    -282.10969678 Ry
     estimated scf accuracy    <       0.00001873 Ry

     iteration #  4     ecut=    50.00 Ry     beta= 0.70
     Davidson diagonalization with overlap
     ethr =  9.86E-08,  avg # of iterations =  2.3

     total cpu time spent up to now is        1.4 secs

     total energy              =    -282.10969088 Ry
     Harris-Foulkes estimate   =    -282.10969090 Ry
     estimated scf accuracy    <       0.00000017 Ry

     iteration #  5     ecut=    50.00 Ry     beta= 0.70
     Davidson diagonalization with overlap
     ethr =  8.85E-10,  avg # of iterations =  2.0

     total cpu time spent up to now is        1.4 secs

     End of self-consistent calculation

          k = 0.0000 0.0000 0.0000 (   531 PWs)   bands (ev):

    -9.2651  -9.2651  -9.2651  -8.9203  -8.9203   9.1594  46.9789  46.9789
    46.9789  48.0749  53.7183  53.7183  53.7183  57.4975

          k = 0.5000-0.5000 0.5000 (   476 PWs)   bands (ev):

    -9.2538  -9.2119  -9.2119  -8.6248  -8.6248  17.2295  23.0248  42.7430
    42.7430  47.7991  51.0414  51.6323  51.6323  65.1936

          k = 0.0000-1.0000 0.0000 (   468 PWs)   bands (ev):

    -9.5968  -9.3216  -8.6337  -8.5625  -8.5625  20.7462  24.6832  35.2976
    35.2976  42.4702  42.9718  64.1130  70.0574  71.0151

     the Fermi energy is    46.9375 ev

!    total energy              =    -282.10969090 Ry
     Harris-Foulkes estimate   =    -282.10969090 Ry
     estimated scf accuracy    <          1.3E-09 Ry

     The total energy is the sum of the following terms:

     one-electron contribution =      -4.26179436 Ry
     hartree contribution      =      28.42134780 Ry
     xc contribution           =     -63.93419613 Ry
     ewald contribution        =    -242.33311993 Ry
     smearing contrib. (-TS)   =      -0.00192828 Ry

     convergence has been achieved in   5 iterations

     Forces acting on atoms (cartesian axes, Ry/au):

     atom    1 type  1   force =     0.00000000    0.00000000    0.00000000

     Total force =     0.000000     Total SCF correction =     0.000000


     Computing stress (Cartesian axis) and pressure

          total   stress  (Ry/bohr**3)                   (kbar)     P= 7684.99
   0.05224152  -0.00000000  -0.00000000       7684.99     -0.00     -0.00
   0.00000000   0.05224152   0.00000000          0.00   7684.99      0.00
  -0.00000000  -0.00000000   0.05224152         -0.00     -0.00   7684.99


     Writing output data file Fr.save/

     init_run     :      0.16s CPU      0.16s WALL (       1 calls)
     electrons    :      0.21s CPU      0.23s WALL (       1 calls)
     forces       :      0.01s CPU      0.01s WALL (       1 calls)
     stress       :      0.04s CPU      0.04s WALL (       1 calls)

     Called by init_run:
     wfcinit      :      0.01s CPU      0.01s WALL (       1 calls)
     potinit      :      0.00s CPU      0.00s WALL (       1 calls)
     hinit0       :      0.13s CPU      0.13s WALL (       1 calls)

     Called by electrons:
     c_bands      :      0.14s CPU      0.16s WALL (       6 calls)
     sum_band     :      0.05s CPU      0.05s WALL (       6 calls)
     v_of_rho     :      0.00s CPU      0.00s WALL (       6 calls)
     newd         :      0.02s CPU      0.02s WALL (       6 calls)
     mix_rho      :      0.00s CPU      0.00s WALL (       6 calls)

     Called by c_bands:
     init_us_2    :      0.00s CPU      0.00s WALL (      45 calls)
     cegterg      :      0.14s CPU      0.15s WALL (      18 calls)

     Called by sum_band:
     sum_band:bec :      0.00s CPU      0.00s WALL (      18 calls)
     addusdens    :      0.02s CPU      0.02s WALL (       6 calls)

     Called by *egterg:
     h_psi        :      0.10s CPU      0.11s WALL (      67 calls)
     s_psi        :      0.00s CPU      0.00s WALL (      67 calls)
     g_psi        :      0.00s CPU      0.00s WALL (      46 calls)
     cdiaghg      :      0.03s CPU      0.03s WALL (      61 calls)

     Called by h_psi:
     h_psi:pot    :      0.10s CPU      0.11s WALL (      67 calls)
     h_psi:calbec :      0.00s CPU      0.00s WALL (      67 calls)
     vloc_psi     :      0.09s CPU      0.10s WALL (      67 calls)
     add_vuspsi   :      0.00s CPU      0.00s WALL (      67 calls)

     General routines
     calbec       :      0.01s CPU      0.01s WALL (     100 calls)
     fft          :      0.00s CPU      0.00s WALL (      34 calls)
     ffts         :      0.00s CPU      0.00s WALL (       6 calls)
     fftw         :      0.10s CPU      0.11s WALL (    1582 calls)

     Parallel routines
     fft_scatt_xy :      0.01s CPU      0.01s WALL (    1622 calls)
     fft_scatt_yz :      0.03s CPU      0.03s WALL (    1622 calls)

     PWSCF        :     1.42s CPU         1.48s WALL


   This run was terminated on:  22:36:41   7Apr2024            

=------------------------------------------------------------------------------=
   JOB DONE.
=------------------------------------------------------------------------------=
