
     Program PWSCF v.6.3MaX starts on  7Apr2024 at 22:54:30 

     This program is part of the open-source Quantum ESPRESSO suite
     for quantum simulation of materials; please cite
         "P. Giannozzi et al., J. Phys.:Condens. Matter 21 395502 (2009);
         "P. Giannozzi et al., J. Phys.:Condens. Matter 29 465901 (2017);
          URL http://www.quantum-espresso.org", 
     in publications or presentations arising from this work. More details at
     http://www.quantum-espresso.org/quote

     Parallel version (MPI), running on     5 processors

     MPI processes distributed on     1 nodes
     R & G space division:  proc/nbgrp/npool/nimage =       5
     Waiting for input...
     Reading input from standard input

     Current dimensions of program PWSCF are:
     Max number of different atomic species (ntypx) = 10
     Max number of k-points (npk) =  40000
     Max angular momentum in pseudopotentials (lmaxx) =  3
               file Fr.pz-spdn-kjpaw_psl.1.0.0.UPF: wavefunction(s)  6P renormalized

     Subspace diagonalization in iterative solution of the eigenvalue problem:
     a serial algorithm will be used


     Parallelization info
     --------------------
     sticks:   dense  smooth     PW     G-vecs:    dense   smooth      PW
     Min         102     102     32                 1545     1545     280
     Max         103     103     33                 1546     1546     283
     Sum         511     511    163                 7727     7727    1411



     bravais-lattice index     =            2
     lattice parameter (alat)  =       6.8300  a.u.
     unit-cell volume          =      79.6530 (a.u.)^3
     number of atoms/cell      =            1
     number of atomic types    =            1
     number of electrons       =        19.00
     number of Kohn-Sham states=           14
     kinetic-energy cutoff     =      80.0000  Ry
     charge density cutoff     =     320.0000  Ry
     convergence threshold     =      1.0E-08
     mixing beta               =       0.7000
     number of iterations used =            8  plain     mixing
     Exchange-correlation      = SLA PZ NOGX NOGC ( 1  1  0  0 0 0)

     celldm(1)=   6.830000  celldm(2)=   0.000000  celldm(3)=   0.000000
     celldm(4)=   0.000000  celldm(5)=   0.000000  celldm(6)=   0.000000

     crystal axes: (cart. coord. in units of alat)
               a(1) = (  -0.500000   0.000000   0.500000 )  
               a(2) = (   0.000000   0.500000   0.500000 )  
               a(3) = (  -0.500000   0.500000   0.000000 )  

     reciprocal axes: (cart. coord. in units 2 pi/alat)
               b(1) = ( -1.000000 -1.000000  1.000000 )  
               b(2) = (  1.000000  1.000000  1.000000 )  
               b(3) = ( -1.000000  1.000000 -1.000000 )  


     PseudoPot. # 1 for Fr read from file:
     /home/lorenzo/pseudos/Fr/Fr.pz-spdn-kjpaw_psl.1.0.0.UPF
     MD5 check sum: 60dafd115682613df3cc92ec23a62a32
     Pseudo is Projector augmented-wave + core cor, Zval = 19.0
     Generated using "atomic" code by A. Dal Corso v.6.2.2
     Shape of augmentation charge: PSQ
     Using radial grid of 1287 points,  6 beta functions with: 
                l(1) =   0
                l(2) =   0
                l(3) =   1
                l(4) =   1
                l(5) =   2
                l(6) =   2
     Q(r) pseudized with 0 coefficients 


     atomic species   valence    mass     pseudopotential
        Fr            19.00   223.00000     Fr( 1.00)

     48 Sym. Ops., with inversion, found



   Cartesian axes

     site n.     atom                  positions (alat units)
         1           Fr  tau(   1) = (   0.0000000   0.0000000   0.0000000  )

     number of k points=    16  gaussian smearing, width (Ry)=  0.0100
                       cart. coord. in units 2pi/alat
        k(    1) = (   0.0000000   0.0000000   0.0000000), wk =   0.0092593
        k(    2) = (  -0.1666667   0.1666667  -0.1666667), wk =   0.0740741
        k(    3) = (  -0.3333333   0.3333333  -0.3333333), wk =   0.0740741
        k(    4) = (   0.5000000  -0.5000000   0.5000000), wk =   0.0370370
        k(    5) = (   0.0000000   0.3333333   0.0000000), wk =   0.0555556
        k(    6) = (  -0.1666667   0.5000000  -0.1666667), wk =   0.2222222
        k(    7) = (   0.6666667  -0.3333333   0.6666667), wk =   0.2222222
        k(    8) = (   0.5000000  -0.1666667   0.5000000), wk =   0.2222222
        k(    9) = (   0.3333333   0.0000000   0.3333333), wk =   0.1111111
        k(   10) = (   0.0000000   0.6666667   0.0000000), wk =   0.0555556
        k(   11) = (   0.8333333  -0.1666667   0.8333333), wk =   0.2222222
        k(   12) = (   0.6666667  -0.0000000   0.6666667), wk =   0.1111111
        k(   13) = (   0.0000000  -1.0000000   0.0000000), wk =   0.0277778
        k(   14) = (   0.6666667  -0.3333333   1.0000000), wk =   0.2222222
        k(   15) = (   0.5000000  -0.1666667   0.8333333), wk =   0.2222222
        k(   16) = (  -0.3333333  -1.0000000   0.0000000), wk =   0.1111111

     Dense  grid:     7727 G-vectors     FFT dimensions: (  27,  27,  27)

     Estimated max dynamical RAM per process >       8.00 MB

     Estimated total dynamical RAM >      39.98 MB

     Initial potential from superposition of free atoms

     starting charge   18.97647, renormalised to   19.00000
     Starting wfcs are   10 randomized atomic wfcs +    4 random wfcs
     Checking if some PAW data can be deallocated... 

     total cpu time spent up to now is        1.4 secs

     Self-consistent Calculation

     iteration #  1     ecut=    80.00 Ry     beta= 0.70
     Davidson diagonalization with overlap
     ethr =  1.00E-02,  avg # of iterations =  4.5

     Threshold (ethr) on eigenvalues was too large:
     Diagonalizing with lowered threshold

     Davidson diagonalization with overlap
     ethr =  9.15E-05,  avg # of iterations =  2.2

     total cpu time spent up to now is        2.0 secs

     total energy              =   -1045.28607061 Ry
     Harris-Foulkes estimate   =   -1045.29837948 Ry
     estimated scf accuracy    <       0.01727099 Ry

     iteration #  2     ecut=    80.00 Ry     beta= 0.70
     Davidson diagonalization with overlap
     ethr =  9.09E-05,  avg # of iterations =  2.0

     total cpu time spent up to now is        2.3 secs

     total energy              =   -1045.28935596 Ry
     Harris-Foulkes estimate   =   -1045.28967531 Ry
     estimated scf accuracy    <       0.00059529 Ry

     iteration #  3     ecut=    80.00 Ry     beta= 0.70
     Davidson diagonalization with overlap
     ethr =  3.13E-06,  avg # of iterations =  2.5

     total cpu time spent up to now is        2.6 secs

     total energy              =   -1045.28943565 Ry
     Harris-Foulkes estimate   =   -1045.28943869 Ry
     estimated scf accuracy    <       0.00001720 Ry

     iteration #  4     ecut=    80.00 Ry     beta= 0.70
     Davidson diagonalization with overlap
     ethr =  9.05E-08,  avg # of iterations =  2.1

     total cpu time spent up to now is        3.0 secs

     total energy              =   -1045.28944028 Ry
     Harris-Foulkes estimate   =   -1045.28943973 Ry
     estimated scf accuracy    <       0.00000018 Ry

     iteration #  5     ecut=    80.00 Ry     beta= 0.70
     Davidson diagonalization with overlap
     ethr =  9.35E-10,  avg # of iterations =  2.3

     total cpu time spent up to now is        3.3 secs

     total energy              =   -1045.28944036 Ry
     Harris-Foulkes estimate   =   -1045.28944033 Ry
     estimated scf accuracy    <       0.00000002 Ry

     iteration #  6     ecut=    80.00 Ry     beta= 0.70
     Davidson diagonalization with overlap
     ethr =  1.22E-10,  avg # of iterations =  2.0

     total cpu time spent up to now is        3.6 secs

     End of self-consistent calculation

          k = 0.0000 0.0000 0.0000 (   941 PWs)   bands (ev):

    -9.4457  -9.4457  -9.4457  -9.0993  -9.0993   9.0957  46.8652  46.8652
    46.8652  48.0996  53.6865  53.6865  53.6865  57.5115

          k =-0.1667 0.1667-0.1667 (   947 PWs)   bands (ev):

    -9.4372  -9.3759  -9.3759  -9.0846  -9.0846  10.2088  38.5863  45.4800
    45.4800  47.9835  54.7938  55.5664  55.5664  56.1307

          k =-0.3333 0.3333-0.3333 (   956 PWs)   bands (ev):

    -9.4307  -9.3638  -9.3638  -8.9232  -8.9232  13.5029  28.8622  43.4903
    43.4903  47.9608  51.9041  52.5688  52.5688  61.1902

          k = 0.5000-0.5000 0.5000 (   960 PWs)   bands (ev):

    -9.4325  -9.3911  -9.3911  -8.8063  -8.8063  17.1274  22.9956  42.6375
    42.6375  47.8357  50.9675  51.5902  51.5902  65.1300

          k = 0.0000 0.3333 0.0000 (   962 PWs)   bands (ev):

    -9.5291  -9.2774  -9.2774  -9.1873  -9.0285  10.5791  41.9595  41.9595
    42.1685  45.7620  49.1980  58.4296  59.0595  59.0595

          k =-0.1667 0.5000-0.1667 (   965 PWs)   bands (ev):

    -9.5318  -9.2903  -9.2036  -9.0874  -8.8923  13.1582  32.5343  39.8435
    40.1392  45.5767  50.4314  57.8925  57.9358  58.7509

          k = 0.6667-0.3333 0.6667 (   972 PWs)   bands (ev):

    -9.4727  -9.3046  -9.2426  -8.9563  -8.7991  17.2767  24.9396  36.9886
    39.8904  45.2486  55.2723  55.2913  58.1742  58.7312

          k = 0.5000-0.1667 0.5000 (   969 PWs)   bands (ev):

    -9.4040  -9.3368  -9.2480  -8.9540  -8.8925  15.8830  27.0972  35.5739
    42.3019  46.6748  53.5205  54.0409  59.9672  60.3247

          k = 0.3333 0.0000 0.3333 (   949 PWs)   bands (ev):

    -9.4201  -9.3371  -9.2618  -9.1491  -8.9560  12.0572  35.1402  37.0052
    46.1613  49.9226  51.0962  53.7228  54.7455  57.0952

          k = 0.0000 0.6667 0.0000 (   962 PWs)   bands (ev):

    -9.6940  -9.3863  -8.9272  -8.9272  -8.8851  14.9988  32.5799  37.0343
    37.0343  43.6325  43.6952  64.3455  64.8767  64.8767

          k = 0.8333-0.1667 0.8333 (   966 PWs)   bands (ev):

    -9.6495  -9.3930  -8.9416  -8.8841  -8.7804  18.6288  27.5656  32.0604
    36.5191  43.3122  48.5895  61.2209  63.0484  68.3993

          k = 0.6667-0.0000 0.6667 (   961 PWs)   bands (ev):

    -9.5164  -9.1481  -9.0785  -9.0087  -8.9114  19.3686  28.0137  28.0485
    38.5310  44.3114  57.1630  58.7633  59.7584  62.3333

          k = 0.0000-1.0000 0.0000 (   982 PWs)   bands (ev):

    -9.7758  -9.4967  -8.8135  -8.7454  -8.7454  20.6261  24.6428  35.2275
    35.2275  42.4622  42.9388  64.0814  70.0333  70.9514

          k = 0.6667-0.3333 1.0000 (   958 PWs)   bands (ev):

    -9.4809  -9.3413  -9.1413  -8.9371  -8.8735  16.3085  30.1204  32.5758
    37.2571  49.2649  49.6779  54.5999  62.3856  64.7870

          k = 0.5000-0.1667 0.8333 (   960 PWs)   bands (ev):

    -9.3957  -9.3217  -9.1087  -9.0215  -8.8153  19.4475  26.0545  31.5066
    35.1861  49.1347  52.4437  58.1466  58.1885  63.9710

          k =-0.3333-1.0000 0.0000 (   970 PWs)   bands (ev):

    -9.5325  -9.3793  -9.0185  -8.9221  -8.7452  20.8497  26.3683  30.9539
    32.4820  48.7211  48.9101  58.0659  60.9441  68.4311

     the Fermi energy is    46.5641 ev

!    total energy              =   -1045.28944036 Ry
     Harris-Foulkes estimate   =   -1045.28944036 Ry
     estimated scf accuracy    <          8.4E-11 Ry

     total all-electron energy =    -48490.742413 Ry

     The total energy is the sum of the following terms:

     one-electron contribution =       1.41984532 Ry
     hartree contribution      =      28.24325299 Ry
     xc contribution           =     -63.90345326 Ry
     ewald contribution        =    -242.33311988 Ry
     one-center paw contrib.   =    -768.71564161 Ry
     smearing contrib. (-TS)   =      -0.00032392 Ry

     convergence has been achieved in   6 iterations

     Forces acting on atoms (cartesian axes, Ry/au):

     atom    1 type  1   force =     0.00000000    0.00000000    0.00000000

     Total force =     0.000000     Total SCF correction =     0.000000


     Computing stress (Cartesian axis) and pressure

          total   stress  (Ry/bohr**3)                   (kbar)     P= 7011.68
   0.04766442   0.00000000   0.00000000       7011.68      0.00      0.00
   0.00000000   0.04766442   0.00000000          0.00   7011.68      0.00
   0.00000000  -0.00000000   0.04766442          0.00     -0.00   7011.68


     Writing output data file Fr.save/

     init_run     :      0.43s CPU      0.44s WALL (       1 calls)
     electrons    :      2.14s CPU      2.21s WALL (       1 calls)
     forces       :      0.05s CPU      0.05s WALL (       1 calls)
     stress       :      0.15s CPU      0.15s WALL (       1 calls)

     Called by init_run:
     wfcinit      :      0.12s CPU      0.12s WALL (       1 calls)
     potinit      :      0.06s CPU      0.06s WALL (       1 calls)
     hinit0       :      0.24s CPU      0.24s WALL (       1 calls)

     Called by electrons:
     c_bands      :      1.45s CPU      1.51s WALL (       7 calls)
     sum_band     :      0.32s CPU      0.33s WALL (       7 calls)
     v_of_rho     :      0.01s CPU      0.01s WALL (       7 calls)
     newd         :      0.06s CPU      0.06s WALL (       7 calls)
     PAW_pot      :      0.35s CPU      0.35s WALL (       7 calls)
     mix_rho      :      0.00s CPU      0.00s WALL (       7 calls)

     Called by c_bands:
     init_us_2    :      0.04s CPU      0.04s WALL (     272 calls)
     cegterg      :      1.40s CPU      1.46s WALL (     112 calls)

     Called by sum_band:
     sum_band:bec :      0.00s CPU      0.00s WALL (     112 calls)
     addusdens    :      0.05s CPU      0.06s WALL (       7 calls)

     Called by *egterg:
     h_psi        :      1.06s CPU      1.10s WALL (     409 calls)
     s_psi        :      0.03s CPU      0.04s WALL (     409 calls)
     g_psi        :      0.00s CPU      0.00s WALL (     281 calls)
     cdiaghg      :      0.18s CPU      0.19s WALL (     377 calls)

     Called by h_psi:
     h_psi:pot    :      1.05s CPU      1.10s WALL (     409 calls)
     h_psi:calbec :      0.05s CPU      0.05s WALL (     409 calls)
     vloc_psi     :      0.97s CPU      1.01s WALL (     409 calls)
     add_vuspsi   :      0.03s CPU      0.04s WALL (     409 calls)

     General routines
     calbec       :      0.08s CPU      0.09s WALL (     601 calls)
     fft          :      0.01s CPU      0.01s WALL (      38 calls)
     ffts         :      0.01s CPU      0.01s WALL (       7 calls)
     fftw         :      1.10s CPU      1.14s WALL (    9784 calls)

     Parallel routines
     fft_scatt_xy :      0.09s CPU      0.10s WALL (    9829 calls)
     fft_scatt_yz :      0.29s CPU      0.30s WALL (    9829 calls)

     PWSCF        :     3.70s CPU         3.83s WALL


   This run was terminated on:  22:54:34   7Apr2024            

=------------------------------------------------------------------------------=
   JOB DONE.
=------------------------------------------------------------------------------=
