
     Program PWSCF v.6.3MaX starts on  7Apr2024 at 22:23:30 

     This program is part of the open-source Quantum ESPRESSO suite
     for quantum simulation of materials; please cite
         "P. Giannozzi et al., J. Phys.:Condens. Matter 21 395502 (2009);
         "P. Giannozzi et al., J. Phys.:Condens. Matter 29 465901 (2017);
          URL http://www.quantum-espresso.org", 
     in publications or presentations arising from this work. More details at
     http://www.quantum-espresso.org/quote

     Parallel version (MPI), running on     5 processors

     MPI processes distributed on     1 nodes
     R & G space division:  proc/nbgrp/npool/nimage =       5
     Waiting for input...
     Reading input from standard input

     Current dimensions of program PWSCF are:
     Max number of different atomic species (ntypx) = 10
     Max number of k-points (npk) =  40000
     Max angular momentum in pseudopotentials (lmaxx) =  3

     Subspace diagonalization in iterative solution of the eigenvalue problem:
     a serial algorithm will be used


     Parallelization info
     --------------------
     sticks:   dense  smooth     PW     G-vecs:    dense   smooth      PW
     Min          24      24      8                  187      187      36
     Max          25      25      9                  191      191      37
     Sum         121     121     43                  941      941     181



     bravais-lattice index     =            2
     lattice parameter (alat)  =       6.8300  a.u.
     unit-cell volume          =      79.6530 (a.u.)^3
     number of atoms/cell      =            1
     number of atomic types    =            1
     number of electrons       =        19.00
     number of Kohn-Sham states=           14
     kinetic-energy cutoff     =      20.0000  Ry
     charge density cutoff     =      80.0000  Ry
     convergence threshold     =      1.0E-08
     mixing beta               =       0.7000
     number of iterations used =            8  plain     mixing
     Exchange-correlation      = PBE ( 1  4  3  4 0 0)

     celldm(1)=   6.830000  celldm(2)=   0.000000  celldm(3)=   0.000000
     celldm(4)=   0.000000  celldm(5)=   0.000000  celldm(6)=   0.000000

     crystal axes: (cart. coord. in units of alat)
               a(1) = (  -0.500000   0.000000   0.500000 )  
               a(2) = (   0.000000   0.500000   0.500000 )  
               a(3) = (  -0.500000   0.500000   0.000000 )  

     reciprocal axes: (cart. coord. in units 2 pi/alat)
               b(1) = ( -1.000000 -1.000000  1.000000 )  
               b(2) = (  1.000000  1.000000  1.000000 )  
               b(3) = ( -1.000000  1.000000 -1.000000 )  


     PseudoPot. # 1 for Fr read from file:
     /home/lorenzo/pseudos/Fr/Fr.pbe-spdn-rrkjus_psl.1.0.0.UPF
     MD5 check sum: 07cabfa18982bd6b5b9d8ae5689d9732
     Pseudo is Ultrasoft + core correction, Zval = 19.0
     Generated using "atomic" code by A. Dal Corso v.6.2.2
     Using radial grid of 1287 points,  6 beta functions with: 
                l(1) =   0
                l(2) =   0
                l(3) =   1
                l(4) =   1
                l(5) =   2
                l(6) =   2
     Q(r) pseudized with 0 coefficients 


     atomic species   valence    mass     pseudopotential
        Fr            19.00   223.00000     Fr( 1.00)

     48 Sym. Ops., with inversion, found



   Cartesian axes

     site n.     atom                  positions (alat units)
         1           Fr  tau(   1) = (   0.0000000   0.0000000   0.0000000  )

     number of k points=     3  gaussian smearing, width (Ry)=  0.0100
                       cart. coord. in units 2pi/alat
        k(    1) = (   0.0000000   0.0000000   0.0000000), wk =   0.2500000
        k(    2) = (   0.5000000  -0.5000000   0.5000000), wk =   1.0000000
        k(    3) = (   0.0000000  -1.0000000   0.0000000), wk =   0.7500000

     Dense  grid:      941 G-vectors     FFT dimensions: (  15,  15,  15)

     Estimated max dynamical RAM per process >       1.51 MB

     Estimated total dynamical RAM >       7.55 MB

     Check: negative/imaginary core charge=   -0.000222    0.000000

     Initial potential from superposition of free atoms

     starting charge   18.97009, renormalised to   19.00000
     Starting wfcs are   10 randomized atomic wfcs +    4 random wfcs

     total cpu time spent up to now is        0.9 secs

     Self-consistent Calculation

     iteration #  1     ecut=    20.00 Ry     beta= 0.70
     Davidson diagonalization with overlap
     ethr =  1.00E-02,  avg # of iterations =  4.3

     total cpu time spent up to now is        1.0 secs

     total energy              =    -271.82224311 Ry
     Harris-Foulkes estimate   =    -273.62468611 Ry
     estimated scf accuracy    <       2.40966822 Ry

     iteration #  2     ecut=    20.00 Ry     beta= 0.70
     Davidson diagonalization with overlap
     ethr =  1.00E-02,  avg # of iterations =  2.0

     total cpu time spent up to now is        1.0 secs

     total energy              =    -272.31751673 Ry
     Harris-Foulkes estimate   =    -272.45342662 Ry
     estimated scf accuracy    <       0.26443464 Ry

     iteration #  3     ecut=    20.00 Ry     beta= 0.70
     Davidson diagonalization with overlap
     ethr =  1.39E-03,  avg # of iterations =  2.0

     total cpu time spent up to now is        1.0 secs

     total energy              =    -272.35148690 Ry
     Harris-Foulkes estimate   =    -272.35922874 Ry
     estimated scf accuracy    <       0.01677956 Ry

     iteration #  4     ecut=    20.00 Ry     beta= 0.70
     Davidson diagonalization with overlap
     ethr =  8.83E-05,  avg # of iterations =  2.0

     total cpu time spent up to now is        1.0 secs

     total energy              =    -272.35237423 Ry
     Harris-Foulkes estimate   =    -272.35240517 Ry
     estimated scf accuracy    <       0.00005395 Ry

     iteration #  5     ecut=    20.00 Ry     beta= 0.70
     Davidson diagonalization with overlap
     ethr =  2.84E-07,  avg # of iterations =  2.3

     total cpu time spent up to now is        1.0 secs

     total energy              =    -272.35239136 Ry
     Harris-Foulkes estimate   =    -272.35239141 Ry
     estimated scf accuracy    <       0.00000128 Ry

     iteration #  6     ecut=    20.00 Ry     beta= 0.70
     Davidson diagonalization with overlap
     ethr =  6.75E-09,  avg # of iterations =  1.7

     total cpu time spent up to now is        1.1 secs

     total energy              =    -272.35239146 Ry
     Harris-Foulkes estimate   =    -272.35239148 Ry
     estimated scf accuracy    <       0.00000004 Ry

     iteration #  7     ecut=    20.00 Ry     beta= 0.70
     Davidson diagonalization with overlap
     ethr =  2.12E-10,  avg # of iterations =  2.0

     total cpu time spent up to now is        1.1 secs

     End of self-consistent calculation

          k = 0.0000 0.0000 0.0000 (   113 PWs)   bands (ev):

    -2.7847  -2.7847  -2.7847  -2.5834  -2.5834   8.7806  45.8517  45.8517
    45.8517  49.4979  56.7268  59.4795  59.4795  59.4795

          k = 0.5000-0.5000 0.5000 (   120 PWs)   bands (ev):

    -6.2533  -6.2533  -3.6536  -2.7401  -2.7401  16.3778  23.5236  41.9115
    41.9115  49.3684  54.3929  57.0986  57.0986  65.7553

          k = 0.0000-1.0000 0.0000 (   116 PWs)   bands (ev):

    -9.0094  -4.3719  -1.9336  -1.6518  -1.6518  19.2215  25.0183  35.1675
    35.1675  46.3154  47.3254  65.5347  70.8212  71.0400

     the Fermi energy is    47.2840 ev

!    total energy              =    -272.35239146 Ry
     Harris-Foulkes estimate   =    -272.35239146 Ry
     estimated scf accuracy    <          2.2E-09 Ry

     The total energy is the sum of the following terms:

     one-electron contribution =      10.35265197 Ry
     hartree contribution      =      22.11480523 Ry
     xc contribution           =     -62.48480041 Ry
     ewald contribution        =    -242.33311997 Ry
     smearing contrib. (-TS)   =      -0.00192828 Ry

     convergence has been achieved in   7 iterations

     Forces acting on atoms (cartesian axes, Ry/au):

     atom    1 type  1   force =     0.00000000    0.00000000    0.00000000

     Total force =     0.000000     Total SCF correction =     0.000000


     Computing stress (Cartesian axis) and pressure

          total   stress  (Ry/bohr**3)                   (kbar)     P=********
  -0.19631382  -0.00000000  -0.00000000     -28878.75     -0.00     -0.00
  -0.00000000  -0.19631382   0.00000000         -0.00 -28878.75      0.00
  -0.00000000   0.00000000  -0.19631382         -0.00      0.00 -28878.75


     Writing output data file Fr.save/

     init_run     :      0.09s CPU      0.09s WALL (       1 calls)
     electrons    :      0.11s CPU      0.13s WALL (       1 calls)
     forces       :      0.00s CPU      0.00s WALL (       1 calls)
     stress       :      0.01s CPU      0.01s WALL (       1 calls)

     Called by init_run:
     wfcinit      :      0.00s CPU      0.00s WALL (       1 calls)
     potinit      :      0.00s CPU      0.00s WALL (       1 calls)
     hinit0       :      0.08s CPU      0.08s WALL (       1 calls)

     Called by electrons:
     c_bands      :      0.08s CPU      0.09s WALL (       7 calls)
     sum_band     :      0.02s CPU      0.02s WALL (       7 calls)
     v_of_rho     :      0.01s CPU      0.01s WALL (       8 calls)
     newd         :      0.01s CPU      0.01s WALL (       8 calls)
     mix_rho      :      0.00s CPU      0.00s WALL (       7 calls)

     Called by c_bands:
     init_us_2    :      0.00s CPU      0.00s WALL (      51 calls)
     cegterg      :      0.08s CPU      0.09s WALL (      21 calls)

     Called by sum_band:
     sum_band:bec :      0.00s CPU      0.00s WALL (      21 calls)
     addusdens    :      0.01s CPU      0.01s WALL (       7 calls)

     Called by *egterg:
     h_psi        :      0.04s CPU      0.05s WALL (      73 calls)
     s_psi        :      0.00s CPU      0.00s WALL (      73 calls)
     g_psi        :      0.00s CPU      0.00s WALL (      49 calls)
     cdiaghg      :      0.03s CPU      0.03s WALL (      70 calls)

     Called by h_psi:
     h_psi:pot    :      0.04s CPU      0.05s WALL (      73 calls)
     h_psi:calbec :      0.00s CPU      0.00s WALL (      73 calls)
     vloc_psi     :      0.04s CPU      0.04s WALL (      73 calls)
     add_vuspsi   :      0.00s CPU      0.00s WALL (      73 calls)

     General routines
     calbec       :      0.00s CPU      0.00s WALL (     109 calls)
     fft          :      0.00s CPU      0.00s WALL (     114 calls)
     ffts         :      0.00s CPU      0.00s WALL (       7 calls)
     fftw         :      0.04s CPU      0.05s WALL (    1858 calls)

     Parallel routines
     fft_scatt_xy :      0.00s CPU      0.01s WALL (    1979 calls)
     fft_scatt_yz :      0.02s CPU      0.02s WALL (    1979 calls)

     PWSCF        :     1.07s CPU         1.14s WALL


   This run was terminated on:  22:23:32   7Apr2024            

=------------------------------------------------------------------------------=
   JOB DONE.
=------------------------------------------------------------------------------=
