
     Program PWSCF v.6.3MaX starts on  7Apr2024 at 22:54:53 

     This program is part of the open-source Quantum ESPRESSO suite
     for quantum simulation of materials; please cite
         "P. Giannozzi et al., J. Phys.:Condens. Matter 21 395502 (2009);
         "P. Giannozzi et al., J. Phys.:Condens. Matter 29 465901 (2017);
          URL http://www.quantum-espresso.org", 
     in publications or presentations arising from this work. More details at
     http://www.quantum-espresso.org/quote

     Parallel version (MPI), running on     5 processors

     MPI processes distributed on     1 nodes
     R & G space division:  proc/nbgrp/npool/nimage =       5
     Waiting for input...
     Reading input from standard input

     Current dimensions of program PWSCF are:
     Max number of different atomic species (ntypx) = 10
     Max number of k-points (npk) =  40000
     Max angular momentum in pseudopotentials (lmaxx) =  3

     Subspace diagonalization in iterative solution of the eigenvalue problem:
     a serial algorithm will be used


     Parallelization info
     --------------------
     sticks:   dense  smooth     PW     G-vecs:    dense   smooth      PW
     Min         102     102     32                 1545     1545     280
     Max         103     103     33                 1546     1546     283
     Sum         511     511    163                 7727     7727    1411



     bravais-lattice index     =            2
     lattice parameter (alat)  =       6.8300  a.u.
     unit-cell volume          =      79.6530 (a.u.)^3
     number of atoms/cell      =            1
     number of atomic types    =            1
     number of electrons       =        19.00
     number of Kohn-Sham states=           14
     kinetic-energy cutoff     =      80.0000  Ry
     charge density cutoff     =     320.0000  Ry
     convergence threshold     =      1.0E-08
     mixing beta               =       0.7000
     number of iterations used =            8  plain     mixing
     Exchange-correlation      = LDA ( 1  1  0  0 0 0)

     celldm(1)=   6.830000  celldm(2)=   0.000000  celldm(3)=   0.000000
     celldm(4)=   0.000000  celldm(5)=   0.000000  celldm(6)=   0.000000

     crystal axes: (cart. coord. in units of alat)
               a(1) = (  -0.500000   0.000000   0.500000 )  
               a(2) = (   0.000000   0.500000   0.500000 )  
               a(3) = (  -0.500000   0.500000   0.000000 )  

     reciprocal axes: (cart. coord. in units 2 pi/alat)
               b(1) = ( -1.000000 -1.000000  1.000000 )  
               b(2) = (  1.000000  1.000000  1.000000 )  
               b(3) = ( -1.000000  1.000000 -1.000000 )  


     PseudoPot. # 1 for Fr read from file:
     /home/lorenzo/pseudos/Fr/Fr.pz-spdn-rrkjus_psl.1.0.0.UPF
     MD5 check sum: 5665a43a3d1ea02b0b7dc7a0ae9ace04
     Pseudo is Ultrasoft + core correction, Zval = 19.0
     Generated using "atomic" code by A. Dal Corso v.6.2.2
     Using radial grid of 1287 points,  6 beta functions with: 
                l(1) =   0
                l(2) =   0
                l(3) =   1
                l(4) =   1
                l(5) =   2
                l(6) =   2
     Q(r) pseudized with 0 coefficients 


     atomic species   valence    mass     pseudopotential
        Fr            19.00   223.00000     Fr( 1.00)

     48 Sym. Ops., with inversion, found



   Cartesian axes

     site n.     atom                  positions (alat units)
         1           Fr  tau(   1) = (   0.0000000   0.0000000   0.0000000  )

     number of k points=    20  gaussian smearing, width (Ry)=  0.0100
                       cart. coord. in units 2pi/alat
        k(    1) = (   0.0000000   0.0000000   0.0000000), wk =   0.0058309
        k(    2) = (  -0.1428571   0.1428571  -0.1428571), wk =   0.0466472
        k(    3) = (  -0.2857143   0.2857143  -0.2857143), wk =   0.0466472
        k(    4) = (  -0.4285714   0.4285714  -0.4285714), wk =   0.0466472
        k(    5) = (   0.0000000   0.2857143   0.0000000), wk =   0.0349854
        k(    6) = (  -0.1428571   0.4285714  -0.1428571), wk =   0.1399417
        k(    7) = (  -0.2857143   0.5714286  -0.2857143), wk =   0.1399417
        k(    8) = (   0.5714286  -0.2857143   0.5714286), wk =   0.1399417
        k(    9) = (   0.4285714  -0.1428571   0.4285714), wk =   0.1399417
        k(   10) = (   0.2857143  -0.0000000   0.2857143), wk =   0.0699708
        k(   11) = (   0.0000000   0.5714286   0.0000000), wk =   0.0349854
        k(   12) = (  -0.1428571   0.7142857  -0.1428571), wk =   0.1399417
        k(   13) = (   0.7142857  -0.1428571   0.7142857), wk =   0.1399417
        k(   14) = (   0.5714286   0.0000000   0.5714286), wk =   0.0699708
        k(   15) = (   0.0000000   0.8571429   0.0000000), wk =   0.0349854
        k(   16) = (   0.8571429  -0.0000000   0.8571429), wk =   0.0699708
        k(   17) = (  -0.2857143   0.5714286   0.0000000), wk =   0.1399417
        k(   18) = (   0.5714286  -0.2857143   0.8571429), wk =   0.2798834
        k(   19) = (   0.7142857  -0.1428571   1.0000000), wk =   0.1399417
        k(   20) = (   0.5714286   0.0000000   0.8571429), wk =   0.1399417

     Dense  grid:     7727 G-vectors     FFT dimensions: (  27,  27,  27)

     Estimated max dynamical RAM per process >       8.16 MB

     Estimated total dynamical RAM >      40.80 MB

     Initial potential from superposition of free atoms

     starting charge   18.97647, renormalised to   19.00000
     Starting wfcs are   10 randomized atomic wfcs +    4 random wfcs

     total cpu time spent up to now is        1.2 secs

     Self-consistent Calculation

     iteration #  1     ecut=    80.00 Ry     beta= 0.70
     Davidson diagonalization with overlap
     ethr =  1.00E-02,  avg # of iterations =  4.6

     Threshold (ethr) on eigenvalues was too large:
     Diagonalizing with lowered threshold

     Davidson diagonalization with overlap
     ethr =  9.88E-05,  avg # of iterations =  1.9

     total cpu time spent up to now is        1.8 secs

     total energy              =    -282.49718983 Ry
     Harris-Foulkes estimate   =    -282.51014314 Ry
     estimated scf accuracy    <       0.01864875 Ry

     iteration #  2     ecut=    80.00 Ry     beta= 0.70
     Davidson diagonalization with overlap
     ethr =  9.82E-05,  avg # of iterations =  2.0

     total cpu time spent up to now is        2.1 secs

     total energy              =    -282.50062465 Ry
     Harris-Foulkes estimate   =    -282.50117905 Ry
     estimated scf accuracy    <       0.00072332 Ry

     iteration #  3     ecut=    80.00 Ry     beta= 0.70
     Davidson diagonalization with overlap
     ethr =  3.81E-06,  avg # of iterations =  3.0

     total cpu time spent up to now is        2.4 secs

     total energy              =    -282.50076499 Ry
     Harris-Foulkes estimate   =    -282.50078109 Ry
     estimated scf accuracy    <       0.00002621 Ry

     iteration #  4     ecut=    80.00 Ry     beta= 0.70
     Davidson diagonalization with overlap
     ethr =  1.38E-07,  avg # of iterations =  2.0

     total cpu time spent up to now is        2.7 secs

     total energy              =    -282.50076811 Ry
     Harris-Foulkes estimate   =    -282.50076816 Ry
     estimated scf accuracy    <       0.00000010 Ry

     iteration #  5     ecut=    80.00 Ry     beta= 0.70
     Davidson diagonalization with overlap
     ethr =  5.38E-10,  avg # of iterations =  2.2

     total cpu time spent up to now is        3.1 secs

     End of self-consistent calculation

          k = 0.0000 0.0000 0.0000 (   941 PWs)   bands (ev):

    -9.5173  -9.5173  -9.5173  -9.1700  -9.1700   9.0935  46.8832  46.8832
    46.8832  48.0960  53.6738  53.6738  53.6738  57.5359

          k =-0.1429 0.1429-0.1429 (   947 PWs)   bands (ev):

    -9.5105  -9.4610  -9.4610  -9.1632  -9.1632   9.9110  40.0859  45.7925
    45.7925  47.9735  55.2464  55.5454  55.5454  56.1309

          k =-0.2857 0.2857-0.2857 (   953 PWs)   bands (ev):

    -9.5025  -9.4258  -9.4258  -9.0531  -9.0531  12.3542  31.4560  44.0039
    44.0039  47.9922  52.5581  53.2199  53.2199  59.6262

          k =-0.4286 0.4286-0.4286 (   963 PWs)   bands (ev):

    -9.5030  -9.4557  -9.4557  -8.9032  -8.9032  16.0266  24.5144  42.8132
    42.8132  47.8778  51.1231  51.7622  51.7622  64.1195

          k = 0.0000 0.2857 0.0000 (   950 PWs)   bands (ev):

    -9.5799  -9.3913  -9.3913  -9.2351  -9.1168  10.1831  42.8420  42.8420
    43.2387  46.1639  50.5829  57.3771  58.1723  58.1723

          k =-0.1429 0.4286-0.1429 (   957 PWs)   bands (ev):

    -9.5892  -9.3521  -9.3107  -9.2007  -9.0187  12.0877  34.6522  40.7756
    41.9015  46.4914  49.9703  57.0403  57.9524  58.3924

          k =-0.2857 0.5714-0.2857 (   965 PWs)   bands (ev):

    -9.5465  -9.3912  -9.3336  -9.0571  -8.8871  15.4473  27.1477  39.1719
    40.1434  45.5712  54.9434  55.4042  56.1122  57.4947

          k = 0.5714-0.2857 0.5714 (   961 PWs)   bands (ev):

    -9.5031  -9.4082  -9.3581  -8.9583  -8.9103  17.5704  23.9884  37.2774
    41.2055  46.0413  53.6366  53.8235  57.9943  62.6777

          k = 0.4286-0.1429 0.4286 (   958 PWs)   bands (ev):

    -9.4575  -9.4376  -9.3409  -9.0955  -8.9647  14.1964  29.4951  36.8844
    43.8812  47.8511  52.3153  53.2820  58.1823  59.4684

          k = 0.2857-0.0000 0.2857 (   949 PWs)   bands (ev):

    -9.5067  -9.4057  -9.3788  -9.2146  -9.0655  11.2730  36.9296  38.6087
    46.9460  50.2402  51.1132  53.5107  54.4346  56.7102

          k = 0.0000 0.5714 0.0000 (   966 PWs)   bands (ev):

    -9.7193  -9.3982  -9.0993  -9.0993  -8.9963  13.4465  35.5224  38.1802
    38.1802  44.0828  44.6505  63.0745  63.0746  64.4809

          k =-0.1429 0.7143-0.1429 (   975 PWs)   bands (ev):

    -9.7090  -9.4405  -9.0774  -9.0077  -8.8757  16.3169  30.0201  34.4142
    37.1531  43.6788  47.9043  60.7801  61.9076  65.5732

          k = 0.7143-0.1429 0.7143 (   960 PWs)   bands (ev):

    -9.6141  -9.3167  -9.1151  -9.0774  -8.8980  19.3222  25.9697  31.0061
    37.9751  44.0318  54.7699  58.6633  59.5455  65.0465

          k = 0.5714 0.0000 0.5714 (   963 PWs)   bands (ev):

    -9.5191  -9.2865  -9.1510  -9.0796  -9.0690  17.3111  28.7419  30.1416
    40.5231  45.4488  56.8684  57.2368  59.2576  60.0206

          k = 0.0000 0.8571 0.0000 (   970 PWs)   bands (ev):

    -9.8298  -9.5431  -8.8991  -8.8557  -8.8557  18.6216  27.0855  35.5754
    35.5754  42.6807  43.0526  64.1282  68.8886  68.8886

          k = 0.8571-0.0000 0.8571 (   961 PWs)   bands (ev):

    -9.7627  -9.5074  -8.9302  -8.8946  -8.8515  20.6817  25.2960  31.7876
    35.8690  42.9766  47.1951  62.4145  66.2842  67.9602

          k =-0.2857 0.5714 0.0000 (   968 PWs)   bands (ev):

    -9.5730  -9.3912  -9.2273  -9.1103  -8.9492  14.4813  32.0821  34.3961
    39.6697  48.7966  49.0435  54.8704  60.2738  63.2807

          k = 0.5714-0.2857 0.8571 (   964 PWs)   bands (ev):

    -9.4833  -9.4176  -9.1945  -9.0683  -8.9145  17.9218  26.5858  33.1289
    37.0190  48.3489  52.2106  56.1580  61.4693  62.2749

          k = 0.7143-0.1429 1.0000 (   964 PWs)   bands (ev):

    -9.6525  -9.4593  -9.0827  -8.9383  -8.8573  19.2703  27.4866  32.0558
    33.5992  47.6879  47.7007  58.1749  64.0150  68.3976

          k = 0.5714 0.0000 0.8571 (   965 PWs)   bands (ev):

    -9.5163  -9.3206  -9.2365  -9.0462  -8.8607  20.3987  27.7571  28.4726
    34.0778  48.5058  54.9139  55.4929  57.8925  65.9242

     the Fermi energy is    47.0194 ev

!    total energy              =    -282.50076815 Ry
     Harris-Foulkes estimate   =    -282.50076815 Ry
     estimated scf accuracy    <          1.3E-09 Ry

     The total energy is the sum of the following terms:

     one-electron contribution =      -4.47948925 Ry
     hartree contribution      =      28.20879922 Ry
     xc contribution           =     -63.89675534 Ry
     ewald contribution        =    -242.33311988 Ry
     smearing contrib. (-TS)   =      -0.00020291 Ry

     convergence has been achieved in   5 iterations

     Forces acting on atoms (cartesian axes, Ry/au):

     atom    1 type  1   force =     0.00000000    0.00000000    0.00000000

     Total force =     0.000000     Total SCF correction =     0.000000


     Computing stress (Cartesian axis) and pressure

          total   stress  (Ry/bohr**3)                   (kbar)     P= 6968.50
   0.04737094  -0.00000000   0.00000000       6968.50     -0.00      0.00
   0.00000000   0.04737094  -0.00000000          0.00   6968.50     -0.00
  -0.00000000  -0.00000000   0.04737094         -0.00     -0.00   6968.50


     Writing output data file Fr.save/

     init_run     :      0.27s CPU      0.28s WALL (       1 calls)
     electrons    :      1.84s CPU      1.91s WALL (       1 calls)
     forces       :      0.04s CPU      0.04s WALL (       1 calls)
     stress       :      0.13s CPU      0.13s WALL (       1 calls)

     Called by init_run:
     wfcinit      :      0.08s CPU      0.09s WALL (       1 calls)
     potinit      :      0.00s CPU      0.00s WALL (       1 calls)
     hinit0       :      0.17s CPU      0.17s WALL (       1 calls)

     Called by electrons:
     c_bands      :      1.52s CPU      1.57s WALL (       6 calls)
     sum_band     :      0.27s CPU      0.29s WALL (       6 calls)
     v_of_rho     :      0.00s CPU      0.00s WALL (       6 calls)
     newd         :      0.05s CPU      0.05s WALL (       6 calls)
     mix_rho      :      0.00s CPU      0.00s WALL (       6 calls)

     Called by c_bands:
     init_us_2    :      0.04s CPU      0.04s WALL (     300 calls)
     cegterg      :      1.47s CPU      1.52s WALL (     120 calls)

     Called by sum_band:
     sum_band:bec :      0.00s CPU      0.00s WALL (     120 calls)
     addusdens    :      0.04s CPU      0.05s WALL (       6 calls)

     Called by *egterg:
     h_psi        :      1.06s CPU      1.10s WALL (     455 calls)
     s_psi        :      0.04s CPU      0.04s WALL (     455 calls)
     g_psi        :      0.00s CPU      0.00s WALL (     315 calls)
     cdiaghg      :      0.20s CPU      0.21s WALL (     415 calls)

     Called by h_psi:
     h_psi:pot    :      1.05s CPU      1.10s WALL (     455 calls)
     h_psi:calbec :      0.05s CPU      0.06s WALL (     455 calls)
     vloc_psi     :      0.96s CPU      1.00s WALL (     455 calls)
     add_vuspsi   :      0.04s CPU      0.04s WALL (     455 calls)

     General routines
     calbec       :      0.08s CPU      0.09s WALL (     675 calls)
     fft          :      0.01s CPU      0.01s WALL (      34 calls)
     ffts         :      0.00s CPU      0.00s WALL (       6 calls)
     fftw         :      1.07s CPU      1.12s WALL (   10848 calls)

     Parallel routines
     fft_scatt_xy :      0.09s CPU      0.10s WALL (   10888 calls)
     fft_scatt_yz :      0.27s CPU      0.27s WALL (   10888 calls)

     PWSCF        :     3.17s CPU         3.30s WALL


   This run was terminated on:  22:54:56   7Apr2024            

=------------------------------------------------------------------------------=
   JOB DONE.
=------------------------------------------------------------------------------=
