
     Program PWSCF v.6.3MaX starts on  7Apr2024 at 22:26:11 

     This program is part of the open-source Quantum ESPRESSO suite
     for quantum simulation of materials; please cite
         "P. Giannozzi et al., J. Phys.:Condens. Matter 21 395502 (2009);
         "P. Giannozzi et al., J. Phys.:Condens. Matter 29 465901 (2017);
          URL http://www.quantum-espresso.org", 
     in publications or presentations arising from this work. More details at
     http://www.quantum-espresso.org/quote

     Parallel version (MPI), running on     5 processors

     MPI processes distributed on     1 nodes
     R & G space division:  proc/nbgrp/npool/nimage =       5
     Waiting for input...
     Reading input from standard input

     Current dimensions of program PWSCF are:
     Max number of different atomic species (ntypx) = 10
     Max number of k-points (npk) =  40000
     Max angular momentum in pseudopotentials (lmaxx) =  3
               file Fr.pz-spdn-kjpaw_psl.1.0.0.UPF: wavefunction(s)  6P renormalized

     Subspace diagonalization in iterative solution of the eigenvalue problem:
     a serial algorithm will be used


     Parallelization info
     --------------------
     sticks:   dense  smooth     PW     G-vecs:    dense   smooth      PW
     Min          32      32     12                  272      272      66
     Max          33      33     13                  273      273      67
     Sum         163     163     61                 1363     1363     331



     bravais-lattice index     =            2
     lattice parameter (alat)  =       6.8300  a.u.
     unit-cell volume          =      79.6530 (a.u.)^3
     number of atoms/cell      =            1
     number of atomic types    =            1
     number of electrons       =        19.00
     number of Kohn-Sham states=           14
     kinetic-energy cutoff     =      25.0000  Ry
     charge density cutoff     =     100.0000  Ry
     convergence threshold     =      1.0E-08
     mixing beta               =       0.7000
     number of iterations used =            8  plain     mixing
     Exchange-correlation      = SLA PZ NOGX NOGC ( 1  1  0  0 0 0)

     celldm(1)=   6.830000  celldm(2)=   0.000000  celldm(3)=   0.000000
     celldm(4)=   0.000000  celldm(5)=   0.000000  celldm(6)=   0.000000

     crystal axes: (cart. coord. in units of alat)
               a(1) = (  -0.500000   0.000000   0.500000 )  
               a(2) = (   0.000000   0.500000   0.500000 )  
               a(3) = (  -0.500000   0.500000   0.000000 )  

     reciprocal axes: (cart. coord. in units 2 pi/alat)
               b(1) = ( -1.000000 -1.000000  1.000000 )  
               b(2) = (  1.000000  1.000000  1.000000 )  
               b(3) = ( -1.000000  1.000000 -1.000000 )  


     PseudoPot. # 1 for Fr read from file:
     /home/lorenzo/pseudos/Fr/Fr.pz-spdn-kjpaw_psl.1.0.0.UPF
     MD5 check sum: 60dafd115682613df3cc92ec23a62a32
     Pseudo is Projector augmented-wave + core cor, Zval = 19.0
     Generated using "atomic" code by A. Dal Corso v.6.2.2
     Shape of augmentation charge: PSQ
     Using radial grid of 1287 points,  6 beta functions with: 
                l(1) =   0
                l(2) =   0
                l(3) =   1
                l(4) =   1
                l(5) =   2
                l(6) =   2
     Q(r) pseudized with 0 coefficients 


     atomic species   valence    mass     pseudopotential
        Fr            19.00   223.00000     Fr( 1.00)

     48 Sym. Ops., with inversion, found



   Cartesian axes

     site n.     atom                  positions (alat units)
         1           Fr  tau(   1) = (   0.0000000   0.0000000   0.0000000  )

     number of k points=    20  gaussian smearing, width (Ry)=  0.0100
                       cart. coord. in units 2pi/alat
        k(    1) = (   0.0000000   0.0000000   0.0000000), wk =   0.0058309
        k(    2) = (  -0.1428571   0.1428571  -0.1428571), wk =   0.0466472
        k(    3) = (  -0.2857143   0.2857143  -0.2857143), wk =   0.0466472
        k(    4) = (  -0.4285714   0.4285714  -0.4285714), wk =   0.0466472
        k(    5) = (   0.0000000   0.2857143   0.0000000), wk =   0.0349854
        k(    6) = (  -0.1428571   0.4285714  -0.1428571), wk =   0.1399417
        k(    7) = (  -0.2857143   0.5714286  -0.2857143), wk =   0.1399417
        k(    8) = (   0.5714286  -0.2857143   0.5714286), wk =   0.1399417
        k(    9) = (   0.4285714  -0.1428571   0.4285714), wk =   0.1399417
        k(   10) = (   0.2857143  -0.0000000   0.2857143), wk =   0.0699708
        k(   11) = (   0.0000000   0.5714286   0.0000000), wk =   0.0349854
        k(   12) = (  -0.1428571   0.7142857  -0.1428571), wk =   0.1399417
        k(   13) = (   0.7142857  -0.1428571   0.7142857), wk =   0.1399417
        k(   14) = (   0.5714286   0.0000000   0.5714286), wk =   0.0699708
        k(   15) = (   0.0000000   0.8571429   0.0000000), wk =   0.0349854
        k(   16) = (   0.8571429  -0.0000000   0.8571429), wk =   0.0699708
        k(   17) = (  -0.2857143   0.5714286   0.0000000), wk =   0.1399417
        k(   18) = (   0.5714286  -0.2857143   0.8571429), wk =   0.2798834
        k(   19) = (   0.7142857  -0.1428571   1.0000000), wk =   0.1399417
        k(   20) = (   0.5714286   0.0000000   0.8571429), wk =   0.1399417

     Dense  grid:     1363 G-vectors     FFT dimensions: (  15,  15,  15)

     Estimated max dynamical RAM per process >       2.02 MB

     Estimated total dynamical RAM >      10.12 MB

     Check: negative/imaginary core charge=   -0.000045    0.000000

     Initial potential from superposition of free atoms

     starting charge   18.97647, renormalised to   19.00000
     Starting wfcs are   10 randomized atomic wfcs +    4 random wfcs
     Checking if some PAW data can be deallocated... 

     total cpu time spent up to now is        1.1 secs

     Self-consistent Calculation

     iteration #  1     ecut=    25.00 Ry     beta= 0.70
     Davidson diagonalization with overlap
     ethr =  1.00E-02,  avg # of iterations =  4.8

     total cpu time spent up to now is        1.3 secs

     total energy              =   -1040.57714468 Ry
     Harris-Foulkes estimate   =   -1041.23243293 Ry
     estimated scf accuracy    <       0.76117654 Ry

     iteration #  2     ecut=    25.00 Ry     beta= 0.70
     Davidson diagonalization with overlap
     ethr =  4.01E-03,  avg # of iterations =  2.0

     total cpu time spent up to now is        1.5 secs

     total energy              =   -1040.74589466 Ry
     Harris-Foulkes estimate   =   -1040.76466132 Ry
     estimated scf accuracy    <       0.04357088 Ry

     iteration #  3     ecut=    25.00 Ry     beta= 0.70
     Davidson diagonalization with overlap
     ethr =  2.29E-04,  avg # of iterations =  2.0

     total cpu time spent up to now is        1.6 secs

     total energy              =   -1040.74919878 Ry
     Harris-Foulkes estimate   =   -1040.75013451 Ry
     estimated scf accuracy    <       0.00197535 Ry

     iteration #  4     ecut=    25.00 Ry     beta= 0.70
     Davidson diagonalization with overlap
     ethr =  1.04E-05,  avg # of iterations =  2.1

     total cpu time spent up to now is        1.7 secs

     total energy              =   -1040.74931220 Ry
     Harris-Foulkes estimate   =   -1040.74931231 Ry
     estimated scf accuracy    <       0.00000883 Ry

     iteration #  5     ecut=    25.00 Ry     beta= 0.70
     Davidson diagonalization with overlap
     ethr =  4.65E-08,  avg # of iterations =  2.2

     total cpu time spent up to now is        1.8 secs

     total energy              =   -1040.74931354 Ry
     Harris-Foulkes estimate   =   -1040.74931360 Ry
     estimated scf accuracy    <       0.00000032 Ry

     iteration #  6     ecut=    25.00 Ry     beta= 0.70
     Davidson diagonalization with overlap
     ethr =  1.66E-09,  avg # of iterations =  1.9

     total cpu time spent up to now is        2.0 secs

     End of self-consistent calculation

          k = 0.0000 0.0000 0.0000 (   169 PWs)   bands (ev):

    -9.5638  -9.5638  -9.1048  -9.1048  -9.1048   8.6465  46.0824  46.0824
    46.0824  48.5972  56.8356  56.8356  56.8356  56.8587

          k =-0.1429 0.1429-0.1429 (   168 PWs)   bands (ev):

    -9.4471  -9.4471  -8.8458  -8.8458  -8.4224   9.4492  39.9008  45.2470
    45.2470  48.6684  55.5396  57.1241  57.1242  58.2800

          k =-0.2857 0.2857-0.2857 (   162 PWs)   bands (ev):

    -8.6614  -8.6614  -8.1105  -7.4495  -7.4495  11.8547  31.3034  43.5082
    43.5082  48.8579  53.1775  55.5587  55.5587  61.3830

          k =-0.4286 0.4286-0.4286 (   162 PWs)   bands (ev):

    -9.0632  -7.9043  -7.9043  -7.4306  -7.4306  15.3977  24.4056  42.1902
    42.1902  48.4474  52.2061  54.8712  54.8712  64.5867

          k = 0.0000 0.2857 0.0000 (   165 PWs)   bands (ev):

    -9.3190  -9.0816  -8.5084  -8.5084  -7.8721   9.7154  42.2402  42.6592
    42.6592  47.5544  51.8379  59.4136  59.4136  59.6734

          k =-0.1429 0.4286-0.1429 (   162 PWs)   bands (ev):

    -8.7121  -8.5634  -7.9434  -7.6336  -7.6300  11.5876  34.3836  40.6219
    41.6491  47.9956  51.0520  58.8060  59.2450  59.3866

          k =-0.2857 0.5714-0.2857 (   164 PWs)   bands (ev):

    -8.7602  -8.2738  -8.2175  -7.7880  -7.4087  14.8509  27.0047  39.0340
    39.8599  47.0352  55.8498  57.4604  57.6478  59.0393

          k = 0.5714-0.2857 0.5714 (   168 PWs)   bands (ev):

    -9.0422  -8.9545  -8.7621  -8.1519  -7.6785  16.8192  23.9781  37.1199
    40.8350  47.2528  54.7823  56.5370  59.5020  63.1338

          k = 0.4286-0.1429 0.4286 (   166 PWs)   bands (ev):

    -8.9427  -8.6241  -8.5327  -8.0091  -7.6547  13.6406  29.3115  36.9006
    43.3830  48.8103  53.3434  55.8616  59.7820  59.8763

          k = 0.2857-0.0000 0.2857 (   164 PWs)   bands (ev):

    -9.1743  -8.5761  -8.2063  -8.0517  -7.9772  10.7874  36.4396  39.0050
    46.0028  50.7379  51.8102  55.3473  57.3285  58.2072

          k = 0.0000 0.5714 0.0000 (   166 PWs)   bands (ev):

    -9.2513  -8.5632  -8.4962  -7.6853  -7.6853  12.9137  34.7043  38.0073
    38.0073  46.1220  46.4201  63.4585  63.4585  66.1596

          k =-0.1429 0.7143-0.1429 (   167 PWs)   bands (ev):

    -8.9879  -8.7168  -8.3074  -7.8629  -7.3759  15.6882  29.5125  34.5949
    36.8936  45.5037  49.5365  62.0962  62.5681  66.5120

          k = 0.7143-0.1429 0.7143 (   173 PWs)   bands (ev):

    -9.3994  -9.3390  -8.5278  -8.4471  -8.3834  18.4107  25.9797  31.0716
    37.7126  45.6575  55.9239  60.2091  60.2700  65.5591

          k = 0.5714 0.0000 0.5714 (   168 PWs)   bands (ev):

    -8.9841  -8.8919  -8.1830  -8.1571  -7.8764  16.5976  28.4988  30.3309
    40.2835  46.9521  57.5962  58.9973  60.1911  60.9500

          k = 0.0000 0.8571 0.0000 (   170 PWs)   bands (ev):

    -8.8668  -8.7445  -8.5232  -8.0528  -8.0528  17.8828  26.7060  35.2694
    35.2694  44.1356  45.8479  64.7771  69.1723  69.1723

          k = 0.8571-0.0000 0.8571 (   170 PWs)   bands (ev):

    -8.8370  -8.6449  -8.3215  -8.3030  -8.2240  19.6412  25.2330  31.9505
    35.5622  44.8906  49.0155  63.2649  66.9210  67.9172

          k =-0.2857 0.5714 0.0000 (   168 PWs)   bands (ev):

    -9.0972  -8.6530  -8.3259  -8.2375  -8.0669  13.9190  31.5366  34.6532
    39.7760  49.4330  50.6900  56.4674  61.6823  63.9134

          k = 0.5714-0.2857 0.8571 (   169 PWs)   bands (ev):

    -9.0053  -8.7668  -8.5288  -8.2450  -7.9751  17.1697  26.4990  33.0232
    37.2568  49.1324  54.1166  57.2720  62.4704  63.0241

          k = 0.7143-0.1429 1.0000 (   171 PWs)   bands (ev):

    -9.2644  -8.6279  -8.5444  -8.4838  -8.1060  18.4207  27.1684  32.1700
    33.8845  48.5298  49.8636  59.2988  64.3257  69.0295

          k = 0.5714 0.0000 0.8571 (   169 PWs)   bands (ev):

    -8.9293  -8.9009  -8.1131  -8.0344  -7.9394  19.3489  27.7990  28.5617
    34.3747  49.8103  56.0206  56.8666  58.7750  66.5024

     the Fermi energy is    48.1166 ev

!    total energy              =   -1040.74931355 Ry
     Harris-Foulkes estimate   =   -1040.74931355 Ry
     estimated scf accuracy    <          2.1E-09 Ry

     total all-electron energy =    -48486.202287 Ry

     The total energy is the sum of the following terms:

     one-electron contribution =       7.32319180 Ry
     hartree contribution      =      24.84137306 Ry
     xc contribution           =     -62.74933926 Ry
     ewald contribution        =    -242.33311992 Ry
     one-center paw contrib.   =    -767.83123982 Ry
     smearing contrib. (-TS)   =      -0.00017943 Ry

     convergence has been achieved in   6 iterations

     Forces acting on atoms (cartesian axes, Ry/au):

     atom    1 type  1   force =     0.00000000    0.00000000    0.00000000

     Total force =     0.000000     Total SCF correction =     0.000000


     Computing stress (Cartesian axis) and pressure

          total   stress  (Ry/bohr**3)                   (kbar)     P=********
  -0.11429858  -0.00000000   0.00000000     -16813.90     -0.00      0.00
  -0.00000000  -0.11429858  -0.00000000         -0.00 -16813.90     -0.00
   0.00000000  -0.00000000  -0.11429858          0.00     -0.00 -16813.90


     Writing output data file Fr.save/

     init_run     :      0.18s CPU      0.19s WALL (       1 calls)
     electrons    :      0.80s CPU      0.88s WALL (       1 calls)
     forces       :      0.01s CPU      0.01s WALL (       1 calls)
     stress       :      0.03s CPU      0.03s WALL (       1 calls)

     Called by init_run:
     wfcinit      :      0.03s CPU      0.03s WALL (       1 calls)
     potinit      :      0.05s CPU      0.05s WALL (       1 calls)
     hinit0       :      0.10s CPU      0.10s WALL (       1 calls)

     Called by electrons:
     c_bands      :      0.48s CPU      0.53s WALL (       6 calls)
     sum_band     :      0.06s CPU      0.07s WALL (       6 calls)
     v_of_rho     :      0.00s CPU      0.00s WALL (       7 calls)
     newd         :      0.01s CPU      0.01s WALL (       7 calls)
     PAW_pot      :      0.30s CPU      0.30s WALL (       7 calls)
     mix_rho      :      0.00s CPU      0.00s WALL (       6 calls)

     Called by c_bands:
     init_us_2    :      0.01s CPU      0.01s WALL (     300 calls)
     cegterg      :      0.46s CPU      0.51s WALL (     120 calls)

     Called by sum_band:
     sum_band:bec :      0.00s CPU      0.00s WALL (     120 calls)
     addusdens    :      0.01s CPU      0.01s WALL (       6 calls)

     Called by *egterg:
     h_psi        :      0.24s CPU      0.27s WALL (     441 calls)
     s_psi        :      0.01s CPU      0.01s WALL (     441 calls)
     g_psi        :      0.00s CPU      0.00s WALL (     301 calls)
     cdiaghg      :      0.17s CPU      0.19s WALL (     421 calls)

     Called by h_psi:
     h_psi:pot    :      0.24s CPU      0.27s WALL (     441 calls)
     h_psi:calbec :      0.01s CPU      0.02s WALL (     441 calls)
     vloc_psi     :      0.21s CPU      0.24s WALL (     441 calls)
     add_vuspsi   :      0.01s CPU      0.01s WALL (     441 calls)

     General routines
     calbec       :      0.02s CPU      0.03s WALL (     661 calls)
     fft          :      0.00s CPU      0.00s WALL (      37 calls)
     ffts         :      0.00s CPU      0.00s WALL (       6 calls)
     fftw         :      0.23s CPU      0.26s WALL (   10746 calls)

     Parallel routines
     fft_scatt_xy :      0.03s CPU      0.03s WALL (   10789 calls)
     fft_scatt_yz :      0.09s CPU      0.10s WALL (   10789 calls)

     PWSCF        :     1.92s CPU         2.08s WALL


   This run was terminated on:  22:26:13   7Apr2024            

=------------------------------------------------------------------------------=
   JOB DONE.
=------------------------------------------------------------------------------=
