
     Program PWSCF v.6.3MaX starts on  7Apr2024 at 22:57:43 

     This program is part of the open-source Quantum ESPRESSO suite
     for quantum simulation of materials; please cite
         "P. Giannozzi et al., J. Phys.:Condens. Matter 21 395502 (2009);
         "P. Giannozzi et al., J. Phys.:Condens. Matter 29 465901 (2017);
          URL http://www.quantum-espresso.org", 
     in publications or presentations arising from this work. More details at
     http://www.quantum-espresso.org/quote

     Parallel version (MPI), running on     5 processors

     MPI processes distributed on     1 nodes
     R & G space division:  proc/nbgrp/npool/nimage =       5
     Waiting for input...
     Reading input from standard input

     Current dimensions of program PWSCF are:
     Max number of different atomic species (ntypx) = 10
     Max number of k-points (npk) =  40000
     Max angular momentum in pseudopotentials (lmaxx) =  3
               file Fr.pbe-spdn-kjpaw_psl.1.0.0.UPF: wavefunction(s)  6P renormalized

     Subspace diagonalization in iterative solution of the eigenvalue problem:
     a serial algorithm will be used


     Parallelization info
     --------------------
     sticks:   dense  smooth     PW     G-vecs:    dense   smooth      PW
     Min         109     109     32                 1678     1678     290
     Max         110     110     33                 1680     1680     293
     Sum         547     547    163                 8393     8393    1459



     bravais-lattice index     =            2
     lattice parameter (alat)  =       6.8300  a.u.
     unit-cell volume          =      79.6530 (a.u.)^3
     number of atoms/cell      =            1
     number of atomic types    =            1
     number of electrons       =        19.00
     number of Kohn-Sham states=           14
     kinetic-energy cutoff     =      85.0000  Ry
     charge density cutoff     =     340.0000  Ry
     convergence threshold     =      1.0E-08
     mixing beta               =       0.7000
     number of iterations used =            8  plain     mixing
     Exchange-correlation      = SLA PW PBX PBC ( 1  4  3  4 0 0)

     celldm(1)=   6.830000  celldm(2)=   0.000000  celldm(3)=   0.000000
     celldm(4)=   0.000000  celldm(5)=   0.000000  celldm(6)=   0.000000

     crystal axes: (cart. coord. in units of alat)
               a(1) = (  -0.500000   0.000000   0.500000 )  
               a(2) = (   0.000000   0.500000   0.500000 )  
               a(3) = (  -0.500000   0.500000   0.000000 )  

     reciprocal axes: (cart. coord. in units 2 pi/alat)
               b(1) = ( -1.000000 -1.000000  1.000000 )  
               b(2) = (  1.000000  1.000000  1.000000 )  
               b(3) = ( -1.000000  1.000000 -1.000000 )  


     PseudoPot. # 1 for Fr read from file:
     /home/lorenzo/pseudos/Fr/Fr.pbe-spdn-kjpaw_psl.1.0.0.UPF
     MD5 check sum: 362a188b966a64328b94f1ef5f32e8c4
     Pseudo is Projector augmented-wave + core cor, Zval = 19.0
     Generated using "atomic" code by A. Dal Corso v.6.2.2
     Shape of augmentation charge: PSQ
     Using radial grid of 1287 points,  6 beta functions with: 
                l(1) =   0
                l(2) =   0
                l(3) =   1
                l(4) =   1
                l(5) =   2
                l(6) =   2
     Q(r) pseudized with 0 coefficients 


     atomic species   valence    mass     pseudopotential
        Fr            19.00   223.00000     Fr( 1.00)

     48 Sym. Ops., with inversion, found



   Cartesian axes

     site n.     atom                  positions (alat units)
         1           Fr  tau(   1) = (   0.0000000   0.0000000   0.0000000  )

     number of k points=    16  gaussian smearing, width (Ry)=  0.0100
                       cart. coord. in units 2pi/alat
        k(    1) = (   0.0000000   0.0000000   0.0000000), wk =   0.0092593
        k(    2) = (  -0.1666667   0.1666667  -0.1666667), wk =   0.0740741
        k(    3) = (  -0.3333333   0.3333333  -0.3333333), wk =   0.0740741
        k(    4) = (   0.5000000  -0.5000000   0.5000000), wk =   0.0370370
        k(    5) = (   0.0000000   0.3333333   0.0000000), wk =   0.0555556
        k(    6) = (  -0.1666667   0.5000000  -0.1666667), wk =   0.2222222
        k(    7) = (   0.6666667  -0.3333333   0.6666667), wk =   0.2222222
        k(    8) = (   0.5000000  -0.1666667   0.5000000), wk =   0.2222222
        k(    9) = (   0.3333333   0.0000000   0.3333333), wk =   0.1111111
        k(   10) = (   0.0000000   0.6666667   0.0000000), wk =   0.0555556
        k(   11) = (   0.8333333  -0.1666667   0.8333333), wk =   0.2222222
        k(   12) = (   0.6666667  -0.0000000   0.6666667), wk =   0.1111111
        k(   13) = (   0.0000000  -1.0000000   0.0000000), wk =   0.0277778
        k(   14) = (   0.6666667  -0.3333333   1.0000000), wk =   0.2222222
        k(   15) = (   0.5000000  -0.1666667   0.8333333), wk =   0.2222222
        k(   16) = (  -0.3333333  -1.0000000   0.0000000), wk =   0.1111111

     Dense  grid:     8393 G-vectors     FFT dimensions: (  30,  30,  30)

     Estimated max dynamical RAM per process >       8.64 MB

     Estimated total dynamical RAM >      43.22 MB

     Initial potential from superposition of free atoms

     starting charge   18.97009, renormalised to   19.00000
     Starting wfcs are   10 randomized atomic wfcs +    4 random wfcs
     Checking if some PAW data can be deallocated... 

     total cpu time spent up to now is        1.3 secs

     Self-consistent Calculation

     iteration #  1     ecut=    85.00 Ry     beta= 0.70
     Davidson diagonalization with overlap
     ethr =  1.00E-02,  avg # of iterations =  4.6

     Threshold (ethr) on eigenvalues was too large:
     Diagonalizing with lowered threshold

     Davidson diagonalization with overlap
     ethr =  1.12E-04,  avg # of iterations =  2.1

     total cpu time spent up to now is        2.1 secs

     total energy              =   -1069.98175682 Ry
     Harris-Foulkes estimate   =   -1069.99542999 Ry
     estimated scf accuracy    <       0.02126622 Ry

     iteration #  2     ecut=    85.00 Ry     beta= 0.70
     Davidson diagonalization with overlap
     ethr =  1.12E-04,  avg # of iterations =  2.0

     total cpu time spent up to now is        2.5 secs

     total energy              =   -1069.98593123 Ry
     Harris-Foulkes estimate   =   -1069.98641805 Ry
     estimated scf accuracy    <       0.00094598 Ry

     iteration #  3     ecut=    85.00 Ry     beta= 0.70
     Davidson diagonalization with overlap
     ethr =  4.98E-06,  avg # of iterations =  2.5

     total cpu time spent up to now is        2.9 secs

     total energy              =   -1069.98606964 Ry
     Harris-Foulkes estimate   =   -1069.98606870 Ry
     estimated scf accuracy    <       0.00002293 Ry

     iteration #  4     ecut=    85.00 Ry     beta= 0.70
     Davidson diagonalization with overlap
     ethr =  1.21E-07,  avg # of iterations =  2.5

     total cpu time spent up to now is        3.3 secs

     total energy              =   -1069.98607550 Ry
     Harris-Foulkes estimate   =   -1069.98607486 Ry
     estimated scf accuracy    <       0.00000026 Ry

     iteration #  5     ecut=    85.00 Ry     beta= 0.70
     Davidson diagonalization with overlap
     ethr =  1.37E-09,  avg # of iterations =  2.4

     total cpu time spent up to now is        3.7 secs

     total energy              =   -1069.98607566 Ry
     Harris-Foulkes estimate   =   -1069.98607561 Ry
     estimated scf accuracy    <       0.00000006 Ry

     iteration #  6     ecut=    85.00 Ry     beta= 0.70
     Davidson diagonalization with overlap
     ethr =  3.15E-10,  avg # of iterations =  2.0

     total cpu time spent up to now is        4.1 secs

     End of self-consistent calculation

          k = 0.0000 0.0000 0.0000 (  1067 PWs)   bands (ev):

    -9.2371  -9.2371  -9.2371  -8.8945  -8.8945   9.4709  47.2636  47.2636
    47.2636  48.3163  53.8788  53.8788  53.8788  57.7976

          k =-0.1667 0.1667-0.1667 (  1043 PWs)   bands (ev):

    -9.2284  -9.1679  -9.1679  -8.8801  -8.8801  10.5858  38.9193  45.8551
    45.8551  48.2178  55.0547  55.8176  55.8176  56.3665

          k =-0.3333 0.3333-0.3333 (  1059 PWs)   bands (ev):

    -9.2219  -9.1565  -9.1565  -8.7193  -8.7193  13.8898  29.1814  43.8638
    43.8638  48.1848  52.1765  52.7760  52.7760  61.4769

          k = 0.5000-0.5000 0.5000 (  1056 PWs)   bands (ev):

    -9.2236  -9.1837  -9.1837  -8.6033  -8.6033  17.5590  23.2699  43.0144
    43.0144  48.0535  51.2434  51.7819  51.7819  65.4735

          k = 0.0000 0.3333 0.0000 (  1042 PWs)   bands (ev):

    -9.3196  -9.0698  -9.0698  -8.9819  -8.8241  10.9568  42.2994  42.2994
    42.5914  45.9546  49.4132  58.6508  59.3026  59.3026

          k =-0.1667 0.5000-0.1667 (  1058 PWs)   bands (ev):

    -9.3224  -9.0838  -8.9971  -8.8818  -8.6888  13.5426  32.8717  40.1796
    40.4893  45.7747  50.6933  58.1229  58.1861  59.0420

          k = 0.6667-0.3333 0.6667 (  1051 PWs)   bands (ev):

    -9.2639  -9.0973  -9.0361  -8.7518  -8.5959  17.6977  25.2316  37.3203
    40.2330  45.4565  55.5227  55.5365  58.4548  58.9957

          k = 0.5000-0.1667 0.5000 (  1051 PWs)   bands (ev):

    -9.1960  -9.1290  -9.0416  -8.7497  -8.6886  16.2850  27.4087  35.8934
    42.6600  46.8956  53.7790  54.2647  60.2504  60.6102

          k = 0.3333 0.0000 0.3333 (  1053 PWs)   bands (ev):

    -9.2116  -9.1297  -9.0546  -8.9444  -8.7520  12.4384  35.5010  37.2932
    46.5682  50.1581  51.3581  53.9570  54.9539  57.3664

          k = 0.0000 0.6667 0.0000 (  1030 PWs)   bands (ev):

    -9.4833  -9.1798  -8.7225  -8.7225  -8.6822  15.3887  32.9634  37.3626
    37.3626  43.8083  43.9155  64.6238  65.1575  65.1575

          k = 0.8333-0.1667 0.8333 (  1056 PWs)   bands (ev):

    -9.4394  -9.1861  -8.7376  -8.6797  -8.5773  19.0519  27.9048  32.3427
    36.8480  43.5166  48.8352  61.4867  63.3243  68.7422

          k = 0.6667-0.0000 0.6667 (  1063 PWs)   bands (ev):

    -9.3075  -8.9427  -8.8727  -8.8050  -8.7068  19.8192  28.3115  28.3302
    38.8656  44.5220  57.4377  59.0091  60.0174  62.6366

          k = 0.0000-1.0000 0.0000 (  1034 PWs)   bands (ev):

    -9.5644  -9.2887  -8.6107  -8.5418  -8.5418  21.0984  24.9259  35.5544
    35.5544  42.6941  43.1089  64.3806  70.3480  71.3135

          k = 0.6667-0.3333 1.0000 (  1052 PWs)   bands (ev):

    -9.2721  -9.1346  -8.9358  -8.7323  -8.6702  16.7098  30.4791  32.8626
    37.5505  49.5544  49.9019  54.8422  62.6428  65.1218

          k = 0.5000-0.1667 0.8333 (  1066 PWs)   bands (ev):

    -9.1883  -9.1141  -8.9032  -8.8174  -8.6116  19.9028  26.3301  31.8240
    35.4668  49.4031  52.6728  58.4299  58.4654  64.2259

          k =-0.3333-1.0000 0.0000 (  1064 PWs)   bands (ev):

    -9.3234  -9.1725  -8.8129  -8.7187  -8.5418  21.3345  26.6507  31.2424
    32.7569  48.9372  49.1930  58.3145  61.2496  68.7397

     the Fermi energy is    46.7876 ev

!    total energy              =   -1069.98607567 Ry
     Harris-Foulkes estimate   =   -1069.98607567 Ry
     estimated scf accuracy    <          3.9E-10 Ry

     total all-electron energy =    -48515.596387 Ry

     The total energy is the sum of the following terms:

     one-electron contribution =       1.46858705 Ry
     hartree contribution      =      28.18693712 Ry
     xc contribution           =     -64.59218984 Ry
     ewald contribution        =    -242.33311988 Ry
     one-center paw contrib.   =    -792.71593329 Ry
     smearing contrib. (-TS)   =      -0.00035683 Ry

     convergence has been achieved in   6 iterations

     Forces acting on atoms (cartesian axes, Ry/au):

     atom    1 type  1   force =     0.00000000    0.00000000    0.00000000

     Total force =     0.000000     Total SCF correction =     0.000000


     Computing stress (Cartesian axis) and pressure

          total   stress  (Ry/bohr**3)                   (kbar)     P= 7219.82
   0.04907933   0.00000000   0.00000000       7219.82      0.00      0.00
   0.00000000   0.04907933  -0.00000000          0.00   7219.82     -0.00
   0.00000000  -0.00000000   0.04907933          0.00     -0.00   7219.82


     Writing output data file Fr.save/

     init_run     :      0.39s CPU      0.40s WALL (       1 calls)
     electrons    :      2.64s CPU      2.79s WALL (       1 calls)
     forces       :      0.04s CPU      0.04s WALL (       1 calls)
     stress       :      0.13s CPU      0.13s WALL (       1 calls)

     Called by init_run:
     wfcinit      :      0.07s CPU      0.07s WALL (       1 calls)
     potinit      :      0.11s CPU      0.12s WALL (       1 calls)
     hinit0       :      0.18s CPU      0.18s WALL (       1 calls)

     Called by electrons:
     c_bands      :      1.53s CPU      1.58s WALL (       7 calls)
     sum_band     :      0.35s CPU      0.36s WALL (       7 calls)
     v_of_rho     :      0.04s CPU      0.04s WALL (       7 calls)
     newd         :      0.07s CPU      0.08s WALL (       7 calls)
     PAW_pot      :      0.76s CPU      0.85s WALL (       7 calls)
     mix_rho      :      0.00s CPU      0.00s WALL (       7 calls)

     Called by c_bands:
     init_us_2    :      0.04s CPU      0.04s WALL (     272 calls)
     cegterg      :      1.48s CPU      1.53s WALL (     112 calls)

     Called by sum_band:
     sum_band:bec :      0.00s CPU      0.00s WALL (     112 calls)
     addusdens    :      0.06s CPU      0.06s WALL (       7 calls)

     Called by *egterg:
     h_psi        :      1.09s CPU      1.13s WALL (     416 calls)
     s_psi        :      0.03s CPU      0.03s WALL (     416 calls)
     g_psi        :      0.00s CPU      0.00s WALL (     288 calls)
     cdiaghg      :      0.17s CPU      0.18s WALL (     384 calls)

     Called by h_psi:
     h_psi:pot    :      1.09s CPU      1.12s WALL (     416 calls)
     h_psi:calbec :      0.05s CPU      0.05s WALL (     416 calls)
     vloc_psi     :      0.99s CPU      1.03s WALL (     416 calls)
     add_vuspsi   :      0.04s CPU      0.04s WALL (     416 calls)

     General routines
     calbec       :      0.09s CPU      0.09s WALL (     608 calls)
     fft          :      0.03s CPU      0.03s WALL (     104 calls)
     ffts         :      0.00s CPU      0.00s WALL (       7 calls)
     fftw         :      1.14s CPU      1.18s WALL (    9838 calls)

     Parallel routines
     fft_scatt_xy :      0.10s CPU      0.10s WALL (    9949 calls)
     fft_scatt_yz :      0.30s CPU      0.30s WALL (    9949 calls)

     PWSCF        :     4.15s CPU         4.37s WALL


   This run was terminated on:  22:57:48   7Apr2024            

=------------------------------------------------------------------------------=
   JOB DONE.
=------------------------------------------------------------------------------=
