
     Program PWSCF v.6.3MaX starts on  7Apr2024 at 22:45:47 

     This program is part of the open-source Quantum ESPRESSO suite
     for quantum simulation of materials; please cite
         "P. Giannozzi et al., J. Phys.:Condens. Matter 21 395502 (2009);
         "P. Giannozzi et al., J. Phys.:Condens. Matter 29 465901 (2017);
          URL http://www.quantum-espresso.org", 
     in publications or presentations arising from this work. More details at
     http://www.quantum-espresso.org/quote

     Parallel version (MPI), running on     5 processors

     MPI processes distributed on     1 nodes
     R & G space division:  proc/nbgrp/npool/nimage =       5
     Waiting for input...
     Reading input from standard input

     Current dimensions of program PWSCF are:
     Max number of different atomic species (ntypx) = 10
     Max number of k-points (npk) =  40000
     Max angular momentum in pseudopotentials (lmaxx) =  3

     Subspace diagonalization in iterative solution of the eigenvalue problem:
     a serial algorithm will be used


     Parallelization info
     --------------------
     sticks:   dense  smooth     PW     G-vecs:    dense   smooth      PW
     Min          84      84     27                 1134     1134     213
     Max          85      85     28                 1137     1137     214
     Sum         421     421    139                 5673     5673    1067



     bravais-lattice index     =            2
     lattice parameter (alat)  =       6.8300  a.u.
     unit-cell volume          =      79.6530 (a.u.)^3
     number of atoms/cell      =            1
     number of atomic types    =            1
     number of electrons       =        19.00
     number of Kohn-Sham states=           14
     kinetic-energy cutoff     =      65.0000  Ry
     charge density cutoff     =     260.0000  Ry
     convergence threshold     =      1.0E-08
     mixing beta               =       0.7000
     number of iterations used =            8  plain     mixing
     Exchange-correlation      = LDA ( 1  1  0  0 0 0)

     celldm(1)=   6.830000  celldm(2)=   0.000000  celldm(3)=   0.000000
     celldm(4)=   0.000000  celldm(5)=   0.000000  celldm(6)=   0.000000

     crystal axes: (cart. coord. in units of alat)
               a(1) = (  -0.500000   0.000000   0.500000 )  
               a(2) = (   0.000000   0.500000   0.500000 )  
               a(3) = (  -0.500000   0.500000   0.000000 )  

     reciprocal axes: (cart. coord. in units 2 pi/alat)
               b(1) = ( -1.000000 -1.000000  1.000000 )  
               b(2) = (  1.000000  1.000000  1.000000 )  
               b(3) = ( -1.000000  1.000000 -1.000000 )  


     PseudoPot. # 1 for Fr read from file:
     /home/lorenzo/pseudos/Fr/Fr.pz-spdn-rrkjus_psl.1.0.0.UPF
     MD5 check sum: 5665a43a3d1ea02b0b7dc7a0ae9ace04
     Pseudo is Ultrasoft + core correction, Zval = 19.0
     Generated using "atomic" code by A. Dal Corso v.6.2.2
     Using radial grid of 1287 points,  6 beta functions with: 
                l(1) =   0
                l(2) =   0
                l(3) =   1
                l(4) =   1
                l(5) =   2
                l(6) =   2
     Q(r) pseudized with 0 coefficients 


     atomic species   valence    mass     pseudopotential
        Fr            19.00   223.00000     Fr( 1.00)

     48 Sym. Ops., with inversion, found



   Cartesian axes

     site n.     atom                  positions (alat units)
         1           Fr  tau(   1) = (   0.0000000   0.0000000   0.0000000  )

     number of k points=    29  gaussian smearing, width (Ry)=  0.0100
                       cart. coord. in units 2pi/alat
        k(    1) = (   0.0000000   0.0000000   0.0000000), wk =   0.0039062
        k(    2) = (  -0.1250000   0.1250000  -0.1250000), wk =   0.0312500
        k(    3) = (  -0.2500000   0.2500000  -0.2500000), wk =   0.0312500
        k(    4) = (  -0.3750000   0.3750000  -0.3750000), wk =   0.0312500
        k(    5) = (   0.5000000  -0.5000000   0.5000000), wk =   0.0156250
        k(    6) = (   0.0000000   0.2500000   0.0000000), wk =   0.0234375
        k(    7) = (  -0.1250000   0.3750000  -0.1250000), wk =   0.0937500
        k(    8) = (  -0.2500000   0.5000000  -0.2500000), wk =   0.0937500
        k(    9) = (   0.6250000  -0.3750000   0.6250000), wk =   0.0937500
        k(   10) = (   0.5000000  -0.2500000   0.5000000), wk =   0.0937500
        k(   11) = (   0.3750000  -0.1250000   0.3750000), wk =   0.0937500
        k(   12) = (   0.2500000   0.0000000   0.2500000), wk =   0.0468750
        k(   13) = (   0.0000000   0.5000000   0.0000000), wk =   0.0234375
        k(   14) = (  -0.1250000   0.6250000  -0.1250000), wk =   0.0937500
        k(   15) = (   0.7500000  -0.2500000   0.7500000), wk =   0.0937500
        k(   16) = (   0.6250000  -0.1250000   0.6250000), wk =   0.0937500
        k(   17) = (   0.5000000   0.0000000   0.5000000), wk =   0.0468750
        k(   18) = (   0.0000000   0.7500000   0.0000000), wk =   0.0234375
        k(   19) = (   0.8750000  -0.1250000   0.8750000), wk =   0.0937500
        k(   20) = (   0.7500000   0.0000000   0.7500000), wk =   0.0468750
        k(   21) = (   0.0000000  -1.0000000   0.0000000), wk =   0.0117188
        k(   22) = (  -0.2500000   0.5000000   0.0000000), wk =   0.0937500
        k(   23) = (   0.6250000  -0.3750000   0.8750000), wk =   0.1875000
        k(   24) = (   0.5000000  -0.2500000   0.7500000), wk =   0.0937500
        k(   25) = (   0.7500000  -0.2500000   1.0000000), wk =   0.0937500
        k(   26) = (   0.6250000  -0.1250000   0.8750000), wk =   0.1875000
        k(   27) = (   0.5000000   0.0000000   0.7500000), wk =   0.0937500
        k(   28) = (  -0.2500000  -1.0000000   0.0000000), wk =   0.0468750
        k(   29) = (  -0.5000000  -1.0000000   0.0000000), wk =   0.0234375

     Dense  grid:     5673 G-vectors     FFT dimensions: (  25,  25,  25)

     Estimated max dynamical RAM per process >       6.52 MB

     Estimated total dynamical RAM >      32.62 MB

     Check: negative/imaginary core charge=   -0.000003    0.000000

     Initial potential from superposition of free atoms

     starting charge   18.97647, renormalised to   19.00000
     Starting wfcs are   10 randomized atomic wfcs +    4 random wfcs

     total cpu time spent up to now is        1.3 secs

     Self-consistent Calculation

     iteration #  1     ecut=    65.00 Ry     beta= 0.70
     Davidson diagonalization with overlap
     ethr =  1.00E-02,  avg # of iterations =  4.7

     Threshold (ethr) on eigenvalues was too large:
     Diagonalizing with lowered threshold

     Davidson diagonalization with overlap
     ethr =  9.96E-05,  avg # of iterations =  2.0

     total cpu time spent up to now is        2.5 secs

     total energy              =    -282.47698638 Ry
     Harris-Foulkes estimate   =    -282.48995855 Ry
     estimated scf accuracy    <       0.01879399 Ry

     iteration #  2     ecut=    65.00 Ry     beta= 0.70
     Davidson diagonalization with overlap
     ethr =  9.89E-05,  avg # of iterations =  2.0

     total cpu time spent up to now is        2.9 secs

     total energy              =    -282.48007830 Ry
     Harris-Foulkes estimate   =    -282.48056176 Ry
     estimated scf accuracy    <       0.00064379 Ry

     iteration #  3     ecut=    65.00 Ry     beta= 0.70
     Davidson diagonalization with overlap
     ethr =  3.39E-06,  avg # of iterations =  2.5

     total cpu time spent up to now is        3.3 secs

     total energy              =    -282.48018849 Ry
     Harris-Foulkes estimate   =    -282.48020681 Ry
     estimated scf accuracy    <       0.00003050 Ry

     iteration #  4     ecut=    65.00 Ry     beta= 0.70
     Davidson diagonalization with overlap
     ethr =  1.61E-07,  avg # of iterations =  2.0

     total cpu time spent up to now is        3.6 secs

     total energy              =    -282.48019230 Ry
     Harris-Foulkes estimate   =    -282.48019233 Ry
     estimated scf accuracy    <       0.00000009 Ry

     iteration #  5     ecut=    65.00 Ry     beta= 0.70
     Davidson diagonalization with overlap
     ethr =  4.59E-10,  avg # of iterations =  2.4

     total cpu time spent up to now is        4.0 secs

     End of self-consistent calculation

          k = 0.0000 0.0000 0.0000 (   725 PWs)   bands (ev):

    -9.5324  -9.5324  -9.5324  -9.1825  -9.1825   9.0885  46.8835  46.8835
    46.8835  48.0874  53.6685  53.6685  53.6685  57.5551

          k =-0.1250 0.1250-0.1250 (   706 PWs)   bands (ev):

    -9.5244  -9.4853  -9.4853  -9.1782  -9.1782   9.7142  41.2023  46.0063
    46.0063  47.9613  55.1443  55.1443  55.5100  56.5620

          k =-0.2500 0.2500-0.2500 (   703 PWs)   bands (ev):

    -9.5169  -9.4366  -9.4366  -9.1056  -9.1056  11.5907  33.5123  44.4249
    44.4249  47.9977  53.1600  53.8240  53.8240  58.4920

          k =-0.3750 0.3750-0.3750 (   709 PWs)   bands (ev):

    -9.5156  -9.4573  -9.4573  -8.9621  -8.9621  14.5939  26.7912  43.1361
    43.1361  47.9319  51.4711  52.1343  52.1343  62.5503

          k = 0.5000-0.5000 0.5000 (   718 PWs)   bands (ev):

    -9.5174  -9.4756  -9.4756  -8.8931  -8.8931  17.1124  23.0060  42.6431
    42.6431  47.8525  50.9501  51.5873  51.5873  65.1332

          k = 0.0000 0.2500 0.0000 (   697 PWs)   bands (ev):

    -9.5790  -9.4310  -9.4310  -9.2324  -9.1398   9.9225  43.5046  43.5046
    43.9630  46.4732  51.7043  56.6411  57.4575  57.4575

          k =-0.1250 0.3750-0.1250 (   697 PWs)   bands (ev):

    -9.5896  -9.3705  -9.3518  -9.2318  -9.0692  11.3830  36.3243  41.5626
    43.0473  47.2766  49.8764  56.3627  57.9777  58.2874

          k =-0.2500 0.5000-0.2500 (   703 PWs)   bands (ev):

    -9.5584  -9.4046  -9.3576  -9.1065  -8.9411  14.0349  29.3112  40.6060
    40.8236  46.0972  53.7935  55.6207  55.6503  56.8713

          k = 0.6250-0.3750 0.6250 (   707 PWs)   bands (ev):

    -9.5276  -9.4293  -9.3880  -8.9867  -8.8889  17.1618  24.1503  38.8498
    40.8625  45.9556  53.7663  53.9072  56.2446  60.6573

          k = 0.5000-0.2500 0.5000 (   708 PWs)   bands (ev):

    -9.4887  -9.4506  -9.3912  -8.9785  -8.9467  16.2107  25.5295  37.8551
    42.4125  46.8665  52.5851  53.0185  57.6820  61.6558

          k = 0.3750-0.1250 0.3750 (   709 PWs)   bands (ev):

    -9.4936  -9.4338  -9.3689  -9.1540  -9.0041  13.0282  31.5523  38.0392
    45.0174  48.8118  51.5506  52.9368  57.0320  58.5527

          k = 0.2500 0.0000 0.2500 (   694 PWs)   bands (ev):

    -9.5246  -9.4241  -9.4218  -9.2198  -9.1050  10.7577  38.3375  39.8408
    47.2692  49.6674  52.0531  53.7201  54.2418  56.4668

          k = 0.0000 0.5000 0.0000 (   713 PWs)   bands (ev):

    -9.6959  -9.3670  -9.1909  -9.1909  -9.0403  12.4252  37.6874  39.1868
    39.1868  44.5012  45.6442  61.8318  61.8318  62.6024

          k =-0.1250 0.6250-0.1250 (   703 PWs)   bands (ev):

    -9.7017  -9.4203  -9.1452  -9.0828  -8.9311  14.6757  32.0637  36.5179
    37.9286  44.1757  47.5958  60.4150  61.1089  63.3913

          k = 0.7500-0.2500 0.7500 (   703 PWs)   bands (ev):

    -9.6344  -9.3760  -9.1754  -9.0736  -8.8774  17.7350  26.8055  33.5609
    38.0289  44.1122  53.1976  58.2992  58.9659  63.6726

          k = 0.6250-0.1250 0.6250 (   702 PWs)   bands (ev):

    -9.5626  -9.2865  -9.1993  -9.1034  -8.9770  18.4849  25.9215  31.7187
    39.5324  44.8886  56.9806  57.1965  59.4306  62.2208

          k = 0.5000 0.0000 0.5000 (   708 PWs)   bands (ev):

    -9.4882  -9.3850  -9.2028  -9.1696  -9.0149  15.5782  30.1235  31.9712
    42.2069  46.5406  54.9000  56.2907  57.1590  59.0254

          k = 0.0000 0.7500 0.0000 (   701 PWs)   bands (ev):

    -9.8099  -9.5112  -8.9398  -8.9398  -8.9397  16.5118  30.0681  36.2615
    36.2615  43.1493  43.3082  64.2226  66.5976  66.5976

          k = 0.8750-0.1250 0.8750 (   706 PWs)   bands (ev):

    -9.7806  -9.5189  -8.9660  -8.9161  -8.8608  19.1976  26.8127  32.7464
    35.9710  43.0402  46.5001  62.4298  65.2346  68.9993

          k = 0.7500 0.0000 0.7500 (   706 PWs)   bands (ev):

    -9.6682  -9.3808  -9.0421  -9.0215  -8.9295  20.3870  26.5941  28.8853
    37.1328  43.5893  52.6695  60.2993  62.5174  64.7442

          k = 0.0000-1.0000 0.0000 (   692 PWs)   bands (ev):

    -9.8560  -9.5771  -8.8960  -8.8322  -8.8322  20.6115  24.6452  35.2355
    35.2355  42.4844  42.9197  64.0677  70.0361  70.9628

          k =-0.2500 0.5000 0.0000 (   700 PWs)   bands (ev):

    -9.5893  -9.3861  -9.2503  -9.2003  -8.9895  13.2402  33.7892  35.9096
    41.5609  48.6664  48.6874  55.1750  58.8427  61.6354

          k = 0.6250-0.3750 0.8750 (   703 PWs)   bands (ev):

    -9.5205  -9.4286  -9.2451  -9.0879  -8.9395  16.1476  28.2175  34.4893
    38.8828  47.9832  52.0908  54.9966  59.5735  62.2367

          k = 0.5000-0.2500 0.7500 (   702 PWs)   bands (ev):

    -9.4872  -9.4428  -9.2150  -9.0831  -8.9133  18.4617  24.7810  34.4317
    37.6763  47.7406  51.9721  59.7597  60.2383  60.9069

          k = 0.7500-0.2500 1.0000 (   712 PWs)   bands (ev):

    -9.6811  -9.4575  -9.1282  -8.9440  -8.9245  17.1907  29.4968  33.2740
    35.2269  47.1045  47.1648  57.9186  65.6755  65.8348

          k = 0.6250-0.1250 0.8750 (   709 PWs)   bands (ev):

    -9.5741  -9.3887  -9.1820  -9.0350  -8.8805  19.8040  26.8795  30.4035
    34.5466  47.4722  52.9673  55.9034  61.1077  65.4014

          k = 0.5000 0.0000 0.7500 (   701 PWs)   bands (ev):

    -9.4961  -9.3543  -9.2285  -9.0653  -8.9508  18.8936  28.1958  29.3203
    36.1150  48.5574  53.8304  56.0424  59.7309  63.1234

          k =-0.2500-1.0000 0.0000 (   708 PWs)   bands (ev):

    -9.7178  -9.5052  -8.9936  -8.9638  -8.8338  20.7568  25.6277  32.3449
    33.2152  46.5920  46.6518  60.4020  64.0387  68.1233

          k =-0.5000-1.0000 0.0000 (   700 PWs)   bands (ev):

    -9.4055  -9.3652  -9.3652  -9.0565  -8.8334  20.9156  28.3876  28.3876
    31.8666  53.0448  53.2429  53.2429  56.2339  69.8467

     the Fermi energy is    46.9135 ev

!    total energy              =    -282.48019234 Ry
     Harris-Foulkes estimate   =    -282.48019234 Ry
     estimated scf accuracy    <          2.5E-09 Ry

     The total energy is the sum of the following terms:

     one-electron contribution =      -4.43888574 Ry
     hartree contribution      =      28.18631562 Ry
     xc contribution           =     -63.89418632 Ry
     ewald contribution        =    -242.33311988 Ry
     smearing contrib. (-TS)   =      -0.00031602 Ry

     convergence has been achieved in   5 iterations

     Forces acting on atoms (cartesian axes, Ry/au):

     atom    1 type  1   force =     0.00000000    0.00000000    0.00000000

     Total force =     0.000000     Total SCF correction =     0.000000


     Computing stress (Cartesian axis) and pressure

          total   stress  (Ry/bohr**3)                   (kbar)     P= 6908.53
   0.04696327  -0.00000000   0.00000000       6908.53     -0.00      0.00
  -0.00000000   0.04696327  -0.00000000         -0.00   6908.53     -0.00
   0.00000000  -0.00000000   0.04696327          0.00     -0.00   6908.53


     Writing output data file Fr.save/

     init_run     :      0.30s CPU      0.32s WALL (       1 calls)
     electrons    :      2.60s CPU      2.72s WALL (       1 calls)
     forces       :      0.03s CPU      0.03s WALL (       1 calls)
     stress       :      0.11s CPU      0.11s WALL (       1 calls)

     Called by init_run:
     wfcinit      :      0.11s CPU      0.12s WALL (       1 calls)
     potinit      :      0.00s CPU      0.00s WALL (       1 calls)
     hinit0       :      0.17s CPU      0.17s WALL (       1 calls)

     Called by electrons:
     c_bands      :      2.18s CPU      2.28s WALL (       6 calls)
     sum_band     :      0.38s CPU      0.41s WALL (       6 calls)
     v_of_rho     :      0.00s CPU      0.00s WALL (       6 calls)
     newd         :      0.04s CPU      0.04s WALL (       6 calls)
     mix_rho      :      0.00s CPU      0.00s WALL (       6 calls)

     Called by c_bands:
     init_us_2    :      0.05s CPU      0.05s WALL (     435 calls)
     cegterg      :      2.11s CPU      2.20s WALL (     174 calls)

     Called by sum_band:
     sum_band:bec :      0.00s CPU      0.00s WALL (     174 calls)
     addusdens    :      0.03s CPU      0.04s WALL (       6 calls)

     Called by *egterg:
     h_psi        :      1.53s CPU      1.60s WALL (     658 calls)
     s_psi        :      0.04s CPU      0.05s WALL (     658 calls)
     g_psi        :      0.00s CPU      0.00s WALL (     455 calls)
     cdiaghg      :      0.32s CPU      0.33s WALL (     600 calls)

     Called by h_psi:
     h_psi:pot    :      1.52s CPU      1.60s WALL (     658 calls)
     h_psi:calbec :      0.07s CPU      0.08s WALL (     658 calls)
     vloc_psi     :      1.40s CPU      1.47s WALL (     658 calls)
     add_vuspsi   :      0.04s CPU      0.05s WALL (     658 calls)

     General routines
     calbec       :      0.12s CPU      0.13s WALL (     977 calls)
     fft          :      0.01s CPU      0.01s WALL (      34 calls)
     ffts         :      0.00s CPU      0.00s WALL (       6 calls)
     fftw         :      1.58s CPU      1.66s WALL (   15652 calls)

     Parallel routines
     fft_scatt_xy :      0.12s CPU      0.12s WALL (   15692 calls)
     fft_scatt_yz :      0.52s CPU      0.55s WALL (   15692 calls)

     PWSCF        :     4.05s CPU         4.27s WALL


   This run was terminated on:  22:45:51   7Apr2024            

=------------------------------------------------------------------------------=
   JOB DONE.
=------------------------------------------------------------------------------=
