
     Program PWSCF v.6.3MaX starts on  7Apr2024 at 22:29:56 

     This program is part of the open-source Quantum ESPRESSO suite
     for quantum simulation of materials; please cite
         "P. Giannozzi et al., J. Phys.:Condens. Matter 21 395502 (2009);
         "P. Giannozzi et al., J. Phys.:Condens. Matter 29 465901 (2017);
          URL http://www.quantum-espresso.org", 
     in publications or presentations arising from this work. More details at
     http://www.quantum-espresso.org/quote

     Parallel version (MPI), running on     5 processors

     MPI processes distributed on     1 nodes
     R & G space division:  proc/nbgrp/npool/nimage =       5
     Waiting for input...
     Reading input from standard input

     Current dimensions of program PWSCF are:
     Max number of different atomic species (ntypx) = 10
     Max number of k-points (npk) =  40000
     Max angular momentum in pseudopotentials (lmaxx) =  3
               file Fr.pbe-spdn-kjpaw_psl.1.0.0.UPF: wavefunction(s)  6P renormalized

     Subspace diagonalization in iterative solution of the eigenvalue problem:
     a serial algorithm will be used


     Parallelization info
     --------------------
     sticks:   dense  smooth     PW     G-vecs:    dense   smooth      PW
     Min          43      43     16                  445      445      91
     Max          45      45     18                  446      446      92
     Sum         223     223     85                 2229     2229     459



     bravais-lattice index     =            2
     lattice parameter (alat)  =       6.8300  a.u.
     unit-cell volume          =      79.6530 (a.u.)^3
     number of atoms/cell      =            1
     number of atomic types    =            1
     number of electrons       =        19.00
     number of Kohn-Sham states=           14
     kinetic-energy cutoff     =      35.0000  Ry
     charge density cutoff     =     140.0000  Ry
     convergence threshold     =      1.0E-08
     mixing beta               =       0.7000
     number of iterations used =            8  plain     mixing
     Exchange-correlation      = SLA PW PBX PBC ( 1  4  3  4 0 0)

     celldm(1)=   6.830000  celldm(2)=   0.000000  celldm(3)=   0.000000
     celldm(4)=   0.000000  celldm(5)=   0.000000  celldm(6)=   0.000000

     crystal axes: (cart. coord. in units of alat)
               a(1) = (  -0.500000   0.000000   0.500000 )  
               a(2) = (   0.000000   0.500000   0.500000 )  
               a(3) = (  -0.500000   0.500000   0.000000 )  

     reciprocal axes: (cart. coord. in units 2 pi/alat)
               b(1) = ( -1.000000 -1.000000  1.000000 )  
               b(2) = (  1.000000  1.000000  1.000000 )  
               b(3) = ( -1.000000  1.000000 -1.000000 )  


     PseudoPot. # 1 for Fr read from file:
     /home/lorenzo/pseudos/Fr/Fr.pbe-spdn-kjpaw_psl.1.0.0.UPF
     MD5 check sum: 362a188b966a64328b94f1ef5f32e8c4
     Pseudo is Projector augmented-wave + core cor, Zval = 19.0
     Generated using "atomic" code by A. Dal Corso v.6.2.2
     Shape of augmentation charge: PSQ
     Using radial grid of 1287 points,  6 beta functions with: 
                l(1) =   0
                l(2) =   0
                l(3) =   1
                l(4) =   1
                l(5) =   2
                l(6) =   2
     Q(r) pseudized with 0 coefficients 


     atomic species   valence    mass     pseudopotential
        Fr            19.00   223.00000     Fr( 1.00)

     48 Sym. Ops., with inversion, found



   Cartesian axes

     site n.     atom                  positions (alat units)
         1           Fr  tau(   1) = (   0.0000000   0.0000000   0.0000000  )

     number of k points=    10  gaussian smearing, width (Ry)=  0.0100
                       cart. coord. in units 2pi/alat
        k(    1) = (   0.0000000   0.0000000   0.0000000), wk =   0.0160000
        k(    2) = (  -0.2000000   0.2000000  -0.2000000), wk =   0.1280000
        k(    3) = (  -0.4000000   0.4000000  -0.4000000), wk =   0.1280000
        k(    4) = (   0.0000000   0.4000000   0.0000000), wk =   0.0960000
        k(    5) = (  -0.2000000   0.6000000  -0.2000000), wk =   0.3840000
        k(    6) = (   0.6000000  -0.2000000   0.6000000), wk =   0.3840000
        k(    7) = (   0.4000000   0.0000000   0.4000000), wk =   0.1920000
        k(    8) = (   0.0000000   0.8000000   0.0000000), wk =   0.0960000
        k(    9) = (   0.8000000   0.0000000   0.8000000), wk =   0.1920000
        k(   10) = (   0.6000000  -0.2000000   1.0000000), wk =   0.3840000

     Dense  grid:     2229 G-vectors     FFT dimensions: (  20,  20,  20)

     Estimated max dynamical RAM per process >       2.84 MB

     Estimated total dynamical RAM >      14.19 MB

     Check: negative/imaginary core charge=   -0.000020    0.000000

     Initial potential from superposition of free atoms

     starting charge   18.97009, renormalised to   19.00000
     Starting wfcs are   10 randomized atomic wfcs +    4 random wfcs
     Checking if some PAW data can be deallocated... 

     total cpu time spent up to now is        1.2 secs

     Self-consistent Calculation

     iteration #  1     ecut=    35.00 Ry     beta= 0.70
     Davidson diagonalization with overlap
     ethr =  1.00E-02,  avg # of iterations =  4.7

     Threshold (ethr) on eigenvalues was too large:
     Diagonalizing with lowered threshold

     Davidson diagonalization with overlap
     ethr =  3.41E-04,  avg # of iterations =  1.0

     total cpu time spent up to now is        1.4 secs

     total energy              =   -1069.34161174 Ry
     Harris-Foulkes estimate   =   -1069.39161430 Ry
     estimated scf accuracy    <       0.06552305 Ry

     iteration #  2     ecut=    35.00 Ry     beta= 0.70
     Davidson diagonalization with overlap
     ethr =  3.45E-04,  avg # of iterations =  2.0

     total cpu time spent up to now is        1.6 secs

     total energy              =   -1069.36026032 Ry
     Harris-Foulkes estimate   =   -1069.36129081 Ry
     estimated scf accuracy    <       0.00313937 Ry

     iteration #  3     ecut=    35.00 Ry     beta= 0.70
     Davidson diagonalization with overlap
     ethr =  1.65E-05,  avg # of iterations =  2.2

     total cpu time spent up to now is        1.8 secs

     total energy              =   -1069.36073891 Ry
     Harris-Foulkes estimate   =   -1069.36066156 Ry
     estimated scf accuracy    <       0.00009869 Ry

     iteration #  4     ecut=    35.00 Ry     beta= 0.70
     Davidson diagonalization with overlap
     ethr =  5.19E-07,  avg # of iterations =  2.0

     total cpu time spent up to now is        2.0 secs

     total energy              =   -1069.36074839 Ry
     Harris-Foulkes estimate   =   -1069.36074803 Ry
     estimated scf accuracy    <       0.00000032 Ry

     iteration #  5     ecut=    35.00 Ry     beta= 0.70
     Davidson diagonalization with overlap
     ethr =  1.66E-09,  avg # of iterations =  2.8

     total cpu time spent up to now is        2.2 secs

     total energy              =   -1069.36074849 Ry
     Harris-Foulkes estimate   =   -1069.36074851 Ry
     estimated scf accuracy    <       0.00000004 Ry

     iteration #  6     ecut=    35.00 Ry     beta= 0.70
     Davidson diagonalization with overlap
     ethr =  2.04E-10,  avg # of iterations =  2.0

     total cpu time spent up to now is        2.4 secs

     End of self-consistent calculation

          k = 0.0000 0.0000 0.0000 (   283 PWs)   bands (ev):

    -9.4937  -9.4937  -9.4937  -9.3306  -9.3306   9.4181  47.1479  47.1479
    47.1479  48.4220  54.7051  54.7051  54.7051  57.6816

          k =-0.2000 0.2000-0.2000 (   283 PWs)   bands (ev):

    -9.6739  -9.4692  -9.4692  -9.1066  -9.1066  11.0190  36.8510  45.3980
    45.3980  48.3815  54.4422  55.5132  55.5132  57.8025

          k =-0.4000 0.4000-0.4000 (   281 PWs)   bands (ev):

    -9.5583  -9.5583  -9.4175  -8.9250  -8.9250  15.6113  25.9561  43.2570
    43.2570  48.2450  51.9069  52.7440  52.7440  63.8417

          k = 0.0000 0.4000 0.0000 (   291 PWs)   bands (ev):

    -9.8589  -9.4630  -9.4630  -9.4543  -9.0958  11.5516  40.7765  41.1296
    41.1296  45.7524  48.0101  60.5831  60.5831  60.6116

          k =-0.2000 0.6000-0.2000 (   280 PWs)   bands (ev):

    -9.7390  -9.4404  -9.3615  -8.8991  -8.7675  15.2110  30.1727  37.8394
    39.1631  45.2617  51.9089  58.6370  58.9116  60.9403

          k = 0.6000-0.2000 0.6000 (   275 PWs)   bands (ev):

    -9.6678  -9.2699  -9.1920  -8.8982  -8.7262  18.3462  25.1963  34.6071
    40.6252  45.8556  55.9730  56.2867  60.9745  62.9139

          k = 0.4000 0.0000 0.4000 (   281 PWs)   bands (ev):

    -9.5992  -9.5034  -9.3070  -9.2299  -8.7411  13.6594  33.1757  35.2454
    45.0173  48.8678  52.8626  55.3559  56.1238  58.3761

          k = 0.0000 0.8000 0.0000 (   278 PWs)   bands (ev):

    -9.9403  -9.5727  -8.8372  -8.6867  -8.6867  17.8114  28.9244  36.1893
    36.1893  43.4030  43.8506  64.6897  68.0687  68.0688

          k = 0.8000 0.0000 0.8000 (   280 PWs)   bands (ev):

    -9.9256  -9.5474  -8.9280  -8.7992  -8.7869  20.9598  26.2029  30.3849
    36.7607  43.7989  50.5677  61.8520  64.7400  66.5646

          k = 0.6000-0.2000 1.0000 (   269 PWs)   bands (ev):

    -9.4374  -9.3513  -9.1093  -8.7402  -8.5836  19.2640  28.5191  30.8182
    34.7323  50.8988  51.5091  55.1967  62.1094  66.1552

     the Fermi energy is    45.8587 ev

!    total energy              =   -1069.36074850 Ry
     Harris-Foulkes estimate   =   -1069.36074850 Ry
     estimated scf accuracy    <          2.1E-09 Ry

     total all-electron energy =    -48514.971060 Ry

     The total energy is the sum of the following terms:

     one-electron contribution =       2.29286917 Ry
     hartree contribution      =      27.54237941 Ry
     xc contribution           =     -64.32673470 Ry
     ewald contribution        =    -242.33311995 Ry
     one-center paw contrib.   =    -792.53491262 Ry
     smearing contrib. (-TS)   =      -0.00122981 Ry

     convergence has been achieved in   6 iterations

     Forces acting on atoms (cartesian axes, Ry/au):

     atom    1 type  1   force =     0.00000000    0.00000000    0.00000000

     Total force =     0.000000     Total SCF correction =     0.000000


     Computing stress (Cartesian axis) and pressure

          total   stress  (Ry/bohr**3)                   (kbar)     P= 1264.01
   0.00859254   0.00000000   0.00000000       1264.01      0.00      0.00
   0.00000000   0.00859254  -0.00000000          0.00   1264.01     -0.00
   0.00000000  -0.00000000   0.00859254          0.00     -0.00   1264.01


     Writing output data file Fr.save/

     init_run     :      0.24s CPU      0.26s WALL (       1 calls)
     electrons    :      1.08s CPU      1.23s WALL (       1 calls)
     forces       :      0.01s CPU      0.01s WALL (       1 calls)
     stress       :      0.04s CPU      0.04s WALL (       1 calls)

     Called by init_run:
     wfcinit      :      0.02s CPU      0.02s WALL (       1 calls)
     potinit      :      0.10s CPU      0.11s WALL (       1 calls)
     hinit0       :      0.11s CPU      0.11s WALL (       1 calls)

     Called by electrons:
     c_bands      :      0.39s CPU      0.43s WALL (       7 calls)
     sum_band     :      0.07s CPU      0.08s WALL (       7 calls)
     v_of_rho     :      0.01s CPU      0.01s WALL (       7 calls)
     newd         :      0.02s CPU      0.02s WALL (       7 calls)
     PAW_pot      :      0.69s CPU      0.80s WALL (       7 calls)
     mix_rho      :      0.00s CPU      0.00s WALL (       7 calls)

     Called by c_bands:
     init_us_2    :      0.01s CPU      0.01s WALL (     170 calls)
     cegterg      :      0.38s CPU      0.42s WALL (      70 calls)

     Called by sum_band:
     sum_band:bec :      0.00s CPU      0.00s WALL (      70 calls)
     addusdens    :      0.02s CPU      0.02s WALL (       7 calls)

     Called by *egterg:
     h_psi        :      0.25s CPU      0.28s WALL (     247 calls)
     s_psi        :      0.01s CPU      0.01s WALL (     247 calls)
     g_psi        :      0.00s CPU      0.00s WALL (     167 calls)
     cdiaghg      :      0.09s CPU      0.10s WALL (     227 calls)

     Called by h_psi:
     h_psi:pot    :      0.25s CPU      0.27s WALL (     247 calls)
     h_psi:calbec :      0.01s CPU      0.01s WALL (     247 calls)
     vloc_psi     :      0.23s CPU      0.25s WALL (     247 calls)
     add_vuspsi   :      0.01s CPU      0.01s WALL (     247 calls)

     General routines
     calbec       :      0.02s CPU      0.03s WALL (     367 calls)
     fft          :      0.01s CPU      0.01s WALL (     104 calls)
     ffts         :      0.00s CPU      0.00s WALL (       7 calls)
     fftw         :      0.25s CPU      0.28s WALL (    6082 calls)

     Parallel routines
     fft_scatt_xy :      0.02s CPU      0.03s WALL (    6193 calls)
     fft_scatt_yz :      0.09s CPU      0.09s WALL (    6193 calls)

     PWSCF        :     2.27s CPU         2.50s WALL


   This run was terminated on:  22:29:59   7Apr2024            

=------------------------------------------------------------------------------=
   JOB DONE.
=------------------------------------------------------------------------------=
