
     Program PWSCF v.6.3MaX starts on  7Apr2024 at 22:42:57 

     This program is part of the open-source Quantum ESPRESSO suite
     for quantum simulation of materials; please cite
         "P. Giannozzi et al., J. Phys.:Condens. Matter 21 395502 (2009);
         "P. Giannozzi et al., J. Phys.:Condens. Matter 29 465901 (2017);
          URL http://www.quantum-espresso.org", 
     in publications or presentations arising from this work. More details at
     http://www.quantum-espresso.org/quote

     Parallel version (MPI), running on     5 processors

     MPI processes distributed on     1 nodes
     R & G space division:  proc/nbgrp/npool/nimage =       5
     Waiting for input...
     Reading input from standard input

     Current dimensions of program PWSCF are:
     Max number of different atomic species (ntypx) = 10
     Max number of k-points (npk) =  40000
     Max angular momentum in pseudopotentials (lmaxx) =  3

     Subspace diagonalization in iterative solution of the eigenvalue problem:
     a serial algorithm will be used


     Parallelization info
     --------------------
     sticks:   dense  smooth     PW     G-vecs:    dense   smooth      PW
     Min          75      75     24                 1003     1003     187
     Max          76      76     25                 1007     1007     191
     Sum         379     379    121                 5029     5029     941



     bravais-lattice index     =            2
     lattice parameter (alat)  =       6.8300  a.u.
     unit-cell volume          =      79.6530 (a.u.)^3
     number of atoms/cell      =            1
     number of atomic types    =            1
     number of electrons       =        19.00
     number of Kohn-Sham states=           14
     kinetic-energy cutoff     =      60.0000  Ry
     charge density cutoff     =     240.0000  Ry
     convergence threshold     =      1.0E-08
     mixing beta               =       0.7000
     number of iterations used =            8  plain     mixing
     Exchange-correlation      = LDA ( 1  1  0  0 0 0)

     celldm(1)=   6.830000  celldm(2)=   0.000000  celldm(3)=   0.000000
     celldm(4)=   0.000000  celldm(5)=   0.000000  celldm(6)=   0.000000

     crystal axes: (cart. coord. in units of alat)
               a(1) = (  -0.500000   0.000000   0.500000 )  
               a(2) = (   0.000000   0.500000   0.500000 )  
               a(3) = (  -0.500000   0.500000   0.000000 )  

     reciprocal axes: (cart. coord. in units 2 pi/alat)
               b(1) = ( -1.000000 -1.000000  1.000000 )  
               b(2) = (  1.000000  1.000000  1.000000 )  
               b(3) = ( -1.000000  1.000000 -1.000000 )  


     PseudoPot. # 1 for Fr read from file:
     /home/lorenzo/pseudos/Fr/Fr.pz-spdn-rrkjus_psl.1.0.0.UPF
     MD5 check sum: 5665a43a3d1ea02b0b7dc7a0ae9ace04
     Pseudo is Ultrasoft + core correction, Zval = 19.0
     Generated using "atomic" code by A. Dal Corso v.6.2.2
     Using radial grid of 1287 points,  6 beta functions with: 
                l(1) =   0
                l(2) =   0
                l(3) =   1
                l(4) =   1
                l(5) =   2
                l(6) =   2
     Q(r) pseudized with 0 coefficients 


     atomic species   valence    mass     pseudopotential
        Fr            19.00   223.00000     Fr( 1.00)

     48 Sym. Ops., with inversion, found



   Cartesian axes

     site n.     atom                  positions (alat units)
         1           Fr  tau(   1) = (   0.0000000   0.0000000   0.0000000  )

     number of k points=    29  gaussian smearing, width (Ry)=  0.0100
                       cart. coord. in units 2pi/alat
        k(    1) = (   0.0000000   0.0000000   0.0000000), wk =   0.0039062
        k(    2) = (  -0.1250000   0.1250000  -0.1250000), wk =   0.0312500
        k(    3) = (  -0.2500000   0.2500000  -0.2500000), wk =   0.0312500
        k(    4) = (  -0.3750000   0.3750000  -0.3750000), wk =   0.0312500
        k(    5) = (   0.5000000  -0.5000000   0.5000000), wk =   0.0156250
        k(    6) = (   0.0000000   0.2500000   0.0000000), wk =   0.0234375
        k(    7) = (  -0.1250000   0.3750000  -0.1250000), wk =   0.0937500
        k(    8) = (  -0.2500000   0.5000000  -0.2500000), wk =   0.0937500
        k(    9) = (   0.6250000  -0.3750000   0.6250000), wk =   0.0937500
        k(   10) = (   0.5000000  -0.2500000   0.5000000), wk =   0.0937500
        k(   11) = (   0.3750000  -0.1250000   0.3750000), wk =   0.0937500
        k(   12) = (   0.2500000   0.0000000   0.2500000), wk =   0.0468750
        k(   13) = (   0.0000000   0.5000000   0.0000000), wk =   0.0234375
        k(   14) = (  -0.1250000   0.6250000  -0.1250000), wk =   0.0937500
        k(   15) = (   0.7500000  -0.2500000   0.7500000), wk =   0.0937500
        k(   16) = (   0.6250000  -0.1250000   0.6250000), wk =   0.0937500
        k(   17) = (   0.5000000   0.0000000   0.5000000), wk =   0.0468750
        k(   18) = (   0.0000000   0.7500000   0.0000000), wk =   0.0234375
        k(   19) = (   0.8750000  -0.1250000   0.8750000), wk =   0.0937500
        k(   20) = (   0.7500000   0.0000000   0.7500000), wk =   0.0468750
        k(   21) = (   0.0000000  -1.0000000   0.0000000), wk =   0.0117188
        k(   22) = (  -0.2500000   0.5000000   0.0000000), wk =   0.0937500
        k(   23) = (   0.6250000  -0.3750000   0.8750000), wk =   0.1875000
        k(   24) = (   0.5000000  -0.2500000   0.7500000), wk =   0.0937500
        k(   25) = (   0.7500000  -0.2500000   1.0000000), wk =   0.0937500
        k(   26) = (   0.6250000  -0.1250000   0.8750000), wk =   0.1875000
        k(   27) = (   0.5000000   0.0000000   0.7500000), wk =   0.0937500
        k(   28) = (  -0.2500000  -1.0000000   0.0000000), wk =   0.0468750
        k(   29) = (  -0.5000000  -1.0000000   0.0000000), wk =   0.0234375

     Dense  grid:     5029 G-vectors     FFT dimensions: (  24,  24,  24)

     Estimated max dynamical RAM per process >       5.89 MB

     Estimated total dynamical RAM >      29.46 MB

     Check: negative/imaginary core charge=   -0.000002    0.000000

     Initial potential from superposition of free atoms

     starting charge   18.97647, renormalised to   19.00000
     Starting wfcs are   10 randomized atomic wfcs +    4 random wfcs

     total cpu time spent up to now is        1.1 secs

     Self-consistent Calculation

     iteration #  1     ecut=    60.00 Ry     beta= 0.70
     Davidson diagonalization with overlap
     ethr =  1.00E-02,  avg # of iterations =  4.8

     Threshold (ethr) on eigenvalues was too large:
     Diagonalizing with lowered threshold

     Davidson diagonalization with overlap
     ethr =  9.93E-05,  avg # of iterations =  1.7

     total cpu time spent up to now is        1.8 secs

     total energy              =    -282.47274320 Ry
     Harris-Foulkes estimate   =    -282.48563321 Ry
     estimated scf accuracy    <       0.01871203 Ry

     iteration #  2     ecut=    60.00 Ry     beta= 0.70
     Davidson diagonalization with overlap
     ethr =  9.85E-05,  avg # of iterations =  2.0

     total cpu time spent up to now is        2.1 secs

     total energy              =    -282.47575327 Ry
     Harris-Foulkes estimate   =    -282.47622996 Ry
     estimated scf accuracy    <       0.00063595 Ry

     iteration #  3     ecut=    60.00 Ry     beta= 0.70
     Davidson diagonalization with overlap
     ethr =  3.35E-06,  avg # of iterations =  2.6

     total cpu time spent up to now is        2.4 secs

     total energy              =    -282.47585913 Ry
     Harris-Foulkes estimate   =    -282.47587758 Ry
     estimated scf accuracy    <       0.00003056 Ry

     iteration #  4     ecut=    60.00 Ry     beta= 0.70
     Davidson diagonalization with overlap
     ethr =  1.61E-07,  avg # of iterations =  2.0

     total cpu time spent up to now is        2.7 secs

     total energy              =    -282.47586296 Ry
     Harris-Foulkes estimate   =    -282.47586299 Ry
     estimated scf accuracy    <       0.00000009 Ry

     iteration #  5     ecut=    60.00 Ry     beta= 0.70
     Davidson diagonalization with overlap
     ethr =  4.62E-10,  avg # of iterations =  2.4

     total cpu time spent up to now is        3.0 secs

     End of self-consistent calculation

          k = 0.0000 0.0000 0.0000 (   609 PWs)   bands (ev):

    -9.5210  -9.5210  -9.5210  -9.1740  -9.1740   9.0895  46.8866  46.8866
    46.8866  48.0870  53.6737  53.6737  53.6737  57.5566

          k =-0.1250 0.1250-0.1250 (   618 PWs)   bands (ev):

    -9.5153  -9.4758  -9.4758  -9.1719  -9.1719   9.7152  41.2049  46.0095
    46.0095  47.9618  55.1485  55.1485  55.5107  56.5641

          k =-0.2500 0.2500-0.2500 (   616 PWs)   bands (ev):

    -9.5080  -9.4277  -9.4277  -9.0989  -9.0989  11.5918  33.5142  44.4280
    44.4280  47.9984  53.1611  53.8273  53.8273  58.4956

          k =-0.3750 0.3750-0.3750 (   613 PWs)   bands (ev):

    -9.5072  -9.4480  -9.4480  -8.9540  -8.9540  14.5952  26.7927  43.1389
    43.1389  47.9323  51.4738  52.1381  52.1381  62.5527

          k = 0.5000-0.5000 0.5000 (   628 PWs)   bands (ev):

    -9.5104  -9.4652  -9.4652  -8.8859  -8.8859  17.1138  23.0073  42.6457
    42.6457  47.8524  50.9531  51.5911  51.5911  65.1339

          k = 0.0000 0.2500 0.0000 (   609 PWs)   bands (ev):

    -9.5695  -9.4237  -9.4237  -9.2240  -9.1331   9.9235  43.5075  43.5075
    43.9660  46.4745  51.7061  56.6447  57.4608  57.4608

          k =-0.1250 0.3750-0.1250 (   616 PWs)   bands (ev):

    -9.5808  -9.3628  -9.3449  -9.2237  -9.0633  11.3841  36.3265  41.5653
    43.0502  47.2784  49.8781  56.3656  57.9795  58.2889

          k =-0.2500 0.5000-0.2500 (   620 PWs)   bands (ev):

    -9.5501  -9.3961  -9.3499  -9.0996  -8.9337  14.0361  29.3129  40.6085
    40.8262  46.0988  53.7961  55.6238  55.6525  56.8738

          k = 0.6250-0.3750 0.6250 (   620 PWs)   bands (ev):

    -9.5192  -9.4212  -9.3793  -8.9797  -8.8813  17.1632  24.1517  38.8522
    40.8650  45.9571  53.7693  53.9107  56.2479  60.6594

          k = 0.5000-0.2500 0.5000 (   621 PWs)   bands (ev):

    -9.4802  -9.4427  -9.3822  -8.9715  -8.9391  16.2120  25.5310  37.8573
    42.4152  46.8676  52.5878  53.0221  57.6849  61.6583

          k = 0.3750-0.1250 0.3750 (   622 PWs)   bands (ev):

    -9.4851  -9.4250  -9.3607  -9.1464  -8.9963  13.0294  31.5541  38.0414
    45.0206  48.8128  51.5524  52.9396  57.0346  58.5555

          k = 0.2500 0.0000 0.2500 (   614 PWs)   bands (ev):

    -9.5173  -9.4153  -9.4139  -9.2124  -9.0994  10.7588  38.3399  39.8432
    47.2729  49.6683  52.0540  53.7224  54.2459  56.4707

          k = 0.0000 0.5000 0.0000 (   632 PWs)   bands (ev):

    -9.6861  -9.3568  -9.1838  -9.1838  -9.0354  12.4263  37.6899  39.1891
    39.1891  44.5034  45.6458  61.8317  61.8317  62.6044

          k =-0.1250 0.6250-0.1250 (   618 PWs)   bands (ev):

    -9.6924  -9.4120  -9.1385  -9.0754  -8.9239  14.6769  32.0656  36.5201
    37.9308  44.1780  47.5985  60.4171  61.1102  63.3944

          k = 0.7500-0.2500 0.7500 (   626 PWs)   bands (ev):

    -9.6255  -9.3688  -9.1691  -9.0671  -8.8703  17.7365  26.8070  33.5628
    38.0311  44.1144  53.2003  58.3017  58.9680  63.6747

          k = 0.6250-0.1250 0.6250 (   630 PWs)   bands (ev):

    -9.5540  -9.2802  -9.1923  -9.0972  -8.9710  18.4864  25.9230  31.7205
    39.5348  44.8905  56.9831  57.1986  59.4320  62.2245

          k = 0.5000 0.0000 0.5000 (   624 PWs)   bands (ev):

    -9.4789  -9.3774  -9.1941  -9.1628  -9.0083  15.5795  30.1253  31.9729
    42.2097  46.5422  54.9012  56.2932  57.1630  59.0279

          k = 0.0000 0.7500 0.0000 (   628 PWs)   bands (ev):

    -9.8009  -9.5057  -8.9331  -8.9327  -8.9327  16.5131  30.0699  36.2635
    36.2635  43.1509  43.3110  64.2229  66.5980  66.5980

          k = 0.8750-0.1250 0.8750 (   628 PWs)   bands (ev):

    -9.7721  -9.5112  -8.9595  -8.9097  -8.8534  19.1991  26.8143  32.7482
    35.9730  43.0426  46.5029  62.4303  65.2358  69.0016

          k = 0.7500 0.0000 0.7500 (   626 PWs)   bands (ev):

    -9.6592  -9.3728  -9.0350  -9.0153  -8.9228  20.3887  26.5956  28.8869
    37.1349  43.5918  52.6723  60.3002  62.5188  64.7465

          k = 0.0000-1.0000 0.0000 (   636 PWs)   bands (ev):

    -9.8489  -9.5698  -8.8911  -8.8273  -8.8273  20.6132  24.6465  35.2374
    35.2374  42.4863  42.9221  64.0669  70.0365  70.9639

          k =-0.2500 0.5000 0.0000 (   624 PWs)   bands (ev):

    -9.5816  -9.3785  -9.2426  -9.1938  -8.9826  13.2414  33.7912  35.9116
    41.5635  48.6685  48.6893  55.1771  58.8445  61.6387

          k = 0.6250-0.3750 0.8750 (   627 PWs)   bands (ev):

    -9.5127  -9.4209  -9.2378  -9.0816  -8.9326  16.1490  28.2192  34.4913
    38.8850  47.9850  52.0934  54.9992  59.5754  62.2384

          k = 0.5000-0.2500 0.7500 (   638 PWs)   bands (ev):

    -9.4802  -9.4358  -9.2089  -9.0773  -8.9071  18.4632  24.7824  34.4338
    37.6783  47.7421  51.9747  59.7603  60.2396  60.9092

          k = 0.7500-0.2500 1.0000 (   636 PWs)   bands (ev):

    -9.6719  -9.4505  -9.1215  -8.9370  -8.9177  17.1921  29.4986  33.2758
    35.2287  47.1065  47.1671  57.9208  65.6757  65.8350

          k = 0.6250-0.1250 0.8750 (   632 PWs)   bands (ev):

    -9.5657  -9.3816  -9.1750  -9.0279  -8.8737  19.8056  26.8810  30.4052
    34.5484  47.4745  52.9700  55.9058  61.1099  65.4023

          k = 0.5000 0.0000 0.7500 (   637 PWs)   bands (ev):

    -9.4888  -9.3484  -9.2223  -9.0589  -8.9449  18.8951  28.1974  29.3219
    36.1170  48.5594  53.8320  56.0452  59.7327  63.1240

          k =-0.2500-1.0000 0.0000 (   632 PWs)   bands (ev):

    -9.7096  -9.4971  -8.9872  -8.9578  -8.8264  20.7585  25.6291  32.3467
    33.2170  46.5945  46.6541  60.4030  64.0412  68.1234

          k =-0.5000-1.0000 0.0000 (   616 PWs)   bands (ev):

    -9.3981  -9.3576  -9.3576  -9.0496  -8.8256  20.9173  28.3893  28.3893
    31.8684  53.0481  53.2457  53.2457  56.2367  69.8465

     the Fermi energy is    46.9150 ev

!    total energy              =    -282.47586300 Ry
     Harris-Foulkes estimate   =    -282.47586300 Ry
     estimated scf accuracy    <          2.6E-09 Ry

     The total energy is the sum of the following terms:

     one-electron contribution =      -4.43505892 Ry
     hartree contribution      =      28.18813817 Ry
     xc contribution           =     -63.89550708 Ry
     ewald contribution        =    -242.33311991 Ry
     smearing contrib. (-TS)   =      -0.00031526 Ry

     convergence has been achieved in   5 iterations

     Forces acting on atoms (cartesian axes, Ry/au):

     atom    1 type  1   force =     0.00000000    0.00000000    0.00000000

     Total force =     0.000000     Total SCF correction =     0.000000


     Computing stress (Cartesian axis) and pressure

          total   stress  (Ry/bohr**3)                   (kbar)     P= 6931.96
   0.04712254   0.00000000   0.00000000       6931.96      0.00      0.00
   0.00000000   0.04712254  -0.00000000          0.00   6931.96     -0.00
   0.00000000  -0.00000000   0.04712254          0.00     -0.00   6931.96


     Writing output data file Fr.save/

     init_run     :      0.24s CPU      0.25s WALL (       1 calls)
     electrons    :      1.75s CPU      1.86s WALL (       1 calls)
     forces       :      0.04s CPU      0.04s WALL (       1 calls)
     stress       :      0.14s CPU      0.14s WALL (       1 calls)

     Called by init_run:
     wfcinit      :      0.09s CPU      0.09s WALL (       1 calls)
     potinit      :      0.00s CPU      0.00s WALL (       1 calls)
     hinit0       :      0.14s CPU      0.15s WALL (       1 calls)

     Called by electrons:
     c_bands      :      1.47s CPU      1.56s WALL (       6 calls)
     sum_band     :      0.25s CPU      0.27s WALL (       6 calls)
     v_of_rho     :      0.00s CPU      0.00s WALL (       6 calls)
     newd         :      0.03s CPU      0.03s WALL (       6 calls)
     mix_rho      :      0.00s CPU      0.00s WALL (       6 calls)

     Called by c_bands:
     init_us_2    :      0.04s CPU      0.04s WALL (     435 calls)
     cegterg      :      1.42s CPU      1.50s WALL (     174 calls)

     Called by sum_band:
     sum_band:bec :      0.00s CPU      0.00s WALL (     174 calls)
     addusdens    :      0.03s CPU      0.03s WALL (       6 calls)

     Called by *egterg:
     h_psi        :      0.97s CPU      1.03s WALL (     652 calls)
     s_psi        :      0.03s CPU      0.03s WALL (     652 calls)
     g_psi        :      0.00s CPU      0.00s WALL (     449 calls)
     cdiaghg      :      0.26s CPU      0.28s WALL (     594 calls)

     Called by h_psi:
     h_psi:pot    :      0.96s CPU      1.02s WALL (     652 calls)
     h_psi:calbec :      0.05s CPU      0.05s WALL (     652 calls)
     vloc_psi     :      0.88s CPU      0.93s WALL (     652 calls)
     add_vuspsi   :      0.03s CPU      0.04s WALL (     652 calls)

     General routines
     calbec       :      0.09s CPU      0.09s WALL (     971 calls)
     fft          :      0.00s CPU      0.01s WALL (      34 calls)
     ffts         :      0.00s CPU      0.00s WALL (       6 calls)
     fftw         :      0.98s CPU      1.04s WALL (   15658 calls)

     Parallel routines
     fft_scatt_xy :      0.09s CPU      0.09s WALL (   15698 calls)
     fft_scatt_yz :      0.31s CPU      0.32s WALL (   15698 calls)

     PWSCF        :     3.04s CPU         3.21s WALL


   This run was terminated on:  22:43: 0   7Apr2024            

=------------------------------------------------------------------------------=
   JOB DONE.
=------------------------------------------------------------------------------=
