
     Program PWSCF v.6.3MaX starts on  7Apr2024 at 22:17:15 

     This program is part of the open-source Quantum ESPRESSO suite
     for quantum simulation of materials; please cite
         "P. Giannozzi et al., J. Phys.:Condens. Matter 21 395502 (2009);
         "P. Giannozzi et al., J. Phys.:Condens. Matter 29 465901 (2017);
          URL http://www.quantum-espresso.org", 
     in publications or presentations arising from this work. More details at
     http://www.quantum-espresso.org/quote

     Parallel version (MPI), running on     5 processors

     MPI processes distributed on     1 nodes
     R & G space division:  proc/nbgrp/npool/nimage =       5
     Waiting for input...
     Reading input from standard input

     Current dimensions of program PWSCF are:
     Max number of different atomic species (ntypx) = 10
     Max number of k-points (npk) =  40000
     Max angular momentum in pseudopotentials (lmaxx) =  3
               file Fr.pbe-spdn-kjpaw_psl.1.0.0.UPF: wavefunction(s)  6P renormalized

     Subspace diagonalization in iterative solution of the eigenvalue problem:
     a serial algorithm will be used


     Parallelization info
     --------------------
     sticks:   dense  smooth     PW     G-vecs:    dense   smooth      PW
     Min         129     129     39                 2168     2168     365
     Max         130     130     40                 2171     2171     368
     Sum         649     649    199                10849    10849    1837



     bravais-lattice index     =            2
     lattice parameter (alat)  =       6.8300  a.u.
     unit-cell volume          =      79.6530 (a.u.)^3
     number of atoms/cell      =            1
     number of atomic types    =            1
     number of electrons       =        19.00
     number of Kohn-Sham states=           14
     kinetic-energy cutoff     =     100.0000  Ry
     charge density cutoff     =     400.0000  Ry
     convergence threshold     =      1.0E-08
     mixing beta               =       0.7000
     number of iterations used =            8  plain     mixing
     Exchange-correlation      = SLA PW PBX PBC ( 1  4  3  4 0 0)

     celldm(1)=   6.830000  celldm(2)=   0.000000  celldm(3)=   0.000000
     celldm(4)=   0.000000  celldm(5)=   0.000000  celldm(6)=   0.000000

     crystal axes: (cart. coord. in units of alat)
               a(1) = (  -0.500000   0.000000   0.500000 )  
               a(2) = (   0.000000   0.500000   0.500000 )  
               a(3) = (  -0.500000   0.500000   0.000000 )  

     reciprocal axes: (cart. coord. in units 2 pi/alat)
               b(1) = ( -1.000000 -1.000000  1.000000 )  
               b(2) = (  1.000000  1.000000  1.000000 )  
               b(3) = ( -1.000000  1.000000 -1.000000 )  


     PseudoPot. # 1 for Fr read from file:
     /home/lorenzo/pseudos/Fr/Fr.pbe-spdn-kjpaw_psl.1.0.0.UPF
     MD5 check sum: 362a188b966a64328b94f1ef5f32e8c4
     Pseudo is Projector augmented-wave + core cor, Zval = 19.0
     Generated using "atomic" code by A. Dal Corso v.6.2.2
     Shape of augmentation charge: PSQ
     Using radial grid of 1287 points,  6 beta functions with: 
                l(1) =   0
                l(2) =   0
                l(3) =   1
                l(4) =   1
                l(5) =   2
                l(6) =   2
     Q(r) pseudized with 0 coefficients 


     atomic species   valence    mass     pseudopotential
        Fr            19.00   223.00000     Fr( 1.00)

     48 Sym. Ops., with inversion, found



   Cartesian axes

     site n.     atom                  positions (alat units)
         1           Fr  tau(   1) = (   0.0000000   0.0000000   0.0000000  )

     number of k points=    20  gaussian smearing, width (Ry)=  0.0100
                       cart. coord. in units 2pi/alat
        k(    1) = (   0.0000000   0.0000000   0.0000000), wk =   0.0058309
        k(    2) = (  -0.1428571   0.1428571  -0.1428571), wk =   0.0466472
        k(    3) = (  -0.2857143   0.2857143  -0.2857143), wk =   0.0466472
        k(    4) = (  -0.4285714   0.4285714  -0.4285714), wk =   0.0466472
        k(    5) = (   0.0000000   0.2857143   0.0000000), wk =   0.0349854
        k(    6) = (  -0.1428571   0.4285714  -0.1428571), wk =   0.1399417
        k(    7) = (  -0.2857143   0.5714286  -0.2857143), wk =   0.1399417
        k(    8) = (   0.5714286  -0.2857143   0.5714286), wk =   0.1399417
        k(    9) = (   0.4285714  -0.1428571   0.4285714), wk =   0.1399417
        k(   10) = (   0.2857143  -0.0000000   0.2857143), wk =   0.0699708
        k(   11) = (   0.0000000   0.5714286   0.0000000), wk =   0.0349854
        k(   12) = (  -0.1428571   0.7142857  -0.1428571), wk =   0.1399417
        k(   13) = (   0.7142857  -0.1428571   0.7142857), wk =   0.1399417
        k(   14) = (   0.5714286   0.0000000   0.5714286), wk =   0.0699708
        k(   15) = (   0.0000000   0.8571429   0.0000000), wk =   0.0349854
        k(   16) = (   0.8571429  -0.0000000   0.8571429), wk =   0.0699708
        k(   17) = (  -0.2857143   0.5714286   0.0000000), wk =   0.1399417
        k(   18) = (   0.5714286  -0.2857143   0.8571429), wk =   0.2798834
        k(   19) = (   0.7142857  -0.1428571   1.0000000), wk =   0.1399417
        k(   20) = (   0.5714286   0.0000000   0.8571429), wk =   0.1399417

     Dense  grid:    10849 G-vectors     FFT dimensions: (  32,  32,  32)

     Estimated max dynamical RAM per process >      11.08 MB

     Estimated total dynamical RAM >      55.39 MB

     Initial potential from superposition of free atoms

     starting charge   18.97009, renormalised to   19.00000
     Starting wfcs are   10 randomized atomic wfcs +    4 random wfcs
     Checking if some PAW data can be deallocated... 

     total cpu time spent up to now is        1.5 secs

     Self-consistent Calculation

     iteration #  1     ecut=   100.00 Ry     beta= 0.70
     Davidson diagonalization with overlap
     ethr =  1.00E-02,  avg # of iterations =  4.8

     Threshold (ethr) on eigenvalues was too large:
     Diagonalizing with lowered threshold

     Davidson diagonalization with overlap
     ethr =  1.10E-04,  avg # of iterations =  1.7

     total cpu time spent up to now is        2.4 secs

     total energy              =   -1069.96837747 Ry
     Harris-Foulkes estimate   =   -1069.98186171 Ry
     estimated scf accuracy    <       0.02086796 Ry

     iteration #  2     ecut=   100.00 Ry     beta= 0.70
     Davidson diagonalization with overlap
     ethr =  1.10E-04,  avg # of iterations =  2.0

     total cpu time spent up to now is        2.9 secs

     total energy              =   -1069.97172379 Ry
     Harris-Foulkes estimate   =   -1069.97207259 Ry
     estimated scf accuracy    <       0.00065630 Ry

     iteration #  3     ecut=   100.00 Ry     beta= 0.70
     Davidson diagonalization with overlap
     ethr =  3.45E-06,  avg # of iterations =  3.0

     total cpu time spent up to now is        3.5 secs

     total energy              =   -1069.97180901 Ry
     Harris-Foulkes estimate   =   -1069.97181522 Ry
     estimated scf accuracy    <       0.00002242 Ry

     iteration #  4     ecut=   100.00 Ry     beta= 0.70
     Davidson diagonalization with overlap
     ethr =  1.18E-07,  avg # of iterations =  2.0

     total cpu time spent up to now is        4.1 secs

     total energy              =   -1069.97181451 Ry
     Harris-Foulkes estimate   =   -1069.97181394 Ry
     estimated scf accuracy    <       0.00000026 Ry

     iteration #  5     ecut=   100.00 Ry     beta= 0.70
     Davidson diagonalization with overlap
     ethr =  1.37E-09,  avg # of iterations =  2.2

     total cpu time spent up to now is        4.6 secs

     total energy              =   -1069.97181461 Ry
     Harris-Foulkes estimate   =   -1069.97181455 Ry
     estimated scf accuracy    <       0.00000002 Ry

     iteration #  6     ecut=   100.00 Ry     beta= 0.70
     Davidson diagonalization with overlap
     ethr =  1.21E-10,  avg # of iterations =  2.0

     total cpu time spent up to now is        5.2 secs

     End of self-consistent calculation

          k = 0.0000 0.0000 0.0000 (  1363 PWs)   bands (ev):

    -9.2868  -9.2868  -9.2868  -8.9427  -8.9427   9.4622  47.2560  47.2560
    47.2560  48.3112  53.8713  53.8713  53.8713  57.8132

          k =-0.1429 0.1429-0.1429 (  1354 PWs)   bands (ev):

    -9.2799  -9.2308  -9.2308  -8.9361  -8.9361  10.2808  40.4064  46.1473
    46.1473  48.2052  55.4957  55.7739  55.7739  56.3874

          k =-0.2857 0.2857-0.2857 (  1356 PWs)   bands (ev):

    -9.2719  -9.1963  -9.1963  -8.8264  -8.8264  12.7291  31.7678  44.3540
    44.3540  48.2183  52.8221  53.4387  53.4387  59.8937

          k =-0.4286 0.4286-0.4286 (  1344 PWs)   bands (ev):

    -9.2724  -9.2263  -9.2263  -8.6770  -8.6770  16.4266  24.8014  43.1669
    43.1669  48.0962  51.3932  51.9611  51.9611  64.4338

          k = 0.0000 0.2857 0.0000 (  1343 PWs)   bands (ev):

    -9.3488  -9.1614  -9.1614  -9.0076  -8.8899  10.5532  43.1681  43.1681
    43.6325  46.3610  50.8083  57.5961  58.4112  58.4112

          k =-0.1429 0.4286-0.1429 (  1348 PWs)   bands (ev):

    -9.3581  -9.1233  -9.0815  -8.9728  -8.7921  12.4613  34.9769  41.0965
    42.2435  46.6982  50.2210  57.2689  58.2034  58.6700

          k =-0.2857 0.5714-0.2857 (  1353 PWs)   bands (ev):

    -9.3158  -9.1620  -9.1049  -8.8300  -8.6611  15.8369  27.4507  39.4994
    40.4682  45.7757  55.2235  55.6374  56.3524  57.7572

          k = 0.5714-0.2857 0.5714 (  1346 PWs)   bands (ev):

    -9.2731  -9.1786  -9.1295  -8.7319  -8.6840  17.9930  24.2568  37.5939
    41.5390  46.2556  53.8914  54.0452  58.2510  62.9799

          k = 0.4286-0.1429 0.4286 (  1350 PWs)   bands (ev):

    -9.2274  -9.2080  -9.1122  -8.8682  -8.7383  14.5782  29.8068  37.1901
    44.2329  48.0763  52.5686  53.5007  58.4446  59.7513

          k = 0.2857-0.0000 0.2857 (  1353 PWs)   bands (ev):

    -9.2761  -9.1760  -9.1492  -8.9876  -8.8387  11.6451  37.2751  38.8885
    47.3415  50.4955  51.3499  53.7324  54.6433  56.9750

          k = 0.0000 0.5714 0.0000 (  1343 PWs)   bands (ev):

    -9.4873  -9.1696  -8.8712  -8.8712  -8.7704  13.8229  35.9048  38.4938
    38.4938  44.2651  44.8641  63.3441  63.3441  64.7505

          k =-0.1429 0.7143-0.1429 (  1331 PWs)   bands (ev):

    -9.4772  -9.2118  -8.8499  -8.7801  -8.6496  16.7067  30.3652  34.6987
    37.4667  43.8824  48.1444  61.0414  62.1735  65.8594

          k = 0.7143-0.1429 0.7143 (  1341 PWs)   bands (ev):

    -9.3832  -9.0886  -8.8880  -8.8496  -8.6718  19.7627  26.2415  31.2955
    38.2916  44.2408  55.0312  58.9133  59.8073  65.3539

          k = 0.5714 0.0000 0.5714 (  1338 PWs)   bands (ev):

    -9.2890  -9.0575  -8.9244  -8.8515  -8.8421  17.7165  29.0619  30.4127
    40.8479  45.6649  57.1207  57.4729  59.5396  60.3169

          k = 0.0000 0.8571 0.0000 (  1339 PWs)   bands (ev):

    -9.5974  -9.3137  -8.6737  -8.6290  -8.6290  19.0289  27.4136  35.8868
    35.8868  42.9108  43.2274  64.4234  69.1892  69.1892

          k = 0.8571-0.0000 0.8571 (  1338 PWs)   bands (ev):

    -9.5307  -9.2783  -8.7048  -8.6679  -8.6250  21.1475  25.5674  32.0626
    36.1811  43.1831  47.4308  62.6927  66.5517  68.2804

          k =-0.2857 0.5714 0.0000 (  1337 PWs)   bands (ev):

    -9.3421  -9.1622  -8.9995  -8.8820  -8.7228  14.8629  32.4324  34.6736
    39.9681  49.0688  49.2672  55.1123  60.5211  63.5814

          k = 0.5714-0.2857 0.8571 (  1341 PWs)   bands (ev):

    -9.2534  -9.1880  -8.9670  -8.8409  -8.6880  18.3359  26.8762  33.4363
    37.2993  48.6056  52.4420  56.4230  61.7249  62.5655

          k = 0.7143-0.1429 1.0000 (  1344 PWs)   bands (ev):

    -9.4212  -9.2306  -8.8554  -8.7123  -8.6307  19.6949  27.8072  32.3352
    33.8685  47.9003  47.9702  58.4298  64.3204  68.6905

          k = 0.5714 0.0000 0.8571 (  1356 PWs)   bands (ev):

    -9.2863  -9.0924  -9.0078  -8.8201  -8.6341  20.8615  28.0286  28.7479
    34.3520  48.7521  55.1786  55.7311  58.1765  66.2014

     the Fermi energy is    47.3625 ev

!    total energy              =   -1069.97181461 Ry
     Harris-Foulkes estimate   =   -1069.97181461 Ry
     estimated scf accuracy    <          2.4E-10 Ry

     total all-electron energy =    -48515.582126 Ry

     The total energy is the sum of the following terms:

     one-electron contribution =       1.51381265 Ry
     hartree contribution      =      28.14309239 Ry
     xc contribution           =     -64.58398129 Ry
     ewald contribution        =    -242.33311988 Ry
     one-center paw contrib.   =    -792.71124554 Ry
     smearing contrib. (-TS)   =      -0.00037295 Ry

     convergence has been achieved in   6 iterations

     Forces acting on atoms (cartesian axes, Ry/au):

     atom    1 type  1   force =     0.00000000    0.00000000    0.00000000

     Total force =     0.000000     Total SCF correction =     0.000000


     Computing stress (Cartesian axis) and pressure

          total   stress  (Ry/bohr**3)                   (kbar)     P= 7151.70
   0.04861630   0.00000000   0.00000000       7151.70      0.00      0.00
   0.00000000   0.04861630  -0.00000000          0.00   7151.70     -0.00
   0.00000000  -0.00000000   0.04861630          0.00     -0.00   7151.70


     Writing output data file Fr.save/

     init_run     :      0.49s CPU      0.52s WALL (       1 calls)
     electrons    :      3.56s CPU      3.78s WALL (       1 calls)
     forces       :      0.05s CPU      0.06s WALL (       1 calls)
     stress       :      0.17s CPU      0.17s WALL (       1 calls)

     Called by init_run:
     wfcinit      :      0.10s CPU      0.11s WALL (       1 calls)
     potinit      :      0.13s CPU      0.15s WALL (       1 calls)
     hinit0       :      0.22s CPU      0.22s WALL (       1 calls)

     Called by electrons:
     c_bands      :      2.25s CPU      2.41s WALL (       7 calls)
     sum_band     :      0.53s CPU      0.55s WALL (       7 calls)
     v_of_rho     :      0.05s CPU      0.05s WALL (       7 calls)
     newd         :      0.09s CPU      0.10s WALL (       7 calls)
     PAW_pot      :      0.76s CPU      0.80s WALL (       7 calls)
     mix_rho      :      0.00s CPU      0.00s WALL (       7 calls)

     Called by c_bands:
     init_us_2    :      0.06s CPU      0.06s WALL (     340 calls)
     cegterg      :      2.17s CPU      2.32s WALL (     140 calls)

     Called by sum_band:
     sum_band:bec :      0.00s CPU      0.00s WALL (     140 calls)
     addusdens    :      0.08s CPU      0.08s WALL (       7 calls)

     Called by *egterg:
     h_psi        :      1.59s CPU      1.73s WALL (     519 calls)
     s_psi        :      0.06s CPU      0.06s WALL (     519 calls)
     g_psi        :      0.01s CPU      0.01s WALL (     359 calls)
     cdiaghg      :      0.23s CPU      0.24s WALL (     479 calls)

     Called by h_psi:
     h_psi:pot    :      1.58s CPU      1.72s WALL (     519 calls)
     h_psi:calbec :      0.08s CPU      0.09s WALL (     519 calls)
     vloc_psi     :      1.43s CPU      1.57s WALL (     519 calls)
     add_vuspsi   :      0.06s CPU      0.06s WALL (     519 calls)

     General routines
     calbec       :      0.14s CPU      0.14s WALL (     759 calls)
     fft          :      0.03s CPU      0.03s WALL (     104 calls)
     ffts         :      0.00s CPU      0.00s WALL (       7 calls)
     fftw         :      1.65s CPU      1.79s WALL (   12260 calls)

     Parallel routines
     fft_scatt_xy :      0.15s CPU      0.17s WALL (   12371 calls)
     fft_scatt_yz :      0.62s CPU      0.67s WALL (   12371 calls)

     PWSCF        :     5.23s CPU         5.54s WALL


   This run was terminated on:  22:17:20   7Apr2024            

=------------------------------------------------------------------------------=
   JOB DONE.
=------------------------------------------------------------------------------=
