
     Program PWSCF v.6.3MaX starts on  7Apr2024 at 22:41:43 

     This program is part of the open-source Quantum ESPRESSO suite
     for quantum simulation of materials; please cite
         "P. Giannozzi et al., J. Phys.:Condens. Matter 21 395502 (2009);
         "P. Giannozzi et al., J. Phys.:Condens. Matter 29 465901 (2017);
          URL http://www.quantum-espresso.org", 
     in publications or presentations arising from this work. More details at
     http://www.quantum-espresso.org/quote

     Parallel version (MPI), running on     5 processors

     MPI processes distributed on     1 nodes
     R & G space division:  proc/nbgrp/npool/nimage =       5
     Waiting for input...
     Reading input from standard input

     Current dimensions of program PWSCF are:
     Max number of different atomic species (ntypx) = 10
     Max number of k-points (npk) =  40000
     Max angular momentum in pseudopotentials (lmaxx) =  3
               file Fr.pz-spdn-kjpaw_psl.1.0.0.UPF: wavefunction(s)  6P renormalized

     Subspace diagonalization in iterative solution of the eigenvalue problem:
     a serial algorithm will be used


     Parallelization info
     --------------------
     sticks:   dense  smooth     PW     G-vecs:    dense   smooth      PW
     Min          75      75     24                 1003     1003     178
     Max          76      76     25                 1007     1007     181
     Sum         379     379    121                 5029     5029     893



     bravais-lattice index     =            2
     lattice parameter (alat)  =       6.8300  a.u.
     unit-cell volume          =      79.6530 (a.u.)^3
     number of atoms/cell      =            1
     number of atomic types    =            1
     number of electrons       =        19.00
     number of Kohn-Sham states=           14
     kinetic-energy cutoff     =      60.0000  Ry
     charge density cutoff     =     240.0000  Ry
     convergence threshold     =      1.0E-08
     mixing beta               =       0.7000
     number of iterations used =            8  plain     mixing
     Exchange-correlation      = SLA PZ NOGX NOGC ( 1  1  0  0 0 0)

     celldm(1)=   6.830000  celldm(2)=   0.000000  celldm(3)=   0.000000
     celldm(4)=   0.000000  celldm(5)=   0.000000  celldm(6)=   0.000000

     crystal axes: (cart. coord. in units of alat)
               a(1) = (  -0.500000   0.000000   0.500000 )  
               a(2) = (   0.000000   0.500000   0.500000 )  
               a(3) = (  -0.500000   0.500000   0.000000 )  

     reciprocal axes: (cart. coord. in units 2 pi/alat)
               b(1) = ( -1.000000 -1.000000  1.000000 )  
               b(2) = (  1.000000  1.000000  1.000000 )  
               b(3) = ( -1.000000  1.000000 -1.000000 )  


     PseudoPot. # 1 for Fr read from file:
     /home/lorenzo/pseudos/Fr/Fr.pz-spdn-kjpaw_psl.1.0.0.UPF
     MD5 check sum: 60dafd115682613df3cc92ec23a62a32
     Pseudo is Projector augmented-wave + core cor, Zval = 19.0
     Generated using "atomic" code by A. Dal Corso v.6.2.2
     Shape of augmentation charge: PSQ
     Using radial grid of 1287 points,  6 beta functions with: 
                l(1) =   0
                l(2) =   0
                l(3) =   1
                l(4) =   1
                l(5) =   2
                l(6) =   2
     Q(r) pseudized with 0 coefficients 


     atomic species   valence    mass     pseudopotential
        Fr            19.00   223.00000     Fr( 1.00)

     48 Sym. Ops., with inversion, found



   Cartesian axes

     site n.     atom                  positions (alat units)
         1           Fr  tau(   1) = (   0.0000000   0.0000000   0.0000000  )

     number of k points=     3  gaussian smearing, width (Ry)=  0.0100
                       cart. coord. in units 2pi/alat
        k(    1) = (   0.0000000   0.0000000   0.0000000), wk =   0.2500000
        k(    2) = (   0.5000000  -0.5000000   0.5000000), wk =   1.0000000
        k(    3) = (   0.0000000  -1.0000000   0.0000000), wk =   0.7500000

     Dense  grid:     5029 G-vectors     FFT dimensions: (  24,  24,  24)

     Estimated max dynamical RAM per process >       5.20 MB

     Estimated total dynamical RAM >      25.99 MB

     Check: negative/imaginary core charge=   -0.000002    0.000000

     Initial potential from superposition of free atoms

     starting charge   18.97647, renormalised to   19.00000
     Starting wfcs are   10 randomized atomic wfcs +    4 random wfcs
     Checking if some PAW data can be deallocated... 

     total cpu time spent up to now is        1.3 secs

     Self-consistent Calculation

     iteration #  1     ecut=    60.00 Ry     beta= 0.70
     Davidson diagonalization with overlap
     ethr =  1.00E-02,  avg # of iterations =  4.7

     Threshold (ethr) on eigenvalues was too large:
     Diagonalizing with lowered threshold

     Davidson diagonalization with overlap
     ethr =  4.80E-05,  avg # of iterations =  2.0

     total cpu time spent up to now is        1.4 secs

     total energy              =   -1044.88827723 Ry
     Harris-Foulkes estimate   =   -1044.89420511 Ry
     estimated scf accuracy    <       0.00913121 Ry

     iteration #  2     ecut=    60.00 Ry     beta= 0.70
     Davidson diagonalization with overlap
     ethr =  4.81E-05,  avg # of iterations =  2.3

     total cpu time spent up to now is        1.5 secs

     total energy              =   -1044.88962419 Ry
     Harris-Foulkes estimate   =   -1044.88973018 Ry
     estimated scf accuracy    <       0.00040590 Ry

     iteration #  3     ecut=    60.00 Ry     beta= 0.70
     Davidson diagonalization with overlap
     ethr =  2.14E-06,  avg # of iterations =  2.7

     total cpu time spent up to now is        1.6 secs

     total energy              =   -1044.88965909 Ry
     Harris-Foulkes estimate   =   -1044.88965717 Ry
     estimated scf accuracy    <       0.00001756 Ry

     iteration #  4     ecut=    60.00 Ry     beta= 0.70
     Davidson diagonalization with overlap
     ethr =  9.24E-08,  avg # of iterations =  2.7

     total cpu time spent up to now is        1.7 secs

     total energy              =   -1044.88966259 Ry
     Harris-Foulkes estimate   =   -1044.88966232 Ry
     estimated scf accuracy    <       0.00000036 Ry

     iteration #  5     ecut=    60.00 Ry     beta= 0.70
     Davidson diagonalization with overlap
     ethr =  1.87E-09,  avg # of iterations =  2.0

     total cpu time spent up to now is        1.7 secs

     End of self-consistent calculation

          k = 0.0000 0.0000 0.0000 (   609 PWs)   bands (ev):

    -9.2274  -9.2274  -9.2274  -8.8822  -8.8822   9.1445  46.9333  46.9333
    46.9333  48.0705  53.7087  53.7087  53.7087  57.4715

          k = 0.5000-0.5000 0.5000 (   628 PWs)   bands (ev):

    -9.2190  -9.1745  -9.1745  -8.5878  -8.5878  17.2094  23.0031  42.7032
    42.7032  47.7923  50.9974  51.5971  51.5971  65.1739

          k = 0.0000-1.0000 0.0000 (   636 PWs)   bands (ev):

    -9.5605  -9.2858  -8.5963  -8.5255  -8.5255  20.7226  24.6604  35.2679
    35.2679  42.4440  42.9374  64.1131  70.0440  70.9896

     the Fermi energy is    46.8918 ev

!    total energy              =   -1044.88966263 Ry
     Harris-Foulkes estimate   =   -1044.88966263 Ry
     estimated scf accuracy    <          3.1E-09 Ry

     total all-electron energy =    -48490.342636 Ry

     The total energy is the sum of the following terms:

     one-electron contribution =       1.67919799 Ry
     hartree contribution      =      28.45033963 Ry
     xc contribution           =     -63.94137997 Ry
     ewald contribution        =    -242.33311991 Ry
     one-center paw contrib.   =    -768.74277209 Ry
     smearing contrib. (-TS)   =      -0.00192828 Ry

     convergence has been achieved in   5 iterations

     Forces acting on atoms (cartesian axes, Ry/au):

     atom    1 type  1   force =     0.00000000    0.00000000    0.00000000

     Total force =     0.000000     Total SCF correction =     0.000000


     Computing stress (Cartesian axis) and pressure

          total   stress  (Ry/bohr**3)                   (kbar)     P= 7704.30
   0.05237277  -0.00000000  -0.00000000       7704.30     -0.00     -0.00
  -0.00000000   0.05237277   0.00000000         -0.00   7704.30      0.00
  -0.00000000   0.00000000   0.05237277         -0.00      0.00   7704.30


     Writing output data file Fr.save/

     init_run     :      0.24s CPU      0.24s WALL (       1 calls)
     electrons    :      0.46s CPU      0.49s WALL (       1 calls)
     forces       :      0.02s CPU      0.02s WALL (       1 calls)
     stress       :      0.05s CPU      0.05s WALL (       1 calls)

     Called by init_run:
     wfcinit      :      0.01s CPU      0.01s WALL (       1 calls)
     potinit      :      0.06s CPU      0.06s WALL (       1 calls)
     hinit0       :      0.15s CPU      0.15s WALL (       1 calls)

     Called by electrons:
     c_bands      :      0.15s CPU      0.16s WALL (       6 calls)
     sum_band     :      0.05s CPU      0.06s WALL (       6 calls)
     v_of_rho     :      0.00s CPU      0.00s WALL (       6 calls)
     newd         :      0.03s CPU      0.03s WALL (       6 calls)
     PAW_pot      :      0.28s CPU      0.29s WALL (       6 calls)
     mix_rho      :      0.00s CPU      0.00s WALL (       6 calls)

     Called by c_bands:
     init_us_2    :      0.00s CPU      0.00s WALL (      45 calls)
     cegterg      :      0.14s CPU      0.15s WALL (      18 calls)

     Called by sum_band:
     sum_band:bec :      0.00s CPU      0.00s WALL (      18 calls)
     addusdens    :      0.03s CPU      0.03s WALL (       6 calls)

     Called by *egterg:
     h_psi        :      0.10s CPU      0.11s WALL (      70 calls)
     s_psi        :      0.00s CPU      0.00s WALL (      70 calls)
     g_psi        :      0.00s CPU      0.00s WALL (      49 calls)
     cdiaghg      :      0.03s CPU      0.03s WALL (      64 calls)

     Called by h_psi:
     h_psi:pot    :      0.10s CPU      0.11s WALL (      70 calls)
     h_psi:calbec :      0.01s CPU      0.01s WALL (      70 calls)
     vloc_psi     :      0.09s CPU      0.10s WALL (      70 calls)
     add_vuspsi   :      0.00s CPU      0.00s WALL (      70 calls)

     General routines
     calbec       :      0.01s CPU      0.01s WALL (     103 calls)
     fft          :      0.01s CPU      0.01s WALL (      34 calls)
     ffts         :      0.00s CPU      0.00s WALL (       6 calls)
     fftw         :      0.10s CPU      0.11s WALL (    1590 calls)

     Parallel routines
     fft_scatt_xy :      0.01s CPU      0.01s WALL (    1630 calls)
     fft_scatt_yz :      0.03s CPU      0.03s WALL (    1630 calls)

     PWSCF        :     1.80s CPU         1.86s WALL


   This run was terminated on:  22:41:45   7Apr2024            

=------------------------------------------------------------------------------=
   JOB DONE.
=------------------------------------------------------------------------------=
