
     Program PWSCF v.6.3MaX starts on  7Apr2024 at 22:44:41 

     This program is part of the open-source Quantum ESPRESSO suite
     for quantum simulation of materials; please cite
         "P. Giannozzi et al., J. Phys.:Condens. Matter 21 395502 (2009);
         "P. Giannozzi et al., J. Phys.:Condens. Matter 29 465901 (2017);
          URL http://www.quantum-espresso.org", 
     in publications or presentations arising from this work. More details at
     http://www.quantum-espresso.org/quote

     Parallel version (MPI), running on     5 processors

     MPI processes distributed on     1 nodes
     R & G space division:  proc/nbgrp/npool/nimage =       5
     Waiting for input...
     Reading input from standard input

     Current dimensions of program PWSCF are:
     Max number of different atomic species (ntypx) = 10
     Max number of k-points (npk) =  40000
     Max angular momentum in pseudopotentials (lmaxx) =  3

     Subspace diagonalization in iterative solution of the eigenvalue problem:
     a serial algorithm will be used


     Parallelization info
     --------------------
     sticks:   dense  smooth     PW     G-vecs:    dense   smooth      PW
     Min          84      84     25                 1134     1134     192
     Max          85      85     26                 1137     1137     195
     Sum         421     421    127                 5673     5673     965



     bravais-lattice index     =            2
     lattice parameter (alat)  =       6.8300  a.u.
     unit-cell volume          =      79.6530 (a.u.)^3
     number of atoms/cell      =            1
     number of atomic types    =            1
     number of electrons       =        19.00
     number of Kohn-Sham states=           14
     kinetic-energy cutoff     =      65.0000  Ry
     charge density cutoff     =     260.0000  Ry
     convergence threshold     =      1.0E-08
     mixing beta               =       0.7000
     number of iterations used =            8  plain     mixing
     Exchange-correlation      = PBE ( 1  4  3  4 0 0)

     celldm(1)=   6.830000  celldm(2)=   0.000000  celldm(3)=   0.000000
     celldm(4)=   0.000000  celldm(5)=   0.000000  celldm(6)=   0.000000

     crystal axes: (cart. coord. in units of alat)
               a(1) = (  -0.500000   0.000000   0.500000 )  
               a(2) = (   0.000000   0.500000   0.500000 )  
               a(3) = (  -0.500000   0.500000   0.000000 )  

     reciprocal axes: (cart. coord. in units 2 pi/alat)
               b(1) = ( -1.000000 -1.000000  1.000000 )  
               b(2) = (  1.000000  1.000000  1.000000 )  
               b(3) = ( -1.000000  1.000000 -1.000000 )  


     PseudoPot. # 1 for Fr read from file:
     /home/lorenzo/pseudos/Fr/Fr.pbe-spdn-rrkjus_psl.1.0.0.UPF
     MD5 check sum: 07cabfa18982bd6b5b9d8ae5689d9732
     Pseudo is Ultrasoft + core correction, Zval = 19.0
     Generated using "atomic" code by A. Dal Corso v.6.2.2
     Using radial grid of 1287 points,  6 beta functions with: 
                l(1) =   0
                l(2) =   0
                l(3) =   1
                l(4) =   1
                l(5) =   2
                l(6) =   2
     Q(r) pseudized with 0 coefficients 


     atomic species   valence    mass     pseudopotential
        Fr            19.00   223.00000     Fr( 1.00)

     48 Sym. Ops., with inversion, found



   Cartesian axes

     site n.     atom                  positions (alat units)
         1           Fr  tau(   1) = (   0.0000000   0.0000000   0.0000000  )

     number of k points=     8  gaussian smearing, width (Ry)=  0.0100
                       cart. coord. in units 2pi/alat
        k(    1) = (   0.0000000   0.0000000   0.0000000), wk =   0.0312500
        k(    2) = (  -0.2500000   0.2500000  -0.2500000), wk =   0.2500000
        k(    3) = (   0.5000000  -0.5000000   0.5000000), wk =   0.1250000
        k(    4) = (   0.0000000   0.5000000   0.0000000), wk =   0.1875000
        k(    5) = (   0.7500000  -0.2500000   0.7500000), wk =   0.7500000
        k(    6) = (   0.5000000   0.0000000   0.5000000), wk =   0.3750000
        k(    7) = (   0.0000000  -1.0000000   0.0000000), wk =   0.0937500
        k(    8) = (  -0.5000000  -1.0000000   0.0000000), wk =   0.1875000

     Dense  grid:     5673 G-vectors     FFT dimensions: (  25,  25,  25)

     Estimated max dynamical RAM per process >       5.89 MB

     Estimated total dynamical RAM >      29.46 MB

     Check: negative/imaginary core charge=   -0.000003    0.000000

     Initial potential from superposition of free atoms

     starting charge   18.97009, renormalised to   19.00000
     Starting wfcs are   10 randomized atomic wfcs +    4 random wfcs

     total cpu time spent up to now is        1.1 secs

     Self-consistent Calculation

     iteration #  1     ecut=    65.00 Ry     beta= 0.70
     Davidson diagonalization with overlap
     ethr =  1.00E-02,  avg # of iterations =  4.9

     Threshold (ethr) on eigenvalues was too large:
     Diagonalizing with lowered threshold

     Davidson diagonalization with overlap
     ethr =  7.47E-05,  avg # of iterations =  1.9

     total cpu time spent up to now is        1.4 secs

     total energy              =    -282.85778324 Ry
     Harris-Foulkes estimate   =    -282.86631061 Ry
     estimated scf accuracy    <       0.01389485 Ry

     iteration #  2     ecut=    65.00 Ry     beta= 0.70
     Davidson diagonalization with overlap
     ethr =  7.31E-05,  avg # of iterations =  2.0

     total cpu time spent up to now is        1.5 secs

     total energy              =    -282.85961850 Ry
     Harris-Foulkes estimate   =    -282.85991605 Ry
     estimated scf accuracy    <       0.00050841 Ry

     iteration #  3     ecut=    65.00 Ry     beta= 0.70
     Davidson diagonalization with overlap
     ethr =  2.68E-06,  avg # of iterations =  2.4

     total cpu time spent up to now is        1.6 secs

     total energy              =    -282.85967503 Ry
     Harris-Foulkes estimate   =    -282.85968687 Ry
     estimated scf accuracy    <       0.00002961 Ry

     iteration #  4     ecut=    65.00 Ry     beta= 0.70
     Davidson diagonalization with overlap
     ethr =  1.56E-07,  avg # of iterations =  1.6

     total cpu time spent up to now is        1.7 secs

     total energy              =    -282.85967750 Ry
     Harris-Foulkes estimate   =    -282.85967750 Ry
     estimated scf accuracy    <       0.00000010 Ry

     iteration #  5     ecut=    65.00 Ry     beta= 0.70
     Davidson diagonalization with overlap
     ethr =  5.13E-10,  avg # of iterations =  2.6

     total cpu time spent up to now is        1.8 secs

     End of self-consistent calculation

          k = 0.0000 0.0000 0.0000 (   725 PWs)   bands (ev):

    -9.1820  -9.1820  -9.1820  -8.8508  -8.8508   9.5012  47.3020  47.3020
    47.3020  48.3692  53.8957  53.8957  53.8957  57.7373

          k =-0.2500 0.2500-0.2500 (   703 PWs)   bands (ev):

    -9.1667  -9.0913  -9.0913  -8.7694  -8.7694  12.0108  33.8640  44.8402
    44.8402  48.2489  53.4438  54.0494  54.0494  58.7725

          k = 0.5000-0.5000 0.5000 (   718 PWs)   bands (ev):

    -9.1672  -9.1352  -9.1352  -8.5530  -8.5530  17.6043  23.2870  43.0742
    43.0742  48.0334  51.2956  51.7698  51.7698  65.4970

          k = 0.0000 0.5000 0.0000 (   713 PWs)   bands (ev):

    -9.3451  -9.0357  -8.8415  -8.8415  -8.7090  12.8476  38.1609  39.5466
    39.5466  44.7388  45.7841  62.0834  62.0834  62.8893

          k = 0.7500-0.2500 0.7500 (   703 PWs)   bands (ev):

    -9.2871  -9.0401  -8.8368  -8.7263  -8.5362  18.2069  27.1416  33.9071
    38.3948  44.3035  53.4704  58.5641  59.2474  63.9942

          k = 0.5000 0.0000 0.5000 (   708 PWs)   bands (ev):

    -9.1460  -9.0352  -8.8716  -8.8202  -8.6765  16.0233  30.4902  32.2929
    42.6061  46.7459  55.1932  56.5471  57.4214  59.3241

          k = 0.0000-1.0000 0.0000 (   692 PWs)   bands (ev):

    -9.5048  -9.2466  -8.5652  -8.4838  -8.4838  21.1454  24.9658  35.5891
    35.5891  42.6449  43.1437  64.4030  70.3676  71.3368

          k =-0.5000-1.0000 0.0000 (   700 PWs)   bands (ev):

    -9.0749  -9.0153  -9.0153  -8.7256  -8.4850  21.4737  28.7090  28.7090
    32.1121  53.3351  53.5078  53.5078  56.5042  70.1911

     the Fermi energy is    44.9892 ev

!    total energy              =    -282.85967754 Ry
     Harris-Foulkes estimate   =    -282.85967754 Ry
     estimated scf accuracy    <          3.4E-09 Ry

     The total energy is the sum of the following terms:

     one-electron contribution =      -4.17774894 Ry
     hartree contribution      =      28.25514642 Ry
     xc contribution           =     -64.60351190 Ry
     ewald contribution        =    -242.33311988 Ry
     smearing contrib. (-TS)   =      -0.00044324 Ry

     convergence has been achieved in   5 iterations

     Forces acting on atoms (cartesian axes, Ry/au):

     atom    1 type  1   force =     0.00000000    0.00000000    0.00000000

     Total force =     0.000000     Total SCF correction =     0.000000


     Computing stress (Cartesian axis) and pressure

          total   stress  (Ry/bohr**3)                   (kbar)     P= 7262.42
   0.04936893  -0.00000000  -0.00000000       7262.42     -0.00     -0.00
  -0.00000000   0.04936893   0.00000000         -0.00   7262.42      0.00
  -0.00000000   0.00000000   0.04936893         -0.00      0.00   7262.42


     Writing output data file Fr.save/

     init_run     :      0.20s CPU      0.21s WALL (       1 calls)
     electrons    :      0.63s CPU      0.66s WALL (       1 calls)
     forces       :      0.02s CPU      0.02s WALL (       1 calls)
     stress       :      0.07s CPU      0.07s WALL (       1 calls)

     Called by init_run:
     wfcinit      :      0.03s CPU      0.03s WALL (       1 calls)
     potinit      :      0.01s CPU      0.01s WALL (       1 calls)
     hinit0       :      0.16s CPU      0.16s WALL (       1 calls)

     Called by electrons:
     c_bands      :      0.48s CPU      0.50s WALL (       6 calls)
     sum_band     :      0.11s CPU      0.12s WALL (       6 calls)
     v_of_rho     :      0.02s CPU      0.02s WALL (       6 calls)
     newd         :      0.03s CPU      0.04s WALL (       6 calls)
     mix_rho      :      0.00s CPU      0.00s WALL (       6 calls)

     Called by c_bands:
     init_us_2    :      0.01s CPU      0.01s WALL (     120 calls)
     cegterg      :      0.46s CPU      0.48s WALL (      48 calls)

     Called by sum_band:
     sum_band:bec :      0.00s CPU      0.00s WALL (      48 calls)
     addusdens    :      0.03s CPU      0.03s WALL (       6 calls)

     Called by *egterg:
     h_psi        :      0.33s CPU      0.35s WALL (     179 calls)
     s_psi        :      0.01s CPU      0.01s WALL (     179 calls)
     g_psi        :      0.00s CPU      0.00s WALL (     123 calls)
     cdiaghg      :      0.07s CPU      0.07s WALL (     163 calls)

     Called by h_psi:
     h_psi:pot    :      0.33s CPU      0.35s WALL (     179 calls)
     h_psi:calbec :      0.01s CPU      0.02s WALL (     179 calls)
     vloc_psi     :      0.30s CPU      0.32s WALL (     179 calls)
     add_vuspsi   :      0.01s CPU      0.01s WALL (     179 calls)

     General routines
     calbec       :      0.02s CPU      0.03s WALL (     267 calls)
     fft          :      0.02s CPU      0.02s WALL (      93 calls)
     ffts         :      0.00s CPU      0.00s WALL (       6 calls)
     fftw         :      0.34s CPU      0.35s WALL (    4214 calls)

     Parallel routines
     fft_scatt_xy :      0.03s CPU      0.03s WALL (    4313 calls)
     fft_scatt_yz :      0.10s CPU      0.11s WALL (    4313 calls)

     PWSCF        :     1.83s CPU         1.91s WALL


   This run was terminated on:  22:44:43   7Apr2024            

=------------------------------------------------------------------------------=
   JOB DONE.
=------------------------------------------------------------------------------=
