
     Program PWSCF v.6.3MaX starts on  7Apr2024 at 22:26: 9 

     This program is part of the open-source Quantum ESPRESSO suite
     for quantum simulation of materials; please cite
         "P. Giannozzi et al., J. Phys.:Condens. Matter 21 395502 (2009);
         "P. Giannozzi et al., J. Phys.:Condens. Matter 29 465901 (2017);
          URL http://www.quantum-espresso.org", 
     in publications or presentations arising from this work. More details at
     http://www.quantum-espresso.org/quote

     Parallel version (MPI), running on     5 processors

     MPI processes distributed on     1 nodes
     R & G space division:  proc/nbgrp/npool/nimage =       5
     Waiting for input...
     Reading input from standard input

     Current dimensions of program PWSCF are:
     Max number of different atomic species (ntypx) = 10
     Max number of k-points (npk) =  40000
     Max angular momentum in pseudopotentials (lmaxx) =  3

     Subspace diagonalization in iterative solution of the eigenvalue problem:
     a serial algorithm will be used


     Parallelization info
     --------------------
     sticks:   dense  smooth     PW     G-vecs:    dense   smooth      PW
     Min          32      32     12                  272      272      66
     Max          33      33     13                  273      273      67
     Sum         163     163     61                 1363     1363     331



     bravais-lattice index     =            2
     lattice parameter (alat)  =       6.8300  a.u.
     unit-cell volume          =      79.6530 (a.u.)^3
     number of atoms/cell      =            1
     number of atomic types    =            1
     number of electrons       =        19.00
     number of Kohn-Sham states=           14
     kinetic-energy cutoff     =      25.0000  Ry
     charge density cutoff     =     100.0000  Ry
     convergence threshold     =      1.0E-08
     mixing beta               =       0.7000
     number of iterations used =            8  plain     mixing
     Exchange-correlation      = PBE ( 1  4  3  4 0 0)

     celldm(1)=   6.830000  celldm(2)=   0.000000  celldm(3)=   0.000000
     celldm(4)=   0.000000  celldm(5)=   0.000000  celldm(6)=   0.000000

     crystal axes: (cart. coord. in units of alat)
               a(1) = (  -0.500000   0.000000   0.500000 )  
               a(2) = (   0.000000   0.500000   0.500000 )  
               a(3) = (  -0.500000   0.500000   0.000000 )  

     reciprocal axes: (cart. coord. in units 2 pi/alat)
               b(1) = ( -1.000000 -1.000000  1.000000 )  
               b(2) = (  1.000000  1.000000  1.000000 )  
               b(3) = ( -1.000000  1.000000 -1.000000 )  


     PseudoPot. # 1 for Fr read from file:
     /home/lorenzo/pseudos/Fr/Fr.pbe-spdn-rrkjus_psl.1.0.0.UPF
     MD5 check sum: 07cabfa18982bd6b5b9d8ae5689d9732
     Pseudo is Ultrasoft + core correction, Zval = 19.0
     Generated using "atomic" code by A. Dal Corso v.6.2.2
     Using radial grid of 1287 points,  6 beta functions with: 
                l(1) =   0
                l(2) =   0
                l(3) =   1
                l(4) =   1
                l(5) =   2
                l(6) =   2
     Q(r) pseudized with 0 coefficients 


     atomic species   valence    mass     pseudopotential
        Fr            19.00   223.00000     Fr( 1.00)

     48 Sym. Ops., with inversion, found



   Cartesian axes

     site n.     atom                  positions (alat units)
         1           Fr  tau(   1) = (   0.0000000   0.0000000   0.0000000  )

     number of k points=    20  gaussian smearing, width (Ry)=  0.0100
                       cart. coord. in units 2pi/alat
        k(    1) = (   0.0000000   0.0000000   0.0000000), wk =   0.0058309
        k(    2) = (  -0.1428571   0.1428571  -0.1428571), wk =   0.0466472
        k(    3) = (  -0.2857143   0.2857143  -0.2857143), wk =   0.0466472
        k(    4) = (  -0.4285714   0.4285714  -0.4285714), wk =   0.0466472
        k(    5) = (   0.0000000   0.2857143   0.0000000), wk =   0.0349854
        k(    6) = (  -0.1428571   0.4285714  -0.1428571), wk =   0.1399417
        k(    7) = (  -0.2857143   0.5714286  -0.2857143), wk =   0.1399417
        k(    8) = (   0.5714286  -0.2857143   0.5714286), wk =   0.1399417
        k(    9) = (   0.4285714  -0.1428571   0.4285714), wk =   0.1399417
        k(   10) = (   0.2857143  -0.0000000   0.2857143), wk =   0.0699708
        k(   11) = (   0.0000000   0.5714286   0.0000000), wk =   0.0349854
        k(   12) = (  -0.1428571   0.7142857  -0.1428571), wk =   0.1399417
        k(   13) = (   0.7142857  -0.1428571   0.7142857), wk =   0.1399417
        k(   14) = (   0.5714286   0.0000000   0.5714286), wk =   0.0699708
        k(   15) = (   0.0000000   0.8571429   0.0000000), wk =   0.0349854
        k(   16) = (   0.8571429  -0.0000000   0.8571429), wk =   0.0699708
        k(   17) = (  -0.2857143   0.5714286   0.0000000), wk =   0.1399417
        k(   18) = (   0.5714286  -0.2857143   0.8571429), wk =   0.2798834
        k(   19) = (   0.7142857  -0.1428571   1.0000000), wk =   0.1399417
        k(   20) = (   0.5714286   0.0000000   0.8571429), wk =   0.1399417

     Dense  grid:     1363 G-vectors     FFT dimensions: (  15,  15,  15)

     Estimated max dynamical RAM per process >       2.02 MB

     Estimated total dynamical RAM >      10.12 MB

     Check: negative/imaginary core charge=   -0.000045    0.000000

     Initial potential from superposition of free atoms

     starting charge   18.97009, renormalised to   19.00000
     Starting wfcs are   10 randomized atomic wfcs +    4 random wfcs

     total cpu time spent up to now is        1.1 secs

     Self-consistent Calculation

     iteration #  1     ecut=    25.00 Ry     beta= 0.70
     Davidson diagonalization with overlap
     ethr =  1.00E-02,  avg # of iterations =  4.9

     total cpu time spent up to now is        1.3 secs

     total energy              =    -278.23728436 Ry
     Harris-Foulkes estimate   =    -278.80266307 Ry
     estimated scf accuracy    <       0.76187114 Ry

     iteration #  2     ecut=    25.00 Ry     beta= 0.70
     Davidson diagonalization with overlap
     ethr =  4.01E-03,  avg # of iterations =  2.0

     total cpu time spent up to now is        1.4 secs

     total energy              =    -278.39661314 Ry
     Harris-Foulkes estimate   =    -278.42186366 Ry
     estimated scf accuracy    <       0.04680797 Ry

     iteration #  3     ecut=    25.00 Ry     beta= 0.70
     Davidson diagonalization with overlap
     ethr =  2.46E-04,  avg # of iterations =  2.0

     total cpu time spent up to now is        1.5 secs

     total energy              =    -278.40359685 Ry
     Harris-Foulkes estimate   =    -278.40449612 Ry
     estimated scf accuracy    <       0.00243358 Ry

     iteration #  4     ecut=    25.00 Ry     beta= 0.70
     Davidson diagonalization with overlap
     ethr =  1.28E-05,  avg # of iterations =  1.9

     total cpu time spent up to now is        1.6 secs

     total energy              =    -278.40376552 Ry
     Harris-Foulkes estimate   =    -278.40376255 Ry
     estimated scf accuracy    <       0.00000940 Ry

     iteration #  5     ecut=    25.00 Ry     beta= 0.70
     Davidson diagonalization with overlap
     ethr =  4.94E-08,  avg # of iterations =  2.7

     total cpu time spent up to now is        1.7 secs

     total energy              =    -278.40376942 Ry
     Harris-Foulkes estimate   =    -278.40376948 Ry
     estimated scf accuracy    <       0.00000038 Ry

     iteration #  6     ecut=    25.00 Ry     beta= 0.70
     Davidson diagonalization with overlap
     ethr =  2.03E-09,  avg # of iterations =  2.0

     total cpu time spent up to now is        1.8 secs

     total energy              =    -278.40376944 Ry
     Harris-Foulkes estimate   =    -278.40376945 Ry
     estimated scf accuracy    <       0.00000002 Ry

     iteration #  7     ecut=    25.00 Ry     beta= 0.70
     Davidson diagonalization with overlap
     ethr =  1.28E-10,  avg # of iterations =  2.0

     total cpu time spent up to now is        1.8 secs

     End of self-consistent calculation

          k = 0.0000 0.0000 0.0000 (   169 PWs)   bands (ev):

    -9.0824  -9.0824  -8.6494  -8.6494  -8.6494   9.1477  46.5512  46.5512
    46.5512  48.8930  57.2385  57.2673  57.2673  57.2673

          k =-0.1429 0.1429-0.1429 (   168 PWs)   bands (ev):

    -8.9692  -8.9692  -8.3900  -8.3900  -7.9824   9.9518  40.3581  45.7199
    45.7199  48.9867  55.8616  57.4857  57.4857  58.7147

          k =-0.2857 0.2857-0.2857 (   162 PWs)   bands (ev):

    -8.2109  -8.2109  -7.6743  -7.0135  -7.0135  12.3647  31.7517  43.9792
    43.9792  49.1773  53.5382  55.9394  55.9394  61.7902

          k =-0.4286 0.4286-0.4286 (   162 PWs)   bands (ev):

    -8.6032  -7.4761  -7.4761  -6.9856  -6.9856  15.9404  24.8185  42.6538
    42.6538  48.7462  52.6308  55.2608  55.2608  64.9713

          k = 0.0000 0.2857 0.0000 (   165 PWs)   bands (ev):

    -8.8397  -8.6288  -8.0594  -8.0594  -7.4361  10.2184  42.7314  43.1189
    43.1189  47.8816  52.1728  59.7561  59.7561  60.0749

          k =-0.1429 0.4286-0.1429 (   162 PWs)   bands (ev):

    -8.2488  -8.1195  -7.5029  -7.2081  -7.1918  12.0958  34.8435  41.0751
    42.1187  48.3285  51.4027  59.1623  59.6108  59.8012

          k =-0.2857 0.5714-0.2857 (   164 PWs)   bands (ev):

    -8.2949  -7.8350  -7.7690  -7.3361  -6.9837  15.3807  27.4363  39.4931
    40.3117  47.3625  56.2418  57.8315  58.0355  59.4377

          k = 0.5714-0.2857 0.5714 (   168 PWs)   bands (ev):

    -8.5795  -8.4688  -8.2992  -7.7028  -7.2516  17.3837  24.3745  37.5698
    41.2918  47.5793  55.1867  56.9298  59.8917  63.5165

          k = 0.4286-0.1429 0.4286 (   166 PWs)   bands (ev):

    -8.4634  -8.1615  -8.0866  -7.5698  -7.2245  14.1604  29.7552  37.3452
    43.8553  49.1345  53.7127  56.2497  60.1787  60.2751

          k = 0.2857-0.0000 0.2857 (   164 PWs)   bands (ev):

    -8.7070  -8.1255  -7.7594  -7.6199  -7.5309  11.2933  36.9072  39.4405
    46.4957  51.0729  52.1387  55.7090  57.7429  58.6412

          k = 0.0000 0.5714 0.0000 (   166 PWs)   bands (ev):

    -8.7656  -8.1297  -8.0495  -7.2393  -7.2393  13.4255  35.2008  38.4518
    38.4518  46.4608  46.7739  63.7973  63.7973  66.5610

          k =-0.1429 0.7143-0.1429 (   167 PWs)   bands (ev):

    -8.5241  -8.2472  -7.8704  -7.4207  -6.9271  16.2175  29.9771  35.0245
    37.3331  45.8569  49.9080  62.4777  62.9407  66.8943

          k = 0.7143-0.1429 0.7143 (   173 PWs)   bands (ev):

    -8.8998  -8.8676  -8.0760  -7.9869  -7.9251  18.9887  26.3842  31.4994
    38.1563  46.0138  56.3073  60.5964  60.6429  65.9318

          k = 0.5714 0.0000 0.5714 (   168 PWs)   bands (ev):

    -8.5109  -8.4157  -7.7322  -7.7198  -7.4352  17.1435  28.9422  30.7483
    40.7392  47.2958  57.9378  59.3885  60.5929  61.3555

          k = 0.0000 0.8571 0.0000 (   170 PWs)   bands (ev):

    -8.3821  -8.2967  -8.0939  -7.5829  -7.5829  18.4327  27.1547  35.7029
    35.7029  44.4970  46.2147  65.1598  69.5316  69.5316

          k = 0.8571-0.0000 0.8571 (   170 PWs)   bands (ev):

    -8.3570  -8.2005  -7.8910  -7.8262  -7.7532  20.2406  25.6360  32.3646
    35.9973  45.2557  49.3914  63.6418  67.2679  68.3062

          k =-0.2857 0.5714 0.0000 (   168 PWs)   bands (ev):

    -8.6177  -8.1881  -7.8681  -7.7974  -7.6282  14.4382  32.0047  35.0820
    40.2204  49.7895  51.0508  56.8590  62.0560  64.3262

          k = 0.5714-0.2857 0.8571 (   169 PWs)   bands (ev):

    -8.5273  -8.3055  -8.0736  -7.7890  -7.5321  17.7248  26.9186  33.4648
    37.6844  49.4876  54.5040  57.6649  62.8539  63.3939

          k = 0.7143-0.1429 1.0000 (   171 PWs)   bands (ev):

    -8.7821  -8.1603  -8.0780  -8.0274  -7.6640  18.9863  27.6084  32.5911
    34.2963  48.9105  50.2336  59.6820  64.7144  69.4001

          k = 0.5714 0.0000 0.8571 (   169 PWs)   bands (ev):

    -8.4584  -8.4366  -7.6656  -7.5666  -7.5038  19.9429  28.2085  28.9741
    34.7905  50.1812  56.4042  57.2379  59.1788  66.8612

     the Fermi energy is    48.4494 ev

!    total energy              =    -278.40376944 Ry
     Harris-Foulkes estimate   =    -278.40376944 Ry
     estimated scf accuracy    <          1.1E-09 Ry

     The total energy is the sum of the following terms:

     one-electron contribution =       2.57095286 Ry
     hartree contribution      =      24.67733275 Ry
     xc contribution           =     -63.31875468 Ry
     ewald contribution        =    -242.33311992 Ry
     smearing contrib. (-TS)   =      -0.00018045 Ry

     convergence has been achieved in   7 iterations

     Forces acting on atoms (cartesian axes, Ry/au):

     atom    1 type  1   force =     0.00000000    0.00000000    0.00000000

     Total force =     0.000000     Total SCF correction =     0.000000


     Computing stress (Cartesian axis) and pressure

          total   stress  (Ry/bohr**3)                   (kbar)     P=********
  -0.10826645   0.00000000  -0.00000000     -15926.54      0.00     -0.00
   0.00000000  -0.10826645   0.00000000          0.00 -15926.54      0.00
  -0.00000000  -0.00000000  -0.10826645         -0.00     -0.00 -15926.54


     Writing output data file Fr.save/

     init_run     :      0.12s CPU      0.13s WALL (       1 calls)
     electrons    :      0.69s CPU      0.77s WALL (       1 calls)
     forces       :      0.01s CPU      0.01s WALL (       1 calls)
     stress       :      0.03s CPU      0.03s WALL (       1 calls)

     Called by init_run:
     wfcinit      :      0.02s CPU      0.03s WALL (       1 calls)
     potinit      :      0.00s CPU      0.00s WALL (       1 calls)
     hinit0       :      0.09s CPU      0.10s WALL (       1 calls)

     Called by electrons:
     c_bands      :      0.60s CPU      0.66s WALL (       7 calls)
     sum_band     :      0.07s CPU      0.08s WALL (       7 calls)
     v_of_rho     :      0.01s CPU      0.01s WALL (       8 calls)
     newd         :      0.01s CPU      0.01s WALL (       8 calls)
     mix_rho      :      0.00s CPU      0.00s WALL (       7 calls)

     Called by c_bands:
     init_us_2    :      0.01s CPU      0.01s WALL (     340 calls)
     cegterg      :      0.58s CPU      0.64s WALL (     140 calls)

     Called by sum_band:
     sum_band:bec :      0.00s CPU      0.00s WALL (     140 calls)
     addusdens    :      0.01s CPU      0.01s WALL (       7 calls)

     Called by *egterg:
     h_psi        :      0.30s CPU      0.34s WALL (     510 calls)
     s_psi        :      0.01s CPU      0.01s WALL (     510 calls)
     g_psi        :      0.00s CPU      0.00s WALL (     350 calls)
     cdiaghg      :      0.21s CPU      0.23s WALL (     490 calls)

     Called by h_psi:
     h_psi:pot    :      0.30s CPU      0.33s WALL (     510 calls)
     h_psi:calbec :      0.02s CPU      0.02s WALL (     510 calls)
     vloc_psi     :      0.27s CPU      0.30s WALL (     510 calls)
     add_vuspsi   :      0.01s CPU      0.01s WALL (     510 calls)

     General routines
     calbec       :      0.03s CPU      0.03s WALL (     750 calls)
     fft          :      0.00s CPU      0.00s WALL (     114 calls)
     ffts         :      0.00s CPU      0.00s WALL (       7 calls)
     fftw         :      0.29s CPU      0.32s WALL (   12544 calls)

     Parallel routines
     fft_scatt_xy :      0.03s CPU      0.04s WALL (   12665 calls)
     fft_scatt_yz :      0.12s CPU      0.14s WALL (   12665 calls)

     PWSCF        :     1.81s CPU         1.95s WALL


   This run was terminated on:  22:26:11   7Apr2024            

=------------------------------------------------------------------------------=
   JOB DONE.
=------------------------------------------------------------------------------=
