
     Program PWSCF v.6.3MaX starts on  7Apr2024 at 22:58: 7 

     This program is part of the open-source Quantum ESPRESSO suite
     for quantum simulation of materials; please cite
         "P. Giannozzi et al., J. Phys.:Condens. Matter 21 395502 (2009);
         "P. Giannozzi et al., J. Phys.:Condens. Matter 29 465901 (2017);
          URL http://www.quantum-espresso.org", 
     in publications or presentations arising from this work. More details at
     http://www.quantum-espresso.org/quote

     Parallel version (MPI), running on     5 processors

     MPI processes distributed on     1 nodes
     R & G space division:  proc/nbgrp/npool/nimage =       5
     Waiting for input...
     Reading input from standard input

     Current dimensions of program PWSCF are:
     Max number of different atomic species (ntypx) = 10
     Max number of k-points (npk) =  40000
     Max angular momentum in pseudopotentials (lmaxx) =  3

     Subspace diagonalization in iterative solution of the eigenvalue problem:
     a serial algorithm will be used


     Parallelization info
     --------------------
     sticks:   dense  smooth     PW     G-vecs:    dense   smooth      PW
     Min         109     109     32                 1678     1678     290
     Max         110     110     33                 1680     1680     293
     Sum         547     547    163                 8393     8393    1459



     bravais-lattice index     =            2
     lattice parameter (alat)  =       6.8300  a.u.
     unit-cell volume          =      79.6530 (a.u.)^3
     number of atoms/cell      =            1
     number of atomic types    =            1
     number of electrons       =        19.00
     number of Kohn-Sham states=           14
     kinetic-energy cutoff     =      85.0000  Ry
     charge density cutoff     =     340.0000  Ry
     convergence threshold     =      1.0E-08
     mixing beta               =       0.7000
     number of iterations used =            8  plain     mixing
     Exchange-correlation      = PBE ( 1  4  3  4 0 0)

     celldm(1)=   6.830000  celldm(2)=   0.000000  celldm(3)=   0.000000
     celldm(4)=   0.000000  celldm(5)=   0.000000  celldm(6)=   0.000000

     crystal axes: (cart. coord. in units of alat)
               a(1) = (  -0.500000   0.000000   0.500000 )  
               a(2) = (   0.000000   0.500000   0.500000 )  
               a(3) = (  -0.500000   0.500000   0.000000 )  

     reciprocal axes: (cart. coord. in units 2 pi/alat)
               b(1) = ( -1.000000 -1.000000  1.000000 )  
               b(2) = (  1.000000  1.000000  1.000000 )  
               b(3) = ( -1.000000  1.000000 -1.000000 )  


     PseudoPot. # 1 for Fr read from file:
     /home/lorenzo/pseudos/Fr/Fr.pbe-spdn-rrkjus_psl.1.0.0.UPF
     MD5 check sum: 07cabfa18982bd6b5b9d8ae5689d9732
     Pseudo is Ultrasoft + core correction, Zval = 19.0
     Generated using "atomic" code by A. Dal Corso v.6.2.2
     Using radial grid of 1287 points,  6 beta functions with: 
                l(1) =   0
                l(2) =   0
                l(3) =   1
                l(4) =   1
                l(5) =   2
                l(6) =   2
     Q(r) pseudized with 0 coefficients 


     atomic species   valence    mass     pseudopotential
        Fr            19.00   223.00000     Fr( 1.00)

     48 Sym. Ops., with inversion, found



   Cartesian axes

     site n.     atom                  positions (alat units)
         1           Fr  tau(   1) = (   0.0000000   0.0000000   0.0000000  )

     number of k points=    20  gaussian smearing, width (Ry)=  0.0100
                       cart. coord. in units 2pi/alat
        k(    1) = (   0.0000000   0.0000000   0.0000000), wk =   0.0058309
        k(    2) = (  -0.1428571   0.1428571  -0.1428571), wk =   0.0466472
        k(    3) = (  -0.2857143   0.2857143  -0.2857143), wk =   0.0466472
        k(    4) = (  -0.4285714   0.4285714  -0.4285714), wk =   0.0466472
        k(    5) = (   0.0000000   0.2857143   0.0000000), wk =   0.0349854
        k(    6) = (  -0.1428571   0.4285714  -0.1428571), wk =   0.1399417
        k(    7) = (  -0.2857143   0.5714286  -0.2857143), wk =   0.1399417
        k(    8) = (   0.5714286  -0.2857143   0.5714286), wk =   0.1399417
        k(    9) = (   0.4285714  -0.1428571   0.4285714), wk =   0.1399417
        k(   10) = (   0.2857143  -0.0000000   0.2857143), wk =   0.0699708
        k(   11) = (   0.0000000   0.5714286   0.0000000), wk =   0.0349854
        k(   12) = (  -0.1428571   0.7142857  -0.1428571), wk =   0.1399417
        k(   13) = (   0.7142857  -0.1428571   0.7142857), wk =   0.1399417
        k(   14) = (   0.5714286   0.0000000   0.5714286), wk =   0.0699708
        k(   15) = (   0.0000000   0.8571429   0.0000000), wk =   0.0349854
        k(   16) = (   0.8571429  -0.0000000   0.8571429), wk =   0.0699708
        k(   17) = (  -0.2857143   0.5714286   0.0000000), wk =   0.1399417
        k(   18) = (   0.5714286  -0.2857143   0.8571429), wk =   0.2798834
        k(   19) = (   0.7142857  -0.1428571   1.0000000), wk =   0.1399417
        k(   20) = (   0.5714286   0.0000000   0.8571429), wk =   0.1399417

     Dense  grid:     8393 G-vectors     FFT dimensions: (  30,  30,  30)

     Estimated max dynamical RAM per process >       8.82 MB

     Estimated total dynamical RAM >      44.12 MB

     Initial potential from superposition of free atoms

     starting charge   18.97009, renormalised to   19.00000
     Starting wfcs are   10 randomized atomic wfcs +    4 random wfcs

     total cpu time spent up to now is        1.3 secs

     Self-consistent Calculation

     iteration #  1     ecut=    85.00 Ry     beta= 0.70
     Davidson diagonalization with overlap
     ethr =  1.00E-02,  avg # of iterations =  4.7

     Threshold (ethr) on eigenvalues was too large:
     Diagonalizing with lowered threshold

     Davidson diagonalization with overlap
     ethr =  1.10E-04,  avg # of iterations =  1.6

     total cpu time spent up to now is        2.1 secs

     total energy              =    -282.85417375 Ry
     Harris-Foulkes estimate   =    -282.86735177 Ry
     estimated scf accuracy    <       0.02087962 Ry

     iteration #  2     ecut=    85.00 Ry     beta= 0.70
     Davidson diagonalization with overlap
     ethr =  1.10E-04,  avg # of iterations =  2.0

     total cpu time spent up to now is        2.5 secs

     total energy              =    -282.85761013 Ry
     Harris-Foulkes estimate   =    -282.85818301 Ry
     estimated scf accuracy    <       0.00078133 Ry

     iteration #  3     ecut=    85.00 Ry     beta= 0.70
     Davidson diagonalization with overlap
     ethr =  4.11E-06,  avg # of iterations =  3.0

     total cpu time spent up to now is        2.8 secs

     total energy              =    -282.85775868 Ry
     Harris-Foulkes estimate   =    -282.85777870 Ry
     estimated scf accuracy    <       0.00004120 Ry

     iteration #  4     ecut=    85.00 Ry     beta= 0.70
     Davidson diagonalization with overlap
     ethr =  2.17E-07,  avg # of iterations =  1.4

     total cpu time spent up to now is        3.1 secs

     total energy              =    -282.85776276 Ry
     Harris-Foulkes estimate   =    -282.85776278 Ry
     estimated scf accuracy    <       0.00000011 Ry

     iteration #  5     ecut=    85.00 Ry     beta= 0.70
     Davidson diagonalization with overlap
     ethr =  5.78E-10,  avg # of iterations =  2.8

     total cpu time spent up to now is        3.5 secs

     End of self-consistent calculation

          k = 0.0000 0.0000 0.0000 (  1067 PWs)   bands (ev):

    -9.3248  -9.3248  -9.3248  -8.9817  -8.9817   9.4642  47.2762  47.2762
    47.2762  48.3118  53.8642  53.8642  53.8642  57.8207

          k =-0.1429 0.1429-0.1429 (  1031 PWs)   bands (ev):

    -9.3179  -9.2688  -9.2688  -8.9749  -8.9749  10.2830  40.4172  46.1647
    46.1647  48.2068  55.5007  55.7711  55.7711  56.3895

          k =-0.2857 0.2857-0.2857 (  1056 PWs)   bands (ev):

    -9.3099  -9.2345  -9.2345  -8.8654  -8.8654  12.7317  31.7761  44.3706
    44.3706  48.2188  52.8258  53.4358  53.4358  59.8955

          k =-0.4286 0.4286-0.4286 (  1050 PWs)   bands (ev):

    -9.3102  -9.2644  -9.2644  -8.7164  -8.7164  16.4291  24.8091  43.1840
    43.1840  48.0975  51.3934  51.9558  51.9558  64.4405

          k = 0.0000 0.2857 0.0000 (  1034 PWs)   bands (ev):

    -9.3867  -9.1997  -9.1997  -9.0463  -8.9289  10.5555  43.1816  43.1816
    43.6501  46.3584  50.8090  57.5922  58.4094  58.4094

          k =-0.1429 0.4286-0.1429 (  1050 PWs)   bands (ev):

    -9.3959  -9.1616  -9.1200  -9.0115  -8.8313  12.4640  34.9866  41.1094
    42.2561  46.6970  50.2251  57.2664  58.2039  58.6739

          k =-0.2857 0.5714-0.2857 (  1050 PWs)   bands (ev):

    -9.3536  -9.2002  -9.1433  -8.8689  -8.7005  15.8399  27.4585  39.5107
    40.4816  45.7742  55.2310  55.6357  56.3529  57.7560

          k = 0.5714-0.2857 0.5714 (  1060 PWs)   bands (ev):

    -9.3111  -9.2167  -9.1679  -8.7711  -8.7233  17.9955  24.2648  37.6043
    41.5535  46.2553  53.8926  54.0424  58.2517  62.9863

          k = 0.4286-0.1429 0.4286 (  1054 PWs)   bands (ev):

    -9.2654  -9.2462  -9.1506  -8.9071  -8.7775  14.5810  29.8149  37.1996
    44.2496  48.0775  52.5709  53.4977  58.4461  59.7531

          k = 0.2857-0.0000 0.2857 (  1047 PWs)   bands (ev):

    -9.3141  -9.2143  -9.1875  -9.0263  -8.8778  11.6475  37.2866  38.8963
    47.3646  50.5008  51.3525  53.7301  54.6374  56.9741

          k = 0.0000 0.5714 0.0000 (  1042 PWs)   bands (ev):

    -9.5248  -9.2078  -8.9101  -8.9101  -8.8096  13.8259  35.9171  38.5060
    38.5060  44.2602  44.8631  63.3466  63.3466  64.7472

          k =-0.1429 0.7143-0.1429 (  1054 PWs)   bands (ev):

    -9.5148  -9.2499  -8.8890  -8.8192  -8.6891  16.7101  30.3747  34.7067
    37.4789  43.8797  48.1460  61.0406  62.1765  65.8625

          k = 0.7143-0.1429 0.7143 (  1058 PWs)   bands (ev):

    -9.4210  -9.1269  -8.9270  -8.8885  -8.7112  19.7660  26.2493  31.3032
    38.3041  44.2388  55.0343  58.9115  59.8104  65.3618

          k = 0.5714 0.0000 0.5714 (  1057 PWs)   bands (ev):

    -9.3269  -9.0959  -8.9631  -8.8905  -8.8809  17.7198  29.0699  30.4202
    40.8613  45.6641  57.1246  57.4691  59.5461  60.3193

          k = 0.0000 0.8571 0.0000 (  1054 PWs)   bands (ev):

    -9.6346  -9.3515  -8.7131  -8.6685  -8.6685  19.0326  27.4221  35.8989
    35.8989  42.9100  43.2215  64.4221  69.1955  69.1955

          k = 0.8571-0.0000 0.8571 (  1045 PWs)   bands (ev):

    -9.5681  -9.3161  -8.7442  -8.7072  -8.6644  21.1508  25.5759  32.0706
    36.1933  43.1802  47.4316  62.6911  66.5554  68.2899

          k =-0.2857 0.5714 0.0000 (  1052 PWs)   bands (ev):

    -9.3799  -9.2006  -9.0381  -8.9209  -8.7621  14.8659  32.4426  34.6815
    39.9776  49.0762  49.2669  55.1109  60.5202  63.5867

          k = 0.5714-0.2857 0.8571 (  1062 PWs)   bands (ev):

    -9.2915  -9.2261  -9.0057  -8.8799  -8.7274  18.3391  26.8840  33.4453
    37.3073  48.6111  52.4407  56.4252  61.7251  62.5684

          k = 0.7143-0.1429 1.0000 (  1059 PWs)   bands (ev):

    -9.4589  -9.2686  -8.8943  -8.7516  -8.6701  19.6986  27.8158  32.3436
    33.8757  47.8984  47.9755  58.4299  64.3263  68.6937

          k = 0.5714 0.0000 0.8571 (  1053 PWs)   bands (ev):

    -9.3242  -9.1306  -9.0462  -8.8591  -8.6735  20.8653  28.0366  28.7553
    34.3595  48.7550  55.1832  55.7303  58.1803  66.2031

     the Fermi energy is    47.3760 ev

!    total energy              =    -282.85776282 Ry
     Harris-Foulkes estimate   =    -282.85776282 Ry
     estimated scf accuracy    <          5.5E-09 Ry

     The total energy is the sum of the following terms:

     one-electron contribution =      -4.07920734 Ry
     hartree contribution      =      28.13896810 Ry
     xc contribution           =     -64.58401178 Ry
     ewald contribution        =    -242.33311988 Ry
     smearing contrib. (-TS)   =      -0.00039192 Ry

     convergence has been achieved in   5 iterations

     Forces acting on atoms (cartesian axes, Ry/au):

     atom    1 type  1   force =     0.00000000    0.00000000    0.00000000

     Total force =     0.000000     Total SCF correction =     0.000000


     Computing stress (Cartesian axis) and pressure

          total   stress  (Ry/bohr**3)                   (kbar)     P= 7148.79
   0.04859646  -0.00000000   0.00000000       7148.79     -0.00      0.00
  -0.00000000   0.04859646   0.00000000         -0.00   7148.79      0.00
   0.00000000   0.00000000   0.04859646          0.00      0.00   7148.79


     Writing output data file Fr.save/

     init_run     :      0.31s CPU      0.33s WALL (       1 calls)
     electrons    :      2.14s CPU      2.22s WALL (       1 calls)
     forces       :      0.06s CPU      0.06s WALL (       1 calls)
     stress       :      0.19s CPU      0.19s WALL (       1 calls)

     Called by init_run:
     wfcinit      :      0.09s CPU      0.09s WALL (       1 calls)
     potinit      :      0.01s CPU      0.01s WALL (       1 calls)
     hinit0       :      0.20s CPU      0.20s WALL (       1 calls)

     Called by electrons:
     c_bands      :      1.75s CPU      1.82s WALL (       6 calls)
     sum_band     :      0.32s CPU      0.33s WALL (       6 calls)
     v_of_rho     :      0.03s CPU      0.03s WALL (       6 calls)
     newd         :      0.05s CPU      0.05s WALL (       6 calls)
     mix_rho      :      0.00s CPU      0.00s WALL (       6 calls)

     Called by c_bands:
     init_us_2    :      0.04s CPU      0.04s WALL (     300 calls)
     cegterg      :      1.70s CPU      1.76s WALL (     120 calls)

     Called by sum_band:
     sum_band:bec :      0.00s CPU      0.00s WALL (     120 calls)
     addusdens    :      0.05s CPU      0.05s WALL (       6 calls)

     Called by *egterg:
     h_psi        :      1.26s CPU      1.31s WALL (     453 calls)
     s_psi        :      0.04s CPU      0.04s WALL (     453 calls)
     g_psi        :      0.00s CPU      0.00s WALL (     313 calls)
     cdiaghg      :      0.21s CPU      0.21s WALL (     413 calls)

     Called by h_psi:
     h_psi:pot    :      1.25s CPU      1.30s WALL (     453 calls)
     h_psi:calbec :      0.06s CPU      0.06s WALL (     453 calls)
     vloc_psi     :      1.15s CPU      1.20s WALL (     453 calls)
     add_vuspsi   :      0.04s CPU      0.04s WALL (     453 calls)

     General routines
     calbec       :      0.10s CPU      0.10s WALL (     673 calls)
     fft          :      0.03s CPU      0.03s WALL (      93 calls)
     ffts         :      0.00s CPU      0.00s WALL (       6 calls)
     fftw         :      1.28s CPU      1.33s WALL (   10756 calls)

     Parallel routines
     fft_scatt_xy :      0.11s CPU      0.11s WALL (   10855 calls)
     fft_scatt_yz :      0.36s CPU      0.37s WALL (   10855 calls)

     PWSCF        :     3.64s CPU         3.80s WALL


   This run was terminated on:  22:58:11   7Apr2024            

=------------------------------------------------------------------------------=
   JOB DONE.
=------------------------------------------------------------------------------=
