
     Program PWSCF v.6.3MaX starts on  7Apr2024 at 22:40:34 

     This program is part of the open-source Quantum ESPRESSO suite
     for quantum simulation of materials; please cite
         "P. Giannozzi et al., J. Phys.:Condens. Matter 21 395502 (2009);
         "P. Giannozzi et al., J. Phys.:Condens. Matter 29 465901 (2017);
          URL http://www.quantum-espresso.org", 
     in publications or presentations arising from this work. More details at
     http://www.quantum-espresso.org/quote

     Parallel version (MPI), running on     5 processors

     MPI processes distributed on     1 nodes
     R & G space division:  proc/nbgrp/npool/nimage =       5
     Waiting for input...
     Reading input from standard input

     Current dimensions of program PWSCF are:
     Max number of different atomic species (ntypx) = 10
     Max number of k-points (npk) =  40000
     Max angular momentum in pseudopotentials (lmaxx) =  3
               file Fr.pz-spdn-kjpaw_psl.1.0.0.UPF: wavefunction(s)  6P renormalized

     Subspace diagonalization in iterative solution of the eigenvalue problem:
     a serial algorithm will be used


     Parallelization info
     --------------------
     sticks:   dense  smooth     PW     G-vecs:    dense   smooth      PW
     Min          72      72     24                  876      876     173
     Max          73      73     25                  877      877     174
     Sum         361     361    121                 4381     4381     869



     bravais-lattice index     =            2
     lattice parameter (alat)  =       6.8300  a.u.
     unit-cell volume          =      79.6530 (a.u.)^3
     number of atoms/cell      =            1
     number of atomic types    =            1
     number of electrons       =        19.00
     number of Kohn-Sham states=           14
     kinetic-energy cutoff     =      55.0000  Ry
     charge density cutoff     =     220.0000  Ry
     convergence threshold     =      1.0E-08
     mixing beta               =       0.7000
     number of iterations used =            8  plain     mixing
     Exchange-correlation      = SLA PZ NOGX NOGC ( 1  1  0  0 0 0)

     celldm(1)=   6.830000  celldm(2)=   0.000000  celldm(3)=   0.000000
     celldm(4)=   0.000000  celldm(5)=   0.000000  celldm(6)=   0.000000

     crystal axes: (cart. coord. in units of alat)
               a(1) = (  -0.500000   0.000000   0.500000 )  
               a(2) = (   0.000000   0.500000   0.500000 )  
               a(3) = (  -0.500000   0.500000   0.000000 )  

     reciprocal axes: (cart. coord. in units 2 pi/alat)
               b(1) = ( -1.000000 -1.000000  1.000000 )  
               b(2) = (  1.000000  1.000000  1.000000 )  
               b(3) = ( -1.000000  1.000000 -1.000000 )  


     PseudoPot. # 1 for Fr read from file:
     /home/lorenzo/pseudos/Fr/Fr.pz-spdn-kjpaw_psl.1.0.0.UPF
     MD5 check sum: 60dafd115682613df3cc92ec23a62a32
     Pseudo is Projector augmented-wave + core cor, Zval = 19.0
     Generated using "atomic" code by A. Dal Corso v.6.2.2
     Shape of augmentation charge: PSQ
     Using radial grid of 1287 points,  6 beta functions with: 
                l(1) =   0
                l(2) =   0
                l(3) =   1
                l(4) =   1
                l(5) =   2
                l(6) =   2
     Q(r) pseudized with 0 coefficients 


     atomic species   valence    mass     pseudopotential
        Fr            19.00   223.00000     Fr( 1.00)

     48 Sym. Ops., with inversion, found



   Cartesian axes

     site n.     atom                  positions (alat units)
         1           Fr  tau(   1) = (   0.0000000   0.0000000   0.0000000  )

     number of k points=    35  gaussian smearing, width (Ry)=  0.0100
                       cart. coord. in units 2pi/alat
        k(    1) = (   0.0000000   0.0000000   0.0000000), wk =   0.0027435
        k(    2) = (  -0.1111111   0.1111111  -0.1111111), wk =   0.0219479
        k(    3) = (  -0.2222222   0.2222222  -0.2222222), wk =   0.0219479
        k(    4) = (  -0.3333333   0.3333333  -0.3333333), wk =   0.0219479
        k(    5) = (  -0.4444444   0.4444444  -0.4444444), wk =   0.0219479
        k(    6) = (   0.0000000   0.2222222   0.0000000), wk =   0.0164609
        k(    7) = (  -0.1111111   0.3333333  -0.1111111), wk =   0.0658436
        k(    8) = (  -0.2222222   0.4444444  -0.2222222), wk =   0.0658436
        k(    9) = (  -0.3333333   0.5555556  -0.3333333), wk =   0.0658436
        k(   10) = (   0.5555556  -0.3333333   0.5555556), wk =   0.0658436
        k(   11) = (   0.4444444  -0.2222222   0.4444444), wk =   0.0658436
        k(   12) = (   0.3333333  -0.1111111   0.3333333), wk =   0.0658436
        k(   13) = (   0.2222222  -0.0000000   0.2222222), wk =   0.0329218
        k(   14) = (   0.0000000   0.4444444   0.0000000), wk =   0.0164609
        k(   15) = (  -0.1111111   0.5555556  -0.1111111), wk =   0.0658436
        k(   16) = (  -0.2222222   0.6666667  -0.2222222), wk =   0.0658436
        k(   17) = (   0.6666667  -0.2222222   0.6666667), wk =   0.0658436
        k(   18) = (   0.5555556  -0.1111111   0.5555556), wk =   0.0658436
        k(   19) = (   0.4444444   0.0000000   0.4444444), wk =   0.0329218
        k(   20) = (   0.0000000   0.6666667   0.0000000), wk =   0.0164609
        k(   21) = (  -0.1111111   0.7777778  -0.1111111), wk =   0.0658436
        k(   22) = (   0.7777778  -0.1111111   0.7777778), wk =   0.0658436
        k(   23) = (   0.6666667  -0.0000000   0.6666667), wk =   0.0329218
        k(   24) = (   0.0000000   0.8888889   0.0000000), wk =   0.0164609
        k(   25) = (   0.8888889   0.0000000   0.8888889), wk =   0.0329218
        k(   26) = (  -0.2222222   0.4444444   0.0000000), wk =   0.0658436
        k(   27) = (  -0.3333333   0.5555556  -0.1111111), wk =   0.1316872
        k(   28) = (   0.5555556  -0.3333333   0.7777778), wk =   0.1316872
        k(   29) = (  -0.2222222   0.6666667   0.0000000), wk =   0.0658436
        k(   30) = (   0.6666667  -0.2222222   0.8888889), wk =   0.1316872
        k(   31) = (   0.5555556  -0.1111111   0.7777778), wk =   0.1316872
        k(   32) = (   0.4444444   0.0000000   0.6666667), wk =   0.0658436
        k(   33) = (   0.7777778  -0.1111111   1.0000000), wk =   0.0658436
        k(   34) = (   0.6666667  -0.0000000   0.8888889), wk =   0.0658436
        k(   35) = (   0.5555556  -0.1111111   1.0000000), wk =   0.0658436

     Dense  grid:     4381 G-vectors     FFT dimensions: (  24,  24,  24)

     Estimated max dynamical RAM per process >       5.41 MB

     Estimated total dynamical RAM >      27.07 MB

     Check: negative/imaginary core charge=   -0.000002    0.000000

     Initial potential from superposition of free atoms

     starting charge   18.97647, renormalised to   19.00000
     Starting wfcs are   10 randomized atomic wfcs +    4 random wfcs
     Checking if some PAW data can be deallocated... 

     total cpu time spent up to now is        1.3 secs

     Self-consistent Calculation

     iteration #  1     ecut=    55.00 Ry     beta= 0.70
     Davidson diagonalization with overlap
     ethr =  1.00E-02,  avg # of iterations =  4.6

     Threshold (ethr) on eigenvalues was too large:
     Diagonalizing with lowered threshold

     Davidson diagonalization with overlap
     ethr =  9.18E-05,  avg # of iterations =  1.9

     total cpu time spent up to now is        2.6 secs

     total energy              =   -1045.24426704 Ry
     Harris-Foulkes estimate   =   -1045.25650373 Ry
     estimated scf accuracy    <       0.01722305 Ry

     iteration #  2     ecut=    55.00 Ry     beta= 0.70
     Davidson diagonalization with overlap
     ethr =  9.06E-05,  avg # of iterations =  2.0

     total cpu time spent up to now is        3.1 secs

     total energy              =   -1045.24685564 Ry
     Harris-Foulkes estimate   =   -1045.24716884 Ry
     estimated scf accuracy    <       0.00050701 Ry

     iteration #  3     ecut=    55.00 Ry     beta= 0.70
     Davidson diagonalization with overlap
     ethr =  2.67E-06,  avg # of iterations =  3.0

     total cpu time spent up to now is        3.5 secs

     total energy              =   -1045.24690835 Ry
     Harris-Foulkes estimate   =   -1045.24691778 Ry
     estimated scf accuracy    <       0.00001811 Ry

     iteration #  4     ecut=    55.00 Ry     beta= 0.70
     Davidson diagonalization with overlap
     ethr =  9.53E-08,  avg # of iterations =  2.1

     total cpu time spent up to now is        3.9 secs

     total energy              =   -1045.24691345 Ry
     Harris-Foulkes estimate   =   -1045.24691307 Ry
     estimated scf accuracy    <       0.00000026 Ry

     iteration #  5     ecut=    55.00 Ry     beta= 0.70
     Davidson diagonalization with overlap
     ethr =  1.39E-09,  avg # of iterations =  2.2

     total cpu time spent up to now is        4.2 secs

     total energy              =   -1045.24691350 Ry
     Harris-Foulkes estimate   =   -1045.24691348 Ry
     estimated scf accuracy    <       0.00000002 Ry

     iteration #  6     ecut=    55.00 Ry     beta= 0.70
     Davidson diagonalization with overlap
     ethr =  9.92E-11,  avg # of iterations =  2.0

     total cpu time spent up to now is        4.6 secs

     End of self-consistent calculation

          k = 0.0000 0.0000 0.0000 (   537 PWs)   bands (ev):

    -9.4440  -9.4440  -9.4440  -9.0961  -9.0961   9.0941  46.8756  46.8756
    46.8756  48.0859  53.7000  53.7000  53.7000  57.5421

          k =-0.1111 0.1111-0.1111 (   540 PWs)   bands (ev):

    -9.4398  -9.4065  -9.4065  -9.0947  -9.0947   9.5884  42.0635  46.1612
    46.1612  47.9572  54.8866  54.8866  55.6201  56.9040

          k =-0.2222 0.2222-0.2222 (   552 PWs)   bands (ev):

    -9.4325  -9.3539  -9.3539  -9.0471  -9.0471  11.0729  35.1693  44.7720
    44.7720  47.9968  53.6812  54.3699  54.3699  57.6702

          k =-0.3333 0.3333-0.3333 (   555 PWs)   bands (ev):

    -9.4302  -9.3617  -9.3617  -8.9223  -8.9223  13.5011  28.8663  43.4936
    43.4936  47.9659  51.9078  52.5834  52.5834  61.1990

          k =-0.4444 0.4444-0.4444 (   556 PWs)   bands (ev):

    -9.4317  -9.3849  -9.3849  -8.8208  -8.8208  16.4065  23.9691  42.7391
    42.7391  47.8648  51.0676  51.7132  51.7132  64.4892

          k = 0.0000 0.2222 0.0000 (   544 PWs)   bands (ev):

    -9.4830  -9.3661  -9.3661  -9.1363  -9.0631   9.7529  44.0191  44.0191
    44.4823  46.7299  52.6102  56.1310  56.9016  56.9016

          k =-0.1111 0.3333-0.1111 (   551 PWs)   bands (ev):

    -9.4947  -9.3017  -9.2928  -9.1488  -9.0108  10.9077  37.6697  42.2238
    43.8267  47.7533  50.1570  55.9024  57.9827  58.2155

          k =-0.2222 0.4444-0.2222 (   551 PWs)   bands (ev):

    -9.4723  -9.3167  -9.2817  -9.0536  -8.8990  13.0296  31.1897  41.1236
    42.0520  46.7129  52.7621  55.5336  55.8766  56.6330

          k =-0.3333 0.5556-0.3333 (   551 PWs)   bands (ev):

    -9.4474  -9.3470  -9.3085  -8.9298  -8.8103  15.8825  25.7567  40.1957
    40.9064  46.1459  53.9081  54.1307  55.0153  59.1714

          k = 0.5556-0.3333 0.5556 (   556 PWs)   bands (ev):

    -9.4216  -9.3657  -9.3245  -8.8554  -8.8253  17.3942  23.5999  38.9251
    41.6851  46.4731  52.7743  53.0432  56.0609  63.4737

          k = 0.4444-0.2222 0.4444 (   552 PWs)   bands (ev):

    -9.3982  -9.3714  -9.3130  -8.9459  -8.8667  14.8880  27.4208  38.5256
    43.4311  47.6184  51.9196  52.6185  57.5622  60.1246

          k = 0.3333-0.1111 0.3333 (   547 PWs)   bands (ev):

    -9.4223  -9.3387  -9.2975  -9.0951  -8.9488  12.2187  33.2788  39.0365
    45.7991  49.4353  51.2162  52.8825  56.2824  57.9065

          k = 0.2222-0.0000 0.2222 (   553 PWs)   bands (ev):

    -9.4441  -9.3577  -9.3466  -9.1296  -9.0404  10.4131  39.4652  40.8195
    47.3671  49.2719  52.7893  54.1024  54.1446  56.3296

          k = 0.0000 0.4444 0.0000 (   556 PWs)   bands (ev):

    -9.5814  -9.2460  -9.1647  -9.1647  -8.9794  11.7317  39.3014  40.0524
    40.0524  44.8900  46.6183  60.9114  60.9114  61.1321

          k =-0.1111 0.5556-0.1111 (   554 PWs)   bands (ev):

    -9.5961  -9.3051  -9.1073  -9.0548  -8.8877  13.5287  33.7410  38.2823
    38.7048  44.7234  47.5043  60.1273  60.4466  61.9065

          k =-0.2222 0.6667-0.2222 (   546 PWs)   bands (ev):

    -9.5487  -9.3052  -9.1278  -9.0021  -8.7993  16.1489  28.3353  35.7053
    38.3737  44.3767  52.1349  58.1078  58.6253  61.7328

          k = 0.6667-0.2222 0.6667 (   553 PWs)   bands (ev):

    -9.4933  -9.2467  -9.1548  -8.9954  -8.8202  18.4778  24.9315  33.7412
    39.1461  44.7176  56.6487  56.8221  57.6988  62.5055

          k = 0.5556-0.1111 0.5556 (   548 PWs)   bands (ev):

    -9.4339  -9.2617  -9.1610  -8.9547  -8.9523  17.0236  27.0817  32.7576
    40.9766  45.7627  55.5299  55.8450  60.1628  60.7309

          k = 0.4444 0.0000 0.4444 (   550 PWs)   bands (ev):

    -9.3730  -9.3523  -9.1446  -9.1363  -8.9112  14.2941  31.5541  33.5418
    43.5832  47.5385  53.5040  55.6979  55.7266  58.2863

          k = 0.0000 0.6667 0.0000 (   556 PWs)   bands (ev):

    -9.6921  -9.3834  -8.9280  -8.9280  -8.8834  14.9970  32.5788  37.0388
    37.0388  43.6299  43.7200  64.3455  64.8804  64.8804

          k =-0.1111 0.7778-0.1111 (   547 PWs)   bands (ev):

    -9.6853  -9.4126  -8.9254  -8.8702  -8.7920  17.3136  29.0710  33.9681
    36.4093  43.2909  46.1816  62.1810  64.0530  68.4530

          k = 0.7778-0.1111 0.7778 (   549 PWs)   bands (ev):

    -9.6027  -9.3347  -8.9567  -8.9289  -8.8033  19.7188  26.5787  30.3871
    36.9245  43.5083  51.3110  60.3819  62.1117  66.5995

          k = 0.6667-0.0000 0.6667 (   544 PWs)   bands (ev):

    -9.5145  -9.1468  -9.0793  -9.0065  -8.9120  19.3652  28.0205  28.0487
    38.5349  44.3255  57.1737  58.7658  59.7610  62.3577

          k = 0.0000 0.8889 0.0000 (   544 PWs)   bands (ev):

    -9.7639  -9.4798  -8.8204  -8.7688  -8.7688  19.2395  26.2914  35.4360
    35.4360  42.6151  43.0157  64.1046  69.5402  69.5402

          k = 0.8889 0.0000 0.8889 (   550 PWs)   bands (ev):

    -9.7205  -9.4596  -8.8399  -8.7932  -8.7663  20.6737  25.0348  32.8136
    35.6146  42.8749  45.7587  62.9847  67.3966  68.9145

          k =-0.2222 0.4444 0.0000 (   549 PWs)   bands (ev):

    -9.5028  -9.2930  -9.1741  -9.1690  -8.9354  12.3843  35.2411  37.1751
    43.0113  48.4406  48.7937  55.4765  57.8470  60.4487

          k =-0.3333 0.5556-0.1111 (   548 PWs)   bands (ev):

    -9.4538  -9.3332  -9.1844  -9.0415  -8.8656  14.7688  29.8951  35.6752
    40.5288  47.8566  51.8829  54.4565  58.2929  61.6537

          k = 0.5556-0.3333 0.7778 (   550 PWs)   bands (ev):

    -9.4093  -9.3641  -9.1782  -8.9698  -8.8301  17.5418  25.3010  35.4879
    38.7793  47.4440  51.9450  58.5192  58.8035  60.0862

          k =-0.2222 0.6667 0.0000 (   551 PWs)   bands (ev):

    -9.5935  -9.3486  -9.0748  -8.9330  -8.8447  15.5924  31.3049  34.4495
    36.8713  46.8664  46.9183  57.8044  63.7894  65.9489

          k = 0.6667-0.2222 0.8889 (   550 PWs)   bands (ev):

    -9.5145  -9.3276  -9.0962  -8.9286  -8.8135  18.2376  27.6630  32.2474
    35.5021  46.8980  51.7108  55.8578  63.4142  64.6492

          k = 0.5556-0.1111 0.7778 (   544 PWs)   bands (ev):

    -9.4458  -9.2548  -9.1061  -9.0190  -8.8331  19.4238  26.2982  30.7267
    36.0856  47.5556  54.2007  57.6133  59.0390  62.8223

          k = 0.4444 0.0000 0.6667 (   552 PWs)   bands (ev):

    -9.3866  -9.3403  -9.1325  -8.9418  -8.9351  17.2416  29.0360  30.8253
    37.9628  48.7381  52.7072  55.0242  61.1064  62.7518

          k = 0.7778-0.1111 1.0000 (   550 PWs)   bands (ev):

    -9.6534  -9.4235  -8.9271  -8.8363  -8.7694  19.5863  26.7097  32.9912
    33.8238  45.9838  46.1265  60.4882  65.4404  68.5012

          k = 0.6667-0.0000 0.8889 (   536 PWs)   bands (ev):

    -9.5406  -9.3372  -9.0207  -8.9308  -8.7725  20.6956  26.5592  29.6587
    34.2406  46.5611  51.4207  58.1840  61.1307  66.3260

          k = 0.5556-0.1111 1.0000 (   542 PWs)   bands (ev):

    -9.3648  -9.3426  -9.1774  -8.9608  -8.7709  20.3072  27.7898  29.3794
    32.8246  51.5619  51.8132  54.5056  58.4692  67.9843

     the Fermi energy is    46.7299 ev

!    total energy              =   -1045.24691351 Ry
     Harris-Foulkes estimate   =   -1045.24691351 Ry
     estimated scf accuracy    <          3.3E-10 Ry

     total all-electron energy =    -48490.699886 Ry

     The total energy is the sum of the following terms:

     one-electron contribution =       1.48419352 Ry
     hartree contribution      =      28.22051268 Ry
     xc contribution           =     -63.90221574 Ry
     ewald contribution        =    -242.33311993 Ry
     one-center paw contrib.   =    -768.71580262 Ry
     smearing contrib. (-TS)   =      -0.00048140 Ry

     convergence has been achieved in   6 iterations

     Forces acting on atoms (cartesian axes, Ry/au):

     atom    1 type  1   force =     0.00000000    0.00000000    0.00000000

     Total force =     0.000000     Total SCF correction =     0.000000


     Computing stress (Cartesian axis) and pressure

          total   stress  (Ry/bohr**3)                   (kbar)     P= 7029.16
   0.04778330  -0.00000000  -0.00000000       7029.16     -0.00     -0.00
  -0.00000000   0.04778330  -0.00000000         -0.00   7029.16     -0.00
  -0.00000000  -0.00000000   0.04778330         -0.00     -0.00   7029.16


     Writing output data file Fr.save/

     init_run     :      0.29s CPU      0.30s WALL (       1 calls)
     electrons    :      3.16s CPU      3.33s WALL (       1 calls)
     forces       :      0.03s CPU      0.03s WALL (       1 calls)
     stress       :      0.11s CPU      0.11s WALL (       1 calls)

     Called by init_run:
     wfcinit      :      0.09s CPU      0.10s WALL (       1 calls)
     potinit      :      0.05s CPU      0.05s WALL (       1 calls)
     hinit0       :      0.14s CPU      0.14s WALL (       1 calls)

     Called by electrons:
     c_bands      :      2.49s CPU      2.63s WALL (       7 calls)
     sum_band     :      0.37s CPU      0.40s WALL (       7 calls)
     v_of_rho     :      0.00s CPU      0.00s WALL (       7 calls)
     newd         :      0.03s CPU      0.03s WALL (       7 calls)
     PAW_pot      :      0.32s CPU      0.32s WALL (       7 calls)
     mix_rho      :      0.00s CPU      0.00s WALL (       7 calls)

     Called by c_bands:
     init_us_2    :      0.05s CPU      0.05s WALL (     595 calls)
     cegterg      :      2.41s CPU      2.55s WALL (     245 calls)

     Called by sum_band:
     sum_band:bec :      0.00s CPU      0.00s WALL (     245 calls)
     addusdens    :      0.04s CPU      0.04s WALL (       7 calls)

     Called by *egterg:
     h_psi        :      1.63s CPU      1.74s WALL (     905 calls)
     s_psi        :      0.06s CPU      0.06s WALL (     905 calls)
     g_psi        :      0.01s CPU      0.01s WALL (     625 calls)
     cdiaghg      :      0.44s CPU      0.46s WALL (     835 calls)

     Called by h_psi:
     h_psi:pot    :      1.62s CPU      1.73s WALL (     905 calls)
     h_psi:calbec :      0.07s CPU      0.08s WALL (     905 calls)
     vloc_psi     :      1.48s CPU      1.58s WALL (     905 calls)
     add_vuspsi   :      0.06s CPU      0.06s WALL (     905 calls)

     General routines
     calbec       :      0.13s CPU      0.14s WALL (    1325 calls)
     fft          :      0.01s CPU      0.01s WALL (      38 calls)
     ffts         :      0.00s CPU      0.00s WALL (       7 calls)
     fftw         :      1.61s CPU      1.73s WALL (   21354 calls)

     Parallel routines
     fft_scatt_xy :      0.15s CPU      0.16s WALL (   21399 calls)
     fft_scatt_yz :      0.40s CPU      0.43s WALL (   21399 calls)

     PWSCF        :     4.58s CPU         4.83s WALL


   This run was terminated on:  22:40:39   7Apr2024            

=------------------------------------------------------------------------------=
   JOB DONE.
=------------------------------------------------------------------------------=
