
     Program PWSCF v.6.3MaX starts on  7Apr2024 at 22:25:45 

     This program is part of the open-source Quantum ESPRESSO suite
     for quantum simulation of materials; please cite
         "P. Giannozzi et al., J. Phys.:Condens. Matter 21 395502 (2009);
         "P. Giannozzi et al., J. Phys.:Condens. Matter 29 465901 (2017);
          URL http://www.quantum-espresso.org", 
     in publications or presentations arising from this work. More details at
     http://www.quantum-espresso.org/quote

     Parallel version (MPI), running on     5 processors

     MPI processes distributed on     1 nodes
     R & G space division:  proc/nbgrp/npool/nimage =       5
     Waiting for input...
     Reading input from standard input

     Current dimensions of program PWSCF are:
     Max number of different atomic species (ntypx) = 10
     Max number of k-points (npk) =  40000
     Max angular momentum in pseudopotentials (lmaxx) =  3
               file Fr.pz-spdn-kjpaw_psl.1.0.0.UPF: wavefunction(s)  6P renormalized

     Subspace diagonalization in iterative solution of the eigenvalue problem:
     a serial algorithm will be used


     Parallelization info
     --------------------
     sticks:   dense  smooth     PW     G-vecs:    dense   smooth      PW
     Min          32      32     11                  271      271      56
     Max          33      33     11                  273      273      58
     Sum         163     163     55                 1363     1363     283



     bravais-lattice index     =            2
     lattice parameter (alat)  =       6.8300  a.u.
     unit-cell volume          =      79.6530 (a.u.)^3
     number of atoms/cell      =            1
     number of atomic types    =            1
     number of electrons       =        19.00
     number of Kohn-Sham states=           14
     kinetic-energy cutoff     =      25.0000  Ry
     charge density cutoff     =     100.0000  Ry
     convergence threshold     =      1.0E-08
     mixing beta               =       0.7000
     number of iterations used =            8  plain     mixing
     Exchange-correlation      = SLA PZ NOGX NOGC ( 1  1  0  0 0 0)

     celldm(1)=   6.830000  celldm(2)=   0.000000  celldm(3)=   0.000000
     celldm(4)=   0.000000  celldm(5)=   0.000000  celldm(6)=   0.000000

     crystal axes: (cart. coord. in units of alat)
               a(1) = (  -0.500000   0.000000   0.500000 )  
               a(2) = (   0.000000   0.500000   0.500000 )  
               a(3) = (  -0.500000   0.500000   0.000000 )  

     reciprocal axes: (cart. coord. in units 2 pi/alat)
               b(1) = ( -1.000000 -1.000000  1.000000 )  
               b(2) = (  1.000000  1.000000  1.000000 )  
               b(3) = ( -1.000000  1.000000 -1.000000 )  


     PseudoPot. # 1 for Fr read from file:
     /home/lorenzo/pseudos/Fr/Fr.pz-spdn-kjpaw_psl.1.0.0.UPF
     MD5 check sum: 60dafd115682613df3cc92ec23a62a32
     Pseudo is Projector augmented-wave + core cor, Zval = 19.0
     Generated using "atomic" code by A. Dal Corso v.6.2.2
     Shape of augmentation charge: PSQ
     Using radial grid of 1287 points,  6 beta functions with: 
                l(1) =   0
                l(2) =   0
                l(3) =   1
                l(4) =   1
                l(5) =   2
                l(6) =   2
     Q(r) pseudized with 0 coefficients 


     atomic species   valence    mass     pseudopotential
        Fr            19.00   223.00000     Fr( 1.00)

     48 Sym. Ops., with inversion, found



   Cartesian axes

     site n.     atom                  positions (alat units)
         1           Fr  tau(   1) = (   0.0000000   0.0000000   0.0000000  )

     number of k points=     8  gaussian smearing, width (Ry)=  0.0100
                       cart. coord. in units 2pi/alat
        k(    1) = (   0.0000000   0.0000000   0.0000000), wk =   0.0312500
        k(    2) = (  -0.2500000   0.2500000  -0.2500000), wk =   0.2500000
        k(    3) = (   0.5000000  -0.5000000   0.5000000), wk =   0.1250000
        k(    4) = (   0.0000000   0.5000000   0.0000000), wk =   0.1875000
        k(    5) = (   0.7500000  -0.2500000   0.7500000), wk =   0.7500000
        k(    6) = (   0.5000000   0.0000000   0.5000000), wk =   0.3750000
        k(    7) = (   0.0000000  -1.0000000   0.0000000), wk =   0.0937500
        k(    8) = (  -0.5000000  -1.0000000   0.0000000), wk =   0.1875000

     Dense  grid:     1363 G-vectors     FFT dimensions: (  15,  15,  15)

     Estimated max dynamical RAM per process >       1.94 MB

     Estimated total dynamical RAM >       9.72 MB

     Check: negative/imaginary core charge=   -0.000045    0.000000

     Initial potential from superposition of free atoms

     starting charge   18.97647, renormalised to   19.00000
     Starting wfcs are   10 randomized atomic wfcs +    4 random wfcs
     Checking if some PAW data can be deallocated... 

     total cpu time spent up to now is        1.1 secs

     Self-consistent Calculation

     iteration #  1     ecut=    25.00 Ry     beta= 0.70
     Davidson diagonalization with overlap
     ethr =  1.00E-02,  avg # of iterations =  4.6

     total cpu time spent up to now is        1.2 secs

     total energy              =   -1040.74294630 Ry
     Harris-Foulkes estimate   =   -1041.35387824 Ry
     estimated scf accuracy    <       0.70948322 Ry

     iteration #  2     ecut=    25.00 Ry     beta= 0.70
     Davidson diagonalization with overlap
     ethr =  3.73E-03,  avg # of iterations =  2.0

     total cpu time spent up to now is        1.3 secs

     total energy              =   -1040.90241094 Ry
     Harris-Foulkes estimate   =   -1040.92168550 Ry
     estimated scf accuracy    <       0.04537164 Ry

     iteration #  3     ecut=    25.00 Ry     beta= 0.70
     Davidson diagonalization with overlap
     ethr =  2.39E-04,  avg # of iterations =  2.1

     total cpu time spent up to now is        1.4 secs

     total energy              =   -1040.90576909 Ry
     Harris-Foulkes estimate   =   -1040.90678278 Ry
     estimated scf accuracy    <       0.00219785 Ry

     iteration #  4     ecut=    25.00 Ry     beta= 0.70
     Davidson diagonalization with overlap
     ethr =  1.16E-05,  avg # of iterations =  1.9

     total cpu time spent up to now is        1.5 secs

     total energy              =   -1040.90588159 Ry
     Harris-Foulkes estimate   =   -1040.90588145 Ry
     estimated scf accuracy    <       0.00000621 Ry

     iteration #  5     ecut=    25.00 Ry     beta= 0.70
     Davidson diagonalization with overlap
     ethr =  3.27E-08,  avg # of iterations =  2.5

     total cpu time spent up to now is        1.6 secs

     total energy              =   -1040.90588294 Ry
     Harris-Foulkes estimate   =   -1040.90588295 Ry
     estimated scf accuracy    <       0.00000060 Ry

     iteration #  6     ecut=    25.00 Ry     beta= 0.70
     Davidson diagonalization with overlap
     ethr =  3.13E-09,  avg # of iterations =  1.1

     total cpu time spent up to now is        1.6 secs

     End of self-consistent calculation

          k = 0.0000 0.0000 0.0000 (   169 PWs)   bands (ev):

    -9.2566  -9.2566  -8.8120  -8.8120  -8.8120   8.7006  46.1543  46.1543
    46.1543  48.5652  56.8446  56.8446  56.8446  56.8827

          k =-0.2500 0.2500-0.2500 (   162 PWs)   bands (ev):

    -8.4227  -8.4227  -7.9277  -7.2221  -7.2221  11.1675  33.4131  44.0228
    44.0228  48.8478  53.6066  55.9360  55.9360  60.5066

          k = 0.5000-0.5000 0.5000 (   168 PWs)   bands (ev):

    -8.8403  -8.5045  -8.5045  -7.7851  -7.7851  16.4999  22.9786  42.0641
    42.0641  48.3180  52.1549  54.6487  54.6487  65.1696

          k = 0.0000 0.5000 0.0000 (   165 PWs)   bands (ev):

    -9.0916  -8.2668  -7.7558  -7.6203  -7.6203  11.9822  36.8558  39.0916
    39.0916  46.6706  47.1322  62.2262  62.2262  64.3491

          k = 0.7500-0.2500 0.7500 (   171 PWs)   bands (ev):

    -8.7762  -8.6175  -8.4833  -8.0715  -7.8729  17.1006  26.6753  33.6596
    37.8024  45.7698  54.5012  59.7895  59.9042  64.5849

          k = 0.5000 0.0000 0.5000 (   170 PWs)   bands (ev):

    -8.7769  -8.6592  -8.4119  -8.4099  -7.6199  15.0453  29.7820  32.2297
    41.9788  47.7566  55.5399  58.2498  58.8617  59.5891

          k = 0.0000-1.0000 0.0000 (   174 PWs)   bands (ev):

    -9.2271  -8.7082  -8.7082  -8.6909  -6.9163  19.7265  24.5680  34.9517
    34.9517  43.7120  45.6039  64.5494  70.1966  70.8266

          k =-0.5000-1.0000 0.0000 (   176 PWs)   bands (ev):

    -9.1425  -8.8736  -8.8736  -8.4903  -8.3180  19.8971  28.4625  28.4625
    32.2293  53.3488  54.7288  54.7288  57.2109  70.1087

     the Fermi energy is    46.6291 ev

!    total energy              =   -1040.90588295 Ry
     Harris-Foulkes estimate   =   -1040.90588296 Ry
     estimated scf accuracy    <          7.7E-09 Ry

     total all-electron energy =    -48486.358856 Ry

     The total energy is the sum of the following terms:

     one-electron contribution =       7.02244915 Ry
     hartree contribution      =      25.09103678 Ry
     xc contribution           =     -62.81159884 Ry
     ewald contribution        =    -242.33311992 Ry
     one-center paw contrib.   =    -767.87416805 Ry
     smearing contrib. (-TS)   =      -0.00048207 Ry

     convergence has been achieved in   6 iterations

     Forces acting on atoms (cartesian axes, Ry/au):

     atom    1 type  1   force =     0.00000000    0.00000000    0.00000000

     Total force =     0.000000     Total SCF correction =     0.000000


     Computing stress (Cartesian axis) and pressure

          total   stress  (Ry/bohr**3)                   (kbar)     P=********
  -0.10852083  -0.00000000  -0.00000000     -15963.96     -0.00     -0.00
  -0.00000000  -0.10852083   0.00000000         -0.00 -15963.96      0.00
  -0.00000000   0.00000000  -0.10852083         -0.00      0.00 -15963.96


     Writing output data file Fr.save/

     init_run     :      0.14s CPU      0.15s WALL (       1 calls)
     electrons    :      0.51s CPU      0.56s WALL (       1 calls)
     forces       :      0.01s CPU      0.01s WALL (       1 calls)
     stress       :      0.02s CPU      0.02s WALL (       1 calls)

     Called by init_run:
     wfcinit      :      0.01s CPU      0.01s WALL (       1 calls)
     potinit      :      0.04s CPU      0.04s WALL (       1 calls)
     hinit0       :      0.09s CPU      0.09s WALL (       1 calls)

     Called by electrons:
     c_bands      :      0.20s CPU      0.23s WALL (       6 calls)
     sum_band     :      0.03s CPU      0.04s WALL (       6 calls)
     v_of_rho     :      0.00s CPU      0.00s WALL (       7 calls)
     newd         :      0.01s CPU      0.01s WALL (       7 calls)
     PAW_pot      :      0.30s CPU      0.31s WALL (       7 calls)
     mix_rho      :      0.00s CPU      0.00s WALL (       6 calls)

     Called by c_bands:
     init_us_2    :      0.00s CPU      0.00s WALL (     120 calls)
     cegterg      :      0.20s CPU      0.22s WALL (      48 calls)

     Called by sum_band:
     sum_band:bec :      0.00s CPU      0.00s WALL (      48 calls)
     addusdens    :      0.01s CPU      0.01s WALL (       6 calls)

     Called by *egterg:
     h_psi        :      0.11s CPU      0.12s WALL (     170 calls)
     s_psi        :      0.00s CPU      0.00s WALL (     170 calls)
     g_psi        :      0.00s CPU      0.00s WALL (     114 calls)
     cdiaghg      :      0.07s CPU      0.07s WALL (     162 calls)

     Called by h_psi:
     h_psi:pot    :      0.10s CPU      0.12s WALL (     170 calls)
     h_psi:calbec :      0.01s CPU      0.01s WALL (     170 calls)
     vloc_psi     :      0.09s CPU      0.11s WALL (     170 calls)
     add_vuspsi   :      0.00s CPU      0.00s WALL (     170 calls)

     General routines
     calbec       :      0.01s CPU      0.01s WALL (     258 calls)
     fft          :      0.00s CPU      0.00s WALL (      37 calls)
     ffts         :      0.00s CPU      0.00s WALL (       6 calls)
     fftw         :      0.10s CPU      0.12s WALL (    4264 calls)

     Parallel routines
     fft_scatt_xy :      0.01s CPU      0.01s WALL (    4307 calls)
     fft_scatt_yz :      0.05s CPU      0.05s WALL (    4307 calls)

     PWSCF        :     1.63s CPU         1.73s WALL


   This run was terminated on:  22:25:46   7Apr2024            

=------------------------------------------------------------------------------=
   JOB DONE.
=------------------------------------------------------------------------------=
