
     Program PWSCF v.6.3MaX starts on  7Apr2024 at 23: 3: 2 

     This program is part of the open-source Quantum ESPRESSO suite
     for quantum simulation of materials; please cite
         "P. Giannozzi et al., J. Phys.:Condens. Matter 21 395502 (2009);
         "P. Giannozzi et al., J. Phys.:Condens. Matter 29 465901 (2017);
          URL http://www.quantum-espresso.org", 
     in publications or presentations arising from this work. More details at
     http://www.quantum-espresso.org/quote

     Parallel version (MPI), running on     5 processors

     MPI processes distributed on     1 nodes
     R & G space division:  proc/nbgrp/npool/nimage =       5
     Waiting for input...
     Reading input from standard input

     Current dimensions of program PWSCF are:
     Max number of different atomic species (ntypx) = 10
     Max number of k-points (npk) =  40000
     Max angular momentum in pseudopotentials (lmaxx) =  3
               file Fr.pz-spdn-kjpaw_psl.1.0.0.UPF: wavefunction(s)  6P renormalized

     Subspace diagonalization in iterative solution of the eigenvalue problem:
     a serial algorithm will be used


     Parallelization info
     --------------------
     sticks:   dense  smooth     PW     G-vecs:    dense   smooth      PW
     Min         119     119     39                 1967     1967     361
     Max         119     119     40                 1969     1969     363
     Sum         595     595    199                 9841     9841    1807



     bravais-lattice index     =            2
     lattice parameter (alat)  =       6.8300  a.u.
     unit-cell volume          =      79.6530 (a.u.)^3
     number of atoms/cell      =            1
     number of atomic types    =            1
     number of electrons       =        19.00
     number of Kohn-Sham states=           14
     kinetic-energy cutoff     =      95.0000  Ry
     charge density cutoff     =     380.0000  Ry
     convergence threshold     =      1.0E-08
     mixing beta               =       0.7000
     number of iterations used =            8  plain     mixing
     Exchange-correlation      = SLA PZ NOGX NOGC ( 1  1  0  0 0 0)

     celldm(1)=   6.830000  celldm(2)=   0.000000  celldm(3)=   0.000000
     celldm(4)=   0.000000  celldm(5)=   0.000000  celldm(6)=   0.000000

     crystal axes: (cart. coord. in units of alat)
               a(1) = (  -0.500000   0.000000   0.500000 )  
               a(2) = (   0.000000   0.500000   0.500000 )  
               a(3) = (  -0.500000   0.500000   0.000000 )  

     reciprocal axes: (cart. coord. in units 2 pi/alat)
               b(1) = ( -1.000000 -1.000000  1.000000 )  
               b(2) = (  1.000000  1.000000  1.000000 )  
               b(3) = ( -1.000000  1.000000 -1.000000 )  


     PseudoPot. # 1 for Fr read from file:
     /home/lorenzo/pseudos/Fr/Fr.pz-spdn-kjpaw_psl.1.0.0.UPF
     MD5 check sum: 60dafd115682613df3cc92ec23a62a32
     Pseudo is Projector augmented-wave + core cor, Zval = 19.0
     Generated using "atomic" code by A. Dal Corso v.6.2.2
     Shape of augmentation charge: PSQ
     Using radial grid of 1287 points,  6 beta functions with: 
                l(1) =   0
                l(2) =   0
                l(3) =   1
                l(4) =   1
                l(5) =   2
                l(6) =   2
     Q(r) pseudized with 0 coefficients 


     atomic species   valence    mass     pseudopotential
        Fr            19.00   223.00000     Fr( 1.00)

     48 Sym. Ops., with inversion, found



   Cartesian axes

     site n.     atom                  positions (alat units)
         1           Fr  tau(   1) = (   0.0000000   0.0000000   0.0000000  )

     number of k points=    47  gaussian smearing, width (Ry)=  0.0100
                       cart. coord. in units 2pi/alat
        k(    1) = (   0.0000000   0.0000000   0.0000000), wk =   0.0020000
        k(    2) = (  -0.1000000   0.1000000  -0.1000000), wk =   0.0160000
        k(    3) = (  -0.2000000   0.2000000  -0.2000000), wk =   0.0160000
        k(    4) = (  -0.3000000   0.3000000  -0.3000000), wk =   0.0160000
        k(    5) = (  -0.4000000   0.4000000  -0.4000000), wk =   0.0160000
        k(    6) = (   0.5000000  -0.5000000   0.5000000), wk =   0.0080000
        k(    7) = (   0.0000000   0.2000000   0.0000000), wk =   0.0120000
        k(    8) = (  -0.1000000   0.3000000  -0.1000000), wk =   0.0480000
        k(    9) = (  -0.2000000   0.4000000  -0.2000000), wk =   0.0480000
        k(   10) = (  -0.3000000   0.5000000  -0.3000000), wk =   0.0480000
        k(   11) = (   0.6000000  -0.4000000   0.6000000), wk =   0.0480000
        k(   12) = (   0.5000000  -0.3000000   0.5000000), wk =   0.0480000
        k(   13) = (   0.4000000  -0.2000000   0.4000000), wk =   0.0480000
        k(   14) = (   0.3000000  -0.1000000   0.3000000), wk =   0.0480000
        k(   15) = (   0.2000000   0.0000000   0.2000000), wk =   0.0240000
        k(   16) = (   0.0000000   0.4000000   0.0000000), wk =   0.0120000
        k(   17) = (  -0.1000000   0.5000000  -0.1000000), wk =   0.0480000
        k(   18) = (  -0.2000000   0.6000000  -0.2000000), wk =   0.0480000
        k(   19) = (   0.7000000  -0.3000000   0.7000000), wk =   0.0480000
        k(   20) = (   0.6000000  -0.2000000   0.6000000), wk =   0.0480000
        k(   21) = (   0.5000000  -0.1000000   0.5000000), wk =   0.0480000
        k(   22) = (   0.4000000   0.0000000   0.4000000), wk =   0.0240000
        k(   23) = (   0.0000000   0.6000000   0.0000000), wk =   0.0120000
        k(   24) = (  -0.1000000   0.7000000  -0.1000000), wk =   0.0480000
        k(   25) = (   0.8000000  -0.2000000   0.8000000), wk =   0.0480000
        k(   26) = (   0.7000000  -0.1000000   0.7000000), wk =   0.0480000
        k(   27) = (   0.6000000  -0.0000000   0.6000000), wk =   0.0240000
        k(   28) = (   0.0000000   0.8000000   0.0000000), wk =   0.0120000
        k(   29) = (   0.9000000  -0.1000000   0.9000000), wk =   0.0480000
        k(   30) = (   0.8000000   0.0000000   0.8000000), wk =   0.0240000
        k(   31) = (   0.0000000  -1.0000000   0.0000000), wk =   0.0060000
        k(   32) = (  -0.2000000   0.4000000   0.0000000), wk =   0.0480000
        k(   33) = (  -0.3000000   0.5000000  -0.1000000), wk =   0.0960000
        k(   34) = (   0.6000000  -0.4000000   0.8000000), wk =   0.0960000
        k(   35) = (   0.5000000  -0.3000000   0.7000000), wk =   0.0480000
        k(   36) = (  -0.2000000   0.6000000   0.0000000), wk =   0.0480000
        k(   37) = (   0.7000000  -0.3000000   0.9000000), wk =   0.0960000
        k(   38) = (   0.6000000  -0.2000000   0.8000000), wk =   0.0960000
        k(   39) = (   0.5000000  -0.1000000   0.7000000), wk =   0.0960000
        k(   40) = (   0.4000000   0.0000000   0.6000000), wk =   0.0480000
        k(   41) = (   0.8000000  -0.2000000   1.0000000), wk =   0.0480000
        k(   42) = (   0.7000000  -0.1000000   0.9000000), wk =   0.0960000
        k(   43) = (   0.6000000   0.0000000   0.8000000), wk =   0.0480000
        k(   44) = (  -0.2000000  -1.0000000   0.0000000), wk =   0.0240000
        k(   45) = (   0.6000000  -0.2000000   1.0000000), wk =   0.0480000
        k(   46) = (   0.5000000  -0.1000000   0.9000000), wk =   0.0480000
        k(   47) = (  -0.4000000  -1.0000000   0.0000000), wk =   0.0240000

     Dense  grid:     9841 G-vectors     FFT dimensions: (  30,  30,  30)

     Estimated max dynamical RAM per process >      11.55 MB

     Estimated total dynamical RAM >      57.75 MB

     Initial potential from superposition of free atoms

     starting charge   18.97647, renormalised to   19.00000
     Starting wfcs are   10 randomized atomic wfcs +    4 random wfcs
     Checking if some PAW data can be deallocated... 

     total cpu time spent up to now is        1.4 secs

     Self-consistent Calculation

     iteration #  1     ecut=    95.00 Ry     beta= 0.70
     Davidson diagonalization with overlap
     ethr =  1.00E-02,  avg # of iterations =  4.8

     Threshold (ethr) on eigenvalues was too large:
     Diagonalizing with lowered threshold

     Davidson diagonalization with overlap
     ethr =  9.05E-05,  avg # of iterations =  2.0

     total cpu time spent up to now is        3.5 secs

     total energy              =   -1045.26317406 Ry
     Harris-Foulkes estimate   =   -1045.27531102 Ry
     estimated scf accuracy    <       0.01711207 Ry

     iteration #  2     ecut=    95.00 Ry     beta= 0.70
     Davidson diagonalization with overlap
     ethr =  9.01E-05,  avg # of iterations =  2.0

     total cpu time spent up to now is        4.3 secs

     total energy              =   -1045.26625374 Ry
     Harris-Foulkes estimate   =   -1045.26655736 Ry
     estimated scf accuracy    <       0.00056116 Ry

     iteration #  3     ecut=    95.00 Ry     beta= 0.70
     Davidson diagonalization with overlap
     ethr =  2.95E-06,  avg # of iterations =  2.4

     total cpu time spent up to now is        5.2 secs

     total energy              =   -1045.26632902 Ry
     Harris-Foulkes estimate   =   -1045.26633230 Ry
     estimated scf accuracy    <       0.00001638 Ry

     iteration #  4     ecut=    95.00 Ry     beta= 0.70
     Davidson diagonalization with overlap
     ethr =  8.62E-08,  avg # of iterations =  2.1

     total cpu time spent up to now is        6.2 secs

     total energy              =   -1045.26633377 Ry
     Harris-Foulkes estimate   =   -1045.26633319 Ry
     estimated scf accuracy    <       0.00000022 Ry

     iteration #  5     ecut=    95.00 Ry     beta= 0.70
     Davidson diagonalization with overlap
     ethr =  1.14E-09,  avg # of iterations =  2.2

     total cpu time spent up to now is        7.3 secs

     total energy              =   -1045.26633384 Ry
     Harris-Foulkes estimate   =   -1045.26633381 Ry
     estimated scf accuracy    <       0.00000002 Ry

     iteration #  6     ecut=    95.00 Ry     beta= 0.70
     Davidson diagonalization with overlap
     ethr =  9.97E-11,  avg # of iterations =  2.0

     total cpu time spent up to now is        8.3 secs

     End of self-consistent calculation

          k = 0.0000 0.0000 0.0000 (  1243 PWs)   bands (ev):

    -9.4346  -9.4346  -9.4346  -9.0862  -9.0862   9.0949  46.8686  46.8686
    46.8686  48.0887  53.6830  53.6830  53.6830  57.5230

          k =-0.1000 0.1000-0.1000 (  1249 PWs)   bands (ev):

    -9.4309  -9.4032  -9.4032  -9.0857  -9.0857   9.4951  42.7383  46.2744
    46.2744  47.9553  54.6603  54.6603  55.6233  57.1589

          k =-0.2000 0.2000-0.2000 (  1254 PWs)   bands (ev):

    -9.4237  -9.3502  -9.3502  -9.0539  -9.0539  10.6981  36.5192  45.0519
    45.0519  47.9884  54.1190  54.8192  54.8192  57.0195

          k =-0.3000 0.3000-0.3000 (  1254 PWs)   bands (ev):

    -9.4198  -9.3452  -9.3452  -8.9516  -8.9516  12.6845  30.6531  43.8330
    43.8330  47.9809  52.3385  53.0091  53.0091  60.0915

          k =-0.4000 0.4000-0.4000 (  1251 PWs)   bands (ev):

    -9.4205  -9.3678  -9.3678  -8.8401  -8.8401  15.2809  25.6531  42.9557
    42.9557  47.8961  51.2862  51.9393  51.9393  63.3233

          k = 0.5000-0.5000 0.5000 (  1224 PWs)   bands (ev):

    -9.4216  -9.3793  -9.3793  -8.7941  -8.7941  17.1273  22.9949  42.6362
    42.6362  47.8365  50.9620  51.5912  51.5912  65.1300

          k = 0.0000 0.2000 0.0000 (  1255 PWs)   bands (ev):

    -9.4665  -9.3708  -9.3708  -9.1189  -9.0592   9.6284  44.4211  44.4211
    44.8695  46.9246  53.3397  55.7183  56.4291  56.4291

          k =-0.1000 0.3000-0.1000 (  1264 PWs)   bands (ev):

    -9.4774  -9.3098  -9.3041  -9.1354  -9.0190  10.5639  38.7632  42.7729
    44.3767  47.9258  50.6961  55.5439  57.9112  58.1233

          k =-0.2000 0.4000-0.2000 (  1255 PWs)   bands (ev):

    -9.4603  -9.3055  -9.2809  -9.0686  -8.9264  12.2926  32.7862  41.6245
    42.9455  47.3249  52.0413  55.3761  56.0976  56.5852

          k =-0.3000 0.5000-0.3000 (  1249 PWs)   bands (ev):

    -9.4393  -9.3348  -9.3009  -8.9513  -8.8258  14.7170  27.4955  41.1313
    41.2940  46.4726  53.6895  54.3684  54.4248  58.1593

          k = 0.6000-0.4000 0.6000 (  1235 PWs)   bands (ev):

    -9.4209  -9.3563  -9.3227  -8.8579  -8.7914  17.1447  23.7459  39.9350
    41.4023  46.3984  52.9464  53.1709  54.8922  62.0339

          k = 0.5000-0.3000 0.5000 (  1240 PWs)   bands (ev):

    -9.3975  -9.3686  -9.3246  -8.8509  -8.8303  16.4601  24.7037  39.2009
    42.4744  47.0052  52.1024  52.5245  55.9896  62.6464

          k = 0.4000-0.2000 0.4000 (  1249 PWs)   bands (ev):

    -9.3990  -9.3495  -9.3065  -8.9797  -8.8768  13.8449  29.1721  39.1885
    44.2466  48.2394  51.4944  52.4338  57.5066  58.9576

          k = 0.3000-0.1000 0.3000 (  1260 PWs)   bands (ev):

    -9.4207  -9.3256  -9.3029  -9.0992  -8.9666  11.6300  34.7227  39.8821
    46.3053  49.5765  51.3757  52.9841  55.7378  57.4297

          k = 0.2000 0.0000 0.2000 (  1261 PWs)   bands (ev):

    -9.4359  -9.3638  -9.3465  -9.1149  -9.0438  10.1631  40.3780  41.6030
    47.3698  48.9878  53.3630  54.0412  54.5047  56.2176

          k = 0.0000 0.4000 0.0000 (  1263 PWs)   bands (ev):

    -9.5496  -9.2103  -9.2006  -9.2006  -8.9881  11.2315  40.5127  40.7869
    40.7869  45.2170  47.5323  60.0049  60.1866  60.1866

          k =-0.1000 0.5000-0.1000 (  1254 PWs)   bands (ev):

    -9.5675  -9.2701  -9.1376  -9.0927  -8.9128  12.6945  35.1283  39.4244
    39.7065  45.2534  47.5391  59.7672  59.8620  60.9392

          k =-0.2000 0.6000-0.2000 (  1252 PWs)   bands (ev):

    -9.5343  -9.2937  -9.1467  -9.0176  -8.8144  14.8865  29.8685  37.4779
    38.8375  44.7198  51.3697  57.9915  58.3915  60.3173

          k = 0.7000-0.3000 0.7000 (  1238 PWs)   bands (ev):

    -9.4895  -9.2697  -9.1731  -8.9774  -8.7838  17.4173  25.6682  35.5332
    39.1161  44.7509  55.9006  56.4754  56.9764  60.6611

          k = 0.6000-0.2000 0.6000 (  1242 PWs)   bands (ev):

    -9.4447  -9.2570  -9.1884  -8.9406  -8.8523  18.0111  24.8938  34.2547
    40.2794  45.3653  55.4410  55.4760  60.5559  62.2116

          k = 0.5000-0.1000 0.5000 (  1248 PWs)   bands (ev):

    -9.3923  -9.3038  -9.1813  -8.9975  -8.9024  15.6956  28.4829  33.8155
    42.2388  46.5846  54.2693  54.9981  58.6561  59.8430

          k = 0.4000 0.0000 0.4000 (  1251 PWs)   bands (ev):

    -9.3746  -9.3441  -9.1820  -9.1347  -8.9061  13.3360  32.8809  34.8745
    44.6751  48.4215  52.4720  54.7374  55.2650  57.7518

          k = 0.0000 0.6000 0.0000 (  1266 PWs)   bands (ev):

    -9.6517  -9.3337  -8.9842  -8.9842  -8.8997  13.8901  34.6340  37.8038
    37.8038  43.9354  44.3258  63.5933  63.5933  64.4423

          k =-0.1000 0.7000-0.1000 (  1250 PWs)   bands (ev):

    -9.6577  -9.3734  -8.9608  -8.9099  -8.8109  15.8261  31.0473  35.2299
    36.9812  43.6098  46.0493  61.8665  63.1212  66.3926

          k = 0.8000-0.2000 0.8000 (  1241 PWs)   bands (ev):

    -9.5979  -9.3384  -8.9864  -8.9197  -8.7729  18.2263  27.6097  32.2090
    37.0623  43.5909  50.3803  60.1000  61.3561  66.6295

          k = 0.7000-0.1000 0.7000 (  1242 PWs)   bands (ev):

    -9.5261  -9.2072  -9.0133  -9.0109  -8.8390  19.5917  26.1992  30.0513
    38.0616  44.0724  55.4536  58.8028  59.7819  64.0951

          k = 0.6000-0.0000 0.6000 (  1238 PWs)   bands (ev):

    -9.4562  -9.1645  -9.0481  -9.0246  -8.9651  17.9872  28.3616  29.4633
    39.8817  45.0703  57.6652  57.6984  60.0220  60.1536

          k = 0.0000 0.8000 0.0000 (  1246 PWs)   bands (ev):

    -9.7336  -9.4412  -8.8276  -8.8038  -8.8038  17.4911  28.6279  35.8870
    35.8870  42.8874  43.1797  64.1794  67.6591  67.6591

          k = 0.9000-0.1000 0.9000 (  1242 PWs)   bands (ev):

    -9.7133  -9.4466  -8.8409  -8.7884  -8.7556  19.5825  26.2141  33.3702
    35.7009  42.9077  45.3586  63.0305  66.5472  69.4081

          k = 0.8000 0.0000 0.8000 (  1248 PWs)   bands (ev):

    -9.6229  -9.3620  -8.8852  -8.8754  -8.7964  20.6322  25.8982  30.0562
    36.4544  43.2599  50.0346  61.2978  64.2526  66.1972

          k = 0.0000-1.0000 0.0000 (  1234 PWs)   bands (ev):

    -9.7648  -9.4839  -8.8000  -8.7336  -8.7336  20.6273  24.6391  35.2271
    35.2271  42.4705  42.9322  64.0775  70.0319  70.9529

          k =-0.2000 0.4000 0.0000 (  1259 PWs)   bands (ev):

    -9.4887  -9.2826  -9.2091  -9.1581  -8.9534  11.7635  36.4673  38.2288
    44.0781  48.2796  49.0548  55.7249  57.0965  59.5546

          k =-0.3000 0.5000-0.1000 (  1251 PWs)   bands (ev):

    -9.4542  -9.3129  -9.1926  -9.0689  -8.8749  13.7285  31.4202  36.7077
    41.9046  47.8614  51.5324  54.3123  57.3941  61.1376

          k = 0.6000-0.4000 0.8000 (  1242 PWs)   bands (ev):

    -9.4123  -9.3484  -9.2014  -8.9655  -8.8247  16.2578  26.6518  36.3582
    39.9816  47.3381  52.0224  56.8508  57.8624  59.5969

          k = 0.5000-0.3000 0.7000 (  1236 PWs)   bands (ev):

    -9.3919  -9.3682  -9.2000  -8.9239  -8.8108  17.9977  24.1473  36.3771
    39.1746  47.1555  51.7587  58.0546  58.5356  61.4173

          k =-0.2000 0.6000 0.0000 (  1252 PWs)   bands (ev):

    -9.5752  -9.3141  -9.0928  -8.9896  -8.8551  14.3954  32.8378  35.5188
    38.3759  46.7910  46.8335  57.7454  62.2388  65.0429

          k = 0.7000-0.3000 0.9000 (  1245 PWs)   bands (ev):

    -9.5184  -9.3201  -9.1026  -8.9361  -8.8141  16.7239  28.9162  33.7257
    36.6824  46.6014  50.8561  55.8654  62.8209  63.7834

          k = 0.6000-0.2000 0.8000 (  1244 PWs)   bands (ev):

    -9.4574  -9.2755  -9.0907  -8.9960  -8.8048  18.8989  25.8242  32.4505
    36.4708  46.9091  53.9906  56.1882  61.5135  62.5992

          k = 0.5000-0.1000 0.7000 (  1238 PWs)   bands (ev):

    -9.4075  -9.2851  -9.0893  -9.0020  -8.8648  18.2480  26.8077  31.5901
    37.5914  47.7544  53.2589  57.5094  60.7455  61.1090

          k = 0.4000 0.0000 0.6000 (  1244 PWs)   bands (ev):

    -9.3755  -9.3559  -9.1328  -8.9990  -8.8913  15.8470  30.1605  32.1909
    39.5715  48.9372  51.8792  54.4024  59.6323  62.5257

          k = 0.8000-0.2000 1.0000 (  1239 PWs)   bands (ev):

    -9.6459  -9.3991  -8.9513  -8.8080  -8.8054  17.8921  28.5789  33.7678
    34.7451  45.6780  45.8463  60.1563  66.0139  67.6481

          k = 0.7000-0.1000 0.9000 (  1245 PWs)   bands (ev):

    -9.5609  -9.3508  -8.9925  -8.8885  -8.7664  19.9816  26.7851  30.6830
    34.5429  45.9895  50.2837  58.3720  63.0571  66.2086

          k = 0.6000 0.0000 0.8000 (  1246 PWs)   bands (ev):

    -9.4764  -9.2076  -9.1102  -8.9684  -8.8129  20.0729  27.7018  28.2628
    35.6607  46.7229  55.5505  56.5118  59.0894  63.9362

          k =-0.2000-1.0000 0.0000 (  1250 PWs)   bands (ev):

    -9.6730  -9.4353  -8.8447  -8.8395  -8.7336  20.7266  25.2721  33.1618
    33.7175  45.3150  45.5330  61.6849  65.8790  68.1576

          k = 0.6000-0.2000 1.0000 (  1231 PWs)   bands (ev):

    -9.4111  -9.3402  -9.1268  -8.9139  -8.8094  18.9360  28.2125  30.4691
    34.3370  50.4632  50.8348  54.4756  61.5999  65.6749

          k = 0.5000-0.1000 0.9000 (  1234 PWs)   bands (ev):

    -9.3612  -9.2860  -9.1817  -8.9701  -8.7688  20.2631  27.2105  29.6488
    33.3920  50.5708  52.8624  56.0820  57.0235  66.8434

          k =-0.4000-1.0000 0.0000 (  1232 PWs)   bands (ev):

    -9.4265  -9.3344  -9.1085  -8.9393  -8.7335  20.9004  27.0927  29.8751
    32.0872  50.4756  50.8880  56.1256  58.5883  68.8925

     the Fermi energy is    46.6223 ev

!    total energy              =   -1045.26633384 Ry
     Harris-Foulkes estimate   =   -1045.26633384 Ry
     estimated scf accuracy    <          1.1E-10 Ry

     total all-electron energy =    -48490.719307 Ry

     The total energy is the sum of the following terms:

     one-electron contribution =       1.43877245 Ry
     hartree contribution      =      28.25039544 Ry
     xc contribution           =     -63.90564906 Ry
     ewald contribution        =    -242.33311988 Ry
     one-center paw contrib.   =    -768.71616907 Ry
     smearing contrib. (-TS)   =      -0.00056374 Ry

     convergence has been achieved in   6 iterations

     Forces acting on atoms (cartesian axes, Ry/au):

     atom    1 type  1   force =     0.00000000    0.00000000    0.00000000

     Total force =     0.000000     Total SCF correction =     0.000000


     Computing stress (Cartesian axis) and pressure

          total   stress  (Ry/bohr**3)                   (kbar)     P= 7096.84
   0.04824331  -0.00000000   0.00000000       7096.84     -0.00      0.00
  -0.00000000   0.04824331   0.00000000         -0.00   7096.84      0.00
   0.00000000   0.00000000   0.04824331          0.00      0.00   7096.84


     Writing output data file Fr.save/

     init_run     :      0.50s CPU      0.52s WALL (       1 calls)
     electrons    :      6.70s CPU      6.93s WALL (       1 calls)
     forces       :      0.08s CPU      0.08s WALL (       1 calls)
     stress       :      0.27s CPU      0.27s WALL (       1 calls)

     Called by init_run:
     wfcinit      :      0.24s CPU      0.25s WALL (       1 calls)
     potinit      :      0.05s CPU      0.05s WALL (       1 calls)
     hinit0       :      0.19s CPU      0.19s WALL (       1 calls)

     Called by electrons:
     c_bands      :      5.35s CPU      5.54s WALL (       7 calls)
     sum_band     :      0.97s CPU      1.00s WALL (       7 calls)
     v_of_rho     :      0.01s CPU      0.01s WALL (       7 calls)
     newd         :      0.08s CPU      0.09s WALL (       7 calls)
     PAW_pot      :      0.33s CPU      0.34s WALL (       7 calls)
     mix_rho      :      0.00s CPU      0.00s WALL (       7 calls)

     Called by c_bands:
     init_us_2    :      0.13s CPU      0.14s WALL (     799 calls)
     cegterg      :      5.14s CPU      5.33s WALL (     329 calls)

     Called by sum_band:
     sum_band:bec :      0.00s CPU      0.01s WALL (     329 calls)
     addusdens    :      0.07s CPU      0.07s WALL (       7 calls)

     Called by *egterg:
     h_psi        :      3.83s CPU      3.98s WALL (    1198 calls)
     s_psi        :      0.12s CPU      0.13s WALL (    1198 calls)
     g_psi        :      0.01s CPU      0.01s WALL (     822 calls)
     cdiaghg      :      0.53s CPU      0.55s WALL (    1104 calls)

     Called by h_psi:
     h_psi:pot    :      3.81s CPU      3.95s WALL (    1198 calls)
     h_psi:calbec :      0.19s CPU      0.20s WALL (    1198 calls)
     vloc_psi     :      3.48s CPU      3.61s WALL (    1198 calls)
     add_vuspsi   :      0.12s CPU      0.13s WALL (    1198 calls)

     General routines
     calbec       :      0.34s CPU      0.35s WALL (    1762 calls)
     fft          :      0.01s CPU      0.01s WALL (      38 calls)
     ffts         :      0.00s CPU      0.00s WALL (       7 calls)
     fftw         :      3.93s CPU      4.08s WALL (   28858 calls)

     Parallel routines
     fft_scatt_xy :      0.32s CPU      0.33s WALL (   28903 calls)
     fft_scatt_yz :      1.16s CPU      1.20s WALL (   28903 calls)

     PWSCF        :     8.49s CPU         8.86s WALL


   This run was terminated on:  23: 3:11   7Apr2024            

=------------------------------------------------------------------------------=
   JOB DONE.
=------------------------------------------------------------------------------=
