
     Program PWSCF v.6.3MaX starts on  7Apr2024 at 22:59:34 

     This program is part of the open-source Quantum ESPRESSO suite
     for quantum simulation of materials; please cite
         "P. Giannozzi et al., J. Phys.:Condens. Matter 21 395502 (2009);
         "P. Giannozzi et al., J. Phys.:Condens. Matter 29 465901 (2017);
          URL http://www.quantum-espresso.org", 
     in publications or presentations arising from this work. More details at
     http://www.quantum-espresso.org/quote

     Parallel version (MPI), running on     5 processors

     MPI processes distributed on     1 nodes
     R & G space division:  proc/nbgrp/npool/nimage =       5
     Waiting for input...
     Reading input from standard input

     Current dimensions of program PWSCF are:
     Max number of different atomic species (ntypx) = 10
     Max number of k-points (npk) =  40000
     Max angular momentum in pseudopotentials (lmaxx) =  3

     Subspace diagonalization in iterative solution of the eigenvalue problem:
     a serial algorithm will be used


     Parallelization info
     --------------------
     sticks:   dense  smooth     PW     G-vecs:    dense   smooth      PW
     Min         116     116     37                 1850     1850     327
     Max         117     117     38                 1853     1853     329
     Sum         583     583    187                 9257     9257    1639



     bravais-lattice index     =            2
     lattice parameter (alat)  =       6.8300  a.u.
     unit-cell volume          =      79.6530 (a.u.)^3
     number of atoms/cell      =            1
     number of atomic types    =            1
     number of electrons       =        19.00
     number of Kohn-Sham states=           14
     kinetic-energy cutoff     =      90.0000  Ry
     charge density cutoff     =     360.0000  Ry
     convergence threshold     =      1.0E-08
     mixing beta               =       0.7000
     number of iterations used =            8  plain     mixing
     Exchange-correlation      = LDA ( 1  1  0  0 0 0)

     celldm(1)=   6.830000  celldm(2)=   0.000000  celldm(3)=   0.000000
     celldm(4)=   0.000000  celldm(5)=   0.000000  celldm(6)=   0.000000

     crystal axes: (cart. coord. in units of alat)
               a(1) = (  -0.500000   0.000000   0.500000 )  
               a(2) = (   0.000000   0.500000   0.500000 )  
               a(3) = (  -0.500000   0.500000   0.000000 )  

     reciprocal axes: (cart. coord. in units 2 pi/alat)
               b(1) = ( -1.000000 -1.000000  1.000000 )  
               b(2) = (  1.000000  1.000000  1.000000 )  
               b(3) = ( -1.000000  1.000000 -1.000000 )  


     PseudoPot. # 1 for Fr read from file:
     /home/lorenzo/pseudos/Fr/Fr.pz-spdn-rrkjus_psl.1.0.0.UPF
     MD5 check sum: 5665a43a3d1ea02b0b7dc7a0ae9ace04
     Pseudo is Ultrasoft + core correction, Zval = 19.0
     Generated using "atomic" code by A. Dal Corso v.6.2.2
     Using radial grid of 1287 points,  6 beta functions with: 
                l(1) =   0
                l(2) =   0
                l(3) =   1
                l(4) =   1
                l(5) =   2
                l(6) =   2
     Q(r) pseudized with 0 coefficients 


     atomic species   valence    mass     pseudopotential
        Fr            19.00   223.00000     Fr( 1.00)

     48 Sym. Ops., with inversion, found



   Cartesian axes

     site n.     atom                  positions (alat units)
         1           Fr  tau(   1) = (   0.0000000   0.0000000   0.0000000  )

     number of k points=    47  gaussian smearing, width (Ry)=  0.0100
                       cart. coord. in units 2pi/alat
        k(    1) = (   0.0000000   0.0000000   0.0000000), wk =   0.0020000
        k(    2) = (  -0.1000000   0.1000000  -0.1000000), wk =   0.0160000
        k(    3) = (  -0.2000000   0.2000000  -0.2000000), wk =   0.0160000
        k(    4) = (  -0.3000000   0.3000000  -0.3000000), wk =   0.0160000
        k(    5) = (  -0.4000000   0.4000000  -0.4000000), wk =   0.0160000
        k(    6) = (   0.5000000  -0.5000000   0.5000000), wk =   0.0080000
        k(    7) = (   0.0000000   0.2000000   0.0000000), wk =   0.0120000
        k(    8) = (  -0.1000000   0.3000000  -0.1000000), wk =   0.0480000
        k(    9) = (  -0.2000000   0.4000000  -0.2000000), wk =   0.0480000
        k(   10) = (  -0.3000000   0.5000000  -0.3000000), wk =   0.0480000
        k(   11) = (   0.6000000  -0.4000000   0.6000000), wk =   0.0480000
        k(   12) = (   0.5000000  -0.3000000   0.5000000), wk =   0.0480000
        k(   13) = (   0.4000000  -0.2000000   0.4000000), wk =   0.0480000
        k(   14) = (   0.3000000  -0.1000000   0.3000000), wk =   0.0480000
        k(   15) = (   0.2000000   0.0000000   0.2000000), wk =   0.0240000
        k(   16) = (   0.0000000   0.4000000   0.0000000), wk =   0.0120000
        k(   17) = (  -0.1000000   0.5000000  -0.1000000), wk =   0.0480000
        k(   18) = (  -0.2000000   0.6000000  -0.2000000), wk =   0.0480000
        k(   19) = (   0.7000000  -0.3000000   0.7000000), wk =   0.0480000
        k(   20) = (   0.6000000  -0.2000000   0.6000000), wk =   0.0480000
        k(   21) = (   0.5000000  -0.1000000   0.5000000), wk =   0.0480000
        k(   22) = (   0.4000000   0.0000000   0.4000000), wk =   0.0240000
        k(   23) = (   0.0000000   0.6000000   0.0000000), wk =   0.0120000
        k(   24) = (  -0.1000000   0.7000000  -0.1000000), wk =   0.0480000
        k(   25) = (   0.8000000  -0.2000000   0.8000000), wk =   0.0480000
        k(   26) = (   0.7000000  -0.1000000   0.7000000), wk =   0.0480000
        k(   27) = (   0.6000000  -0.0000000   0.6000000), wk =   0.0240000
        k(   28) = (   0.0000000   0.8000000   0.0000000), wk =   0.0120000
        k(   29) = (   0.9000000  -0.1000000   0.9000000), wk =   0.0480000
        k(   30) = (   0.8000000   0.0000000   0.8000000), wk =   0.0240000
        k(   31) = (   0.0000000  -1.0000000   0.0000000), wk =   0.0060000
        k(   32) = (  -0.2000000   0.4000000   0.0000000), wk =   0.0480000
        k(   33) = (  -0.3000000   0.5000000  -0.1000000), wk =   0.0960000
        k(   34) = (   0.6000000  -0.4000000   0.8000000), wk =   0.0960000
        k(   35) = (   0.5000000  -0.3000000   0.7000000), wk =   0.0480000
        k(   36) = (  -0.2000000   0.6000000   0.0000000), wk =   0.0480000
        k(   37) = (   0.7000000  -0.3000000   0.9000000), wk =   0.0960000
        k(   38) = (   0.6000000  -0.2000000   0.8000000), wk =   0.0960000
        k(   39) = (   0.5000000  -0.1000000   0.7000000), wk =   0.0960000
        k(   40) = (   0.4000000   0.0000000   0.6000000), wk =   0.0480000
        k(   41) = (   0.8000000  -0.2000000   1.0000000), wk =   0.0480000
        k(   42) = (   0.7000000  -0.1000000   0.9000000), wk =   0.0960000
        k(   43) = (   0.6000000   0.0000000   0.8000000), wk =   0.0480000
        k(   44) = (  -0.2000000  -1.0000000   0.0000000), wk =   0.0240000
        k(   45) = (   0.6000000  -0.2000000   1.0000000), wk =   0.0480000
        k(   46) = (   0.5000000  -0.1000000   0.9000000), wk =   0.0480000
        k(   47) = (  -0.4000000  -1.0000000   0.0000000), wk =   0.0240000

     Dense  grid:     9257 G-vectors     FFT dimensions: (  30,  30,  30)

     Estimated max dynamical RAM per process >      10.88 MB

     Estimated total dynamical RAM >      54.42 MB

     Initial potential from superposition of free atoms

     starting charge   18.97647, renormalised to   19.00000
     Starting wfcs are   10 randomized atomic wfcs +    4 random wfcs

     total cpu time spent up to now is        1.4 secs

     Self-consistent Calculation

     iteration #  1     ecut=    90.00 Ry     beta= 0.70
     Davidson diagonalization with overlap
     ethr =  1.00E-02,  avg # of iterations =  4.8

     Threshold (ethr) on eigenvalues was too large:
     Diagonalizing with lowered threshold

     Davidson diagonalization with overlap
     ethr =  9.04E-05,  avg # of iterations =  2.0

     total cpu time spent up to now is        3.2 secs

     total energy              =    -282.48920119 Ry
     Harris-Foulkes estimate   =    -282.50097376 Ry
     estimated scf accuracy    <       0.01711519 Ry

     iteration #  2     ecut=    90.00 Ry     beta= 0.70
     Davidson diagonalization with overlap
     ethr =  9.01E-05,  avg # of iterations =  2.1

     total cpu time spent up to now is        4.0 secs

     total energy              =    -282.49229195 Ry
     Harris-Foulkes estimate   =    -282.49278369 Ry
     estimated scf accuracy    <       0.00065350 Ry

     iteration #  3     ecut=    90.00 Ry     beta= 0.70
     Davidson diagonalization with overlap
     ethr =  3.44E-06,  avg # of iterations =  2.4

     total cpu time spent up to now is        4.8 secs

     total energy              =    -282.49241196 Ry
     Harris-Foulkes estimate   =    -282.49242712 Ry
     estimated scf accuracy    <       0.00002579 Ry

     iteration #  4     ecut=    90.00 Ry     beta= 0.70
     Davidson diagonalization with overlap
     ethr =  1.36E-07,  avg # of iterations =  2.0

     total cpu time spent up to now is        5.6 secs

     total energy              =    -282.49241486 Ry
     Harris-Foulkes estimate   =    -282.49241490 Ry
     estimated scf accuracy    <       0.00000011 Ry

     iteration #  5     ecut=    90.00 Ry     beta= 0.70
     Davidson diagonalization with overlap
     ethr =  5.88E-10,  avg # of iterations =  2.2

     total cpu time spent up to now is        6.4 secs

     End of self-consistent calculation

          k = 0.0000 0.0000 0.0000 (  1139 PWs)   bands (ev):

    -9.4732  -9.4732  -9.4732  -9.1255  -9.1255   9.0992  46.8928  46.8928
    46.8928  48.0900  53.6757  53.6757  53.6757  57.5330

          k =-0.1000 0.1000-0.1000 (  1155 PWs)   bands (ev):

    -9.4694  -9.4418  -9.4418  -9.1250  -9.1250   9.4996  42.7539  46.2967
    46.2967  47.9582  54.6558  54.6558  55.6244  57.1640

          k =-0.2000 0.2000-0.2000 (  1167 PWs)   bands (ev):

    -9.4622  -9.3889  -9.3889  -9.0932  -9.0932  10.7029  36.5315  45.0724
    45.0724  47.9902  54.1257  54.8193  54.8193  57.0189

          k =-0.3000 0.3000-0.3000 (  1155 PWs)   bands (ev):

    -9.4582  -9.3839  -9.3839  -8.9911  -8.9911  12.6897  30.6639  43.8534
    43.8534  47.9820  52.3434  53.0058  53.0058  60.0944

          k =-0.4000 0.4000-0.4000 (  1149 PWs)   bands (ev):

    -9.4588  -9.4064  -9.4064  -8.8799  -8.8799  15.2863  25.6630  42.9764
    42.9764  47.8977  51.2887  51.9339  51.9339  63.3301

          k = 0.5000-0.5000 0.5000 (  1158 PWs)   bands (ev):

    -9.4598  -9.4179  -9.4179  -8.8341  -8.8341  17.1323  23.0050  42.6571
    42.6571  47.8386  50.9633  51.5852  51.5852  65.1405

          k = 0.0000 0.2000 0.0000 (  1155 PWs)   bands (ev):

    -9.5050  -9.4094  -9.4094  -9.1581  -9.0985   9.6329  44.4393  44.4393
    44.8920  46.9234  53.3435  55.7133  56.4266  56.4266

          k =-0.1000 0.3000-0.1000 (  1160 PWs)   bands (ev):

    -9.5157  -9.3486  -9.3429  -9.1745  -9.0585  10.5686  38.7771  42.7897
    44.3935  47.9329  50.6969  55.5400  57.9113  58.1273

          k =-0.2000 0.4000-0.2000 (  1137 PWs)   bands (ev):

    -9.4987  -9.3442  -9.3197  -9.1078  -8.9660  12.2977  32.7978  41.6412
    42.9624  47.3255  52.0494  55.3737  56.0977  56.5870

          k =-0.3000 0.5000-0.3000 (  1140 PWs)   bands (ev):

    -9.4776  -9.3734  -9.3397  -8.9908  -8.8656  14.7225  27.5057  41.1486
    41.3107  46.4717  53.6980  54.3665  54.4224  58.1616

          k = 0.6000-0.4000 0.6000 (  1155 PWs)   bands (ev):

    -9.4592  -9.3948  -9.3614  -8.8976  -8.8313  17.1500  23.7559  39.9507
    41.4206  46.3983  52.9489  53.1674  54.8923  62.0408

          k = 0.5000-0.3000 0.5000 (  1148 PWs)   bands (ev):

    -9.4359  -9.4071  -9.3633  -8.8906  -8.8701  16.4655  24.7136  39.2157
    42.4940  47.0065  52.1039  52.5201  55.9905  62.6530

          k = 0.4000-0.2000 0.4000 (  1144 PWs)   bands (ev):

    -9.4374  -9.3882  -9.3453  -9.0191  -8.9165  13.8502  29.1827  39.2023
    44.2685  48.2421  51.4966  52.4291  57.5088  58.9603

          k = 0.3000-0.1000 0.3000 (  1149 PWs)   bands (ev):

    -9.4591  -9.3643  -9.3416  -9.1384  -9.0061  11.6350  34.7350  39.8951
    46.3310  49.5816  51.3792  52.9799  55.7355  57.4314

          k = 0.2000 0.0000 0.2000 (  1159 PWs)   bands (ev):

    -9.4743  -9.4025  -9.3852  -9.1541  -9.0831  10.1678  40.3943  41.6144
    47.3978  48.9946  53.3668  54.0345  54.5035  56.2180

          k = 0.0000 0.4000 0.0000 (  1146 PWs)   bands (ev):

    -9.5878  -9.2492  -9.2396  -9.2396  -9.0276  11.2365  40.5332  40.8025
    40.8025  45.2135  47.5314  60.0021  60.1870  60.1870

          k =-0.1000 0.5000-0.1000 (  1146 PWs)   bands (ev):

    -9.6056  -9.3089  -9.1767  -9.1319  -8.9524  12.6998  35.1423  39.4397
    39.7212  45.2509  47.5416  59.7665  59.8632  60.9452

          k =-0.2000 0.6000-0.2000 (  1156 PWs)   bands (ev):

    -9.5724  -9.3324  -9.1858  -9.0570  -8.8542  14.8922  29.8798  37.4907
    38.8530  44.7178  51.3750  57.9912  58.3938  60.3206

          k = 0.7000-0.3000 0.7000 (  1143 PWs)   bands (ev):

    -9.5278  -9.3084  -9.2122  -9.0168  -8.8237  17.4233  25.6782  35.5452
    39.1321  44.7495  55.9080  56.4741  56.9778  60.6642

          k = 0.6000-0.2000 0.6000 (  1141 PWs)   bands (ev):

    -9.4831  -9.2957  -9.2274  -8.9801  -8.8920  18.0171  24.9036  34.2663
    40.2961  45.3649  55.4445  55.4742  60.5586  62.2187

          k = 0.5000-0.1000 0.5000 (  1147 PWs)   bands (ev):

    -9.4308  -9.3424  -9.2203  -9.0370  -8.9420  15.7014  28.4933  33.8266
    42.2569  46.5852  54.2737  54.9964  58.6599  59.8473

          k = 0.4000 0.0000 0.4000 (  1151 PWs)   bands (ev):

    -9.4131  -9.3827  -9.2210  -9.1738  -8.9457  13.3414  32.8939  34.8841
    44.6964  48.4232  52.4781  54.7406  55.2597  57.7537

          k = 0.0000 0.6000 0.0000 (  1146 PWs)   bands (ev):

    -9.6896  -9.3723  -9.0236  -9.0236  -8.9393  13.8957  34.6495  37.8187
    37.8187  43.9305  44.3251  63.5969  63.5969  64.4388

          k =-0.1000 0.7000-0.1000 (  1149 PWs)   bands (ev):

    -9.6956  -9.4118  -9.0004  -8.9495  -8.8508  15.8322  31.0606  35.2409
    36.9962  43.6072  46.0503  61.8664  63.1253  66.3966

          k = 0.8000-0.2000 0.8000 (  1146 PWs)   bands (ev):

    -9.6359  -9.3769  -9.0258  -8.9593  -8.8129  18.2328  27.6209  32.2187
    37.0775  43.5887  50.3836  60.0991  61.3606  66.6351

          k = 0.7000-0.1000 0.7000 (  1140 PWs)   bands (ev):

    -9.5642  -9.2460  -9.0526  -9.0503  -8.8788  19.5985  26.2090  30.0612
    38.0771  44.0708  55.4578  58.8010  59.7864  64.1044

          k = 0.6000-0.0000 0.6000 (  1145 PWs)   bands (ev):

    -9.4946  -9.2035  -9.0874  -9.0638  -9.0047  17.9936  28.3719  29.4731
    39.8978  45.0696  57.6619  57.7033  60.0257  60.1617

          k = 0.0000 0.8000 0.0000 (  1154 PWs)   bands (ev):

    -9.7713  -9.4795  -8.8675  -8.8437  -8.8437  17.4976  28.6398  35.9019
    35.9019  42.8870  43.1740  64.1781  67.6654  67.6654

          k = 0.9000-0.1000 0.9000 (  1138 PWs)   bands (ev):

    -9.7510  -9.4848  -8.8807  -8.8283  -8.7956  19.5894  26.2251  33.3815
    35.7158  42.9052  45.3587  63.0296  66.5532  69.4198

          k = 0.8000 0.0000 0.8000 (  1144 PWs)   bands (ev):

    -9.6608  -9.4005  -8.9249  -8.9150  -8.8363  20.6394  25.9087  30.0654
    36.4694  43.2575  50.0374  61.2962  64.2570  66.2077

          k = 0.0000-1.0000 0.0000 (  1162 PWs)   bands (ev):

    -9.8024  -9.5220  -8.8399  -8.7737  -8.7737  20.6340  24.6500  35.2420
    35.2420  42.4702  42.9260  64.0770  70.0390  70.9670

          k =-0.2000 0.4000 0.0000 (  1150 PWs)   bands (ev):

    -9.5270  -9.3214  -9.2480  -9.1972  -8.9929  11.7686  36.4822  38.2395
    44.0979  48.2816  49.0581  55.7255  57.0940  59.5589

          k =-0.3000 0.5000-0.1000 (  1144 PWs)   bands (ev):

    -9.4926  -9.3516  -9.2316  -9.1081  -8.9146  13.7339  31.4318  36.7199
    41.9195  47.8652  51.5389  54.3111  57.3928  61.1420

          k = 0.6000-0.4000 0.8000 (  1149 PWs)   bands (ev):

    -9.4507  -9.3870  -9.2404  -9.0050  -8.8646  16.2636  26.6619  36.3712
    39.9948  47.3432  52.0214  56.8565  57.8615  59.5998

          k = 0.5000-0.3000 0.7000 (  1142 PWs)   bands (ev):

    -9.4305  -9.4067  -9.2390  -8.9634  -8.8507  18.0034  24.1572  36.3905
    39.1871  47.1611  51.7561  58.0530  58.5400  61.4247

          k =-0.2000 0.6000 0.0000 (  1144 PWs)   bands (ev):

    -9.6133  -9.3527  -9.1320  -9.0291  -8.8949  14.4011  32.8520  35.5299
    38.3879  46.7901  46.8385  57.7467  62.2380  65.0516

          k = 0.7000-0.3000 0.9000 (  1151 PWs)   bands (ev):

    -9.5565  -9.3588  -9.1418  -8.9756  -8.8539  16.7300  28.9276  33.7371
    36.6930  46.6040  50.8607  55.8655  62.8199  63.7899

          k = 0.6000-0.2000 0.8000 (  1145 PWs)   bands (ev):

    -9.4957  -9.3142  -9.1298  -9.0354  -8.8447  18.9054  25.8340  32.4617
    36.4817  46.9127  53.9925  56.1911  61.5158  62.6040

          k = 0.5000-0.1000 0.7000 (  1150 PWs)   bands (ev):

    -9.4460  -9.3238  -9.1285  -9.0413  -8.9046  18.2545  26.8176  31.6009
    37.6027  47.7597  53.2586  57.5137  60.7490  61.1121

          k = 0.4000 0.0000 0.6000 (  1149 PWs)   bands (ev):

    -9.4140  -9.3945  -9.1718  -9.0385  -8.9309  15.8530  30.1724  32.2007
    39.5836  48.9455  51.8801  54.4029  59.6322  62.5328

          k = 0.8000-0.2000 1.0000 (  1156 PWs)   bands (ev):

    -9.6839  -9.4375  -8.9908  -8.8479  -8.8453  17.8987  28.5910  33.7793
    34.7557  45.6825  45.8440  60.1574  66.0191  67.6487

          k = 0.7000-0.1000 0.9000 (  1149 PWs)   bands (ev):

    -9.5990  -9.3893  -9.0319  -8.9281  -8.8064  19.9887  26.7959  30.6925
    34.5538  45.9911  50.2872  58.3726  63.0647  66.2121

          k = 0.6000 0.0000 0.8000 (  1149 PWs)   bands (ev):

    -9.5146  -9.2464  -9.1493  -9.0078  -8.8528  20.0801  27.7119  28.2722
    35.6717  46.7257  55.5553  56.5116  59.0961  63.9384

          k =-0.2000-1.0000 0.0000 (  1144 PWs)   bands (ev):

    -9.7108  -9.4736  -8.8845  -8.8792  -8.7736  20.7336  25.2829  33.1736
    33.7284  45.3191  45.5303  61.6844  65.8899  68.1626

          k = 0.6000-0.2000 1.0000 (  1139 PWs)   bands (ev):

    -9.4495  -9.3787  -9.1658  -8.9535  -8.8493  18.9428  28.2236  30.4792
    34.3458  50.4741  50.8344  54.4745  61.6060  65.6760

          k = 0.5000-0.1000 0.9000 (  1148 PWs)   bands (ev):

    -9.3997  -9.3247  -9.2206  -9.0096  -8.8088  20.2704  27.2202  29.6595
    33.4006  50.5785  52.8614  56.0888  57.0254  66.8440

          k =-0.4000-1.0000 0.0000 (  1154 PWs)   bands (ev):

    -9.4649  -9.3730  -9.1477  -8.9788  -8.7736  20.9080  27.1030  29.8853
    32.0953  50.4748  50.8977  56.1254  58.5946  68.8966

     the Fermi energy is    46.6241 ev

!    total energy              =    -282.49241490 Ry
     Harris-Foulkes estimate   =    -282.49241490 Ry
     estimated scf accuracy    <          1.8E-09 Ry

     The total energy is the sum of the following terms:

     one-electron contribution =      -4.49982940 Ry
     hartree contribution      =      28.24616792 Ry
     xc contribution           =     -63.90507188 Ry
     ewald contribution        =    -242.33311988 Ry
     smearing contrib. (-TS)   =      -0.00056166 Ry

     convergence has been achieved in   5 iterations

     Forces acting on atoms (cartesian axes, Ry/au):

     atom    1 type  1   force =     0.00000000    0.00000000    0.00000000

     Total force =     0.000000     Total SCF correction =     0.000000


     Computing stress (Cartesian axis) and pressure

          total   stress  (Ry/bohr**3)                   (kbar)     P= 7099.93
   0.04826433  -0.00000000  -0.00000000       7099.93     -0.00     -0.00
  -0.00000000   0.04826433   0.00000000         -0.00   7099.93      0.00
  -0.00000000   0.00000000   0.04826433         -0.00      0.00   7099.93


     Writing output data file Fr.save/

     init_run     :      0.45s CPU      0.47s WALL (       1 calls)
     electrons    :      4.84s CPU      5.05s WALL (       1 calls)
     forces       :      0.06s CPU      0.06s WALL (       1 calls)
     stress       :      0.21s CPU      0.21s WALL (       1 calls)

     Called by init_run:
     wfcinit      :      0.24s CPU      0.25s WALL (       1 calls)
     potinit      :      0.01s CPU      0.01s WALL (       1 calls)
     hinit0       :      0.19s CPU      0.19s WALL (       1 calls)

     Called by electrons:
     c_bands      :      4.03s CPU      4.21s WALL (       6 calls)
     sum_band     :      0.76s CPU      0.78s WALL (       6 calls)
     v_of_rho     :      0.01s CPU      0.01s WALL (       6 calls)
     newd         :      0.05s CPU      0.06s WALL (       6 calls)
     mix_rho      :      0.00s CPU      0.00s WALL (       6 calls)

     Called by c_bands:
     init_us_2    :      0.10s CPU      0.10s WALL (     705 calls)
     cegterg      :      3.89s CPU      4.06s WALL (     282 calls)

     Called by sum_band:
     sum_band:bec :      0.00s CPU      0.00s WALL (     282 calls)
     addusdens    :      0.05s CPU      0.05s WALL (       6 calls)

     Called by *egterg:
     h_psi        :      2.93s CPU      3.08s WALL (    1056 calls)
     s_psi        :      0.09s CPU      0.10s WALL (    1056 calls)
     g_psi        :      0.01s CPU      0.01s WALL (     727 calls)
     cdiaghg      :      0.46s CPU      0.47s WALL (     962 calls)

     Called by h_psi:
     h_psi:pot    :      2.91s CPU      3.06s WALL (    1056 calls)
     h_psi:calbec :      0.14s CPU      0.15s WALL (    1056 calls)
     vloc_psi     :      2.66s CPU      2.80s WALL (    1056 calls)
     add_vuspsi   :      0.10s CPU      0.10s WALL (    1056 calls)

     General routines
     calbec       :      0.24s CPU      0.24s WALL (    1573 calls)
     fft          :      0.01s CPU      0.01s WALL (      34 calls)
     ffts         :      0.00s CPU      0.00s WALL (       6 calls)
     fftw         :      3.04s CPU      3.19s WALL (   25292 calls)

     Parallel routines
     fft_scatt_xy :      0.26s CPU      0.27s WALL (   25332 calls)
     fft_scatt_yz :      0.82s CPU      0.85s WALL (   25332 calls)

     PWSCF        :     6.49s CPU         6.82s WALL


   This run was terminated on:  22:59:41   7Apr2024            

=------------------------------------------------------------------------------=
   JOB DONE.
=------------------------------------------------------------------------------=
