
     Program PWSCF v.6.3MaX starts on  7Apr2024 at 22:49: 4 

     This program is part of the open-source Quantum ESPRESSO suite
     for quantum simulation of materials; please cite
         "P. Giannozzi et al., J. Phys.:Condens. Matter 21 395502 (2009);
         "P. Giannozzi et al., J. Phys.:Condens. Matter 29 465901 (2017);
          URL http://www.quantum-espresso.org", 
     in publications or presentations arising from this work. More details at
     http://www.quantum-espresso.org/quote

     Parallel version (MPI), running on     5 processors

     MPI processes distributed on     1 nodes
     R & G space division:  proc/nbgrp/npool/nimage =       5
     Waiting for input...
     Reading input from standard input

     Current dimensions of program PWSCF are:
     Max number of different atomic species (ntypx) = 10
     Max number of k-points (npk) =  40000
     Max angular momentum in pseudopotentials (lmaxx) =  3
               file Fr.pz-spdn-kjpaw_psl.1.0.0.UPF: wavefunction(s)  6P renormalized

     Subspace diagonalization in iterative solution of the eigenvalue problem:
     a serial algorithm will be used


     Parallelization info
     --------------------
     sticks:   dense  smooth     PW     G-vecs:    dense   smooth      PW
     Min          87      87     30                 1245     1245     241
     Max          88      88     31                 1247     1247     244
     Sum         439     439    151                 6231     6231    1211



     bravais-lattice index     =            2
     lattice parameter (alat)  =       6.8300  a.u.
     unit-cell volume          =      79.6530 (a.u.)^3
     number of atoms/cell      =            1
     number of atomic types    =            1
     number of electrons       =        19.00
     number of Kohn-Sham states=           14
     kinetic-energy cutoff     =      70.0000  Ry
     charge density cutoff     =     280.0000  Ry
     convergence threshold     =      1.0E-08
     mixing beta               =       0.7000
     number of iterations used =            8  plain     mixing
     Exchange-correlation      = SLA PZ NOGX NOGC ( 1  1  0  0 0 0)

     celldm(1)=   6.830000  celldm(2)=   0.000000  celldm(3)=   0.000000
     celldm(4)=   0.000000  celldm(5)=   0.000000  celldm(6)=   0.000000

     crystal axes: (cart. coord. in units of alat)
               a(1) = (  -0.500000   0.000000   0.500000 )  
               a(2) = (   0.000000   0.500000   0.500000 )  
               a(3) = (  -0.500000   0.500000   0.000000 )  

     reciprocal axes: (cart. coord. in units 2 pi/alat)
               b(1) = ( -1.000000 -1.000000  1.000000 )  
               b(2) = (  1.000000  1.000000  1.000000 )  
               b(3) = ( -1.000000  1.000000 -1.000000 )  


     PseudoPot. # 1 for Fr read from file:
     /home/lorenzo/pseudos/Fr/Fr.pz-spdn-kjpaw_psl.1.0.0.UPF
     MD5 check sum: 60dafd115682613df3cc92ec23a62a32
     Pseudo is Projector augmented-wave + core cor, Zval = 19.0
     Generated using "atomic" code by A. Dal Corso v.6.2.2
     Shape of augmentation charge: PSQ
     Using radial grid of 1287 points,  6 beta functions with: 
                l(1) =   0
                l(2) =   0
                l(3) =   1
                l(4) =   1
                l(5) =   2
                l(6) =   2
     Q(r) pseudized with 0 coefficients 


     atomic species   valence    mass     pseudopotential
        Fr            19.00   223.00000     Fr( 1.00)

     48 Sym. Ops., with inversion, found



   Cartesian axes

     site n.     atom                  positions (alat units)
         1           Fr  tau(   1) = (   0.0000000   0.0000000   0.0000000  )

     number of k points=    35  gaussian smearing, width (Ry)=  0.0100
                       cart. coord. in units 2pi/alat
        k(    1) = (   0.0000000   0.0000000   0.0000000), wk =   0.0027435
        k(    2) = (  -0.1111111   0.1111111  -0.1111111), wk =   0.0219479
        k(    3) = (  -0.2222222   0.2222222  -0.2222222), wk =   0.0219479
        k(    4) = (  -0.3333333   0.3333333  -0.3333333), wk =   0.0219479
        k(    5) = (  -0.4444444   0.4444444  -0.4444444), wk =   0.0219479
        k(    6) = (   0.0000000   0.2222222   0.0000000), wk =   0.0164609
        k(    7) = (  -0.1111111   0.3333333  -0.1111111), wk =   0.0658436
        k(    8) = (  -0.2222222   0.4444444  -0.2222222), wk =   0.0658436
        k(    9) = (  -0.3333333   0.5555556  -0.3333333), wk =   0.0658436
        k(   10) = (   0.5555556  -0.3333333   0.5555556), wk =   0.0658436
        k(   11) = (   0.4444444  -0.2222222   0.4444444), wk =   0.0658436
        k(   12) = (   0.3333333  -0.1111111   0.3333333), wk =   0.0658436
        k(   13) = (   0.2222222  -0.0000000   0.2222222), wk =   0.0329218
        k(   14) = (   0.0000000   0.4444444   0.0000000), wk =   0.0164609
        k(   15) = (  -0.1111111   0.5555556  -0.1111111), wk =   0.0658436
        k(   16) = (  -0.2222222   0.6666667  -0.2222222), wk =   0.0658436
        k(   17) = (   0.6666667  -0.2222222   0.6666667), wk =   0.0658436
        k(   18) = (   0.5555556  -0.1111111   0.5555556), wk =   0.0658436
        k(   19) = (   0.4444444   0.0000000   0.4444444), wk =   0.0329218
        k(   20) = (   0.0000000   0.6666667   0.0000000), wk =   0.0164609
        k(   21) = (  -0.1111111   0.7777778  -0.1111111), wk =   0.0658436
        k(   22) = (   0.7777778  -0.1111111   0.7777778), wk =   0.0658436
        k(   23) = (   0.6666667  -0.0000000   0.6666667), wk =   0.0329218
        k(   24) = (   0.0000000   0.8888889   0.0000000), wk =   0.0164609
        k(   25) = (   0.8888889   0.0000000   0.8888889), wk =   0.0329218
        k(   26) = (  -0.2222222   0.4444444   0.0000000), wk =   0.0658436
        k(   27) = (  -0.3333333   0.5555556  -0.1111111), wk =   0.1316872
        k(   28) = (   0.5555556  -0.3333333   0.7777778), wk =   0.1316872
        k(   29) = (  -0.2222222   0.6666667   0.0000000), wk =   0.0658436
        k(   30) = (   0.6666667  -0.2222222   0.8888889), wk =   0.1316872
        k(   31) = (   0.5555556  -0.1111111   0.7777778), wk =   0.1316872
        k(   32) = (   0.4444444   0.0000000   0.6666667), wk =   0.0658436
        k(   33) = (   0.7777778  -0.1111111   1.0000000), wk =   0.0658436
        k(   34) = (   0.6666667  -0.0000000   0.8888889), wk =   0.0658436
        k(   35) = (   0.5555556  -0.1111111   1.0000000), wk =   0.0658436

     Dense  grid:     6231 G-vectors     FFT dimensions: (  25,  25,  25)

     Estimated max dynamical RAM per process >       7.26 MB

     Estimated total dynamical RAM >      36.30 MB

     Check: negative/imaginary core charge=   -0.000002    0.000000

     Initial potential from superposition of free atoms

     starting charge   18.97647, renormalised to   19.00000
     Starting wfcs are   10 randomized atomic wfcs +    4 random wfcs
     Checking if some PAW data can be deallocated... 

     total cpu time spent up to now is        1.3 secs

     Self-consistent Calculation

     iteration #  1     ecut=    70.00 Ry     beta= 0.70
     Davidson diagonalization with overlap
     ethr =  1.00E-02,  avg # of iterations =  4.6

     Threshold (ethr) on eigenvalues was too large:
     Diagonalizing with lowered threshold

     Davidson diagonalization with overlap
     ethr =  9.21E-05,  avg # of iterations =  1.8

     total cpu time spent up to now is        2.3 secs

     total energy              =   -1045.25538887 Ry
     Harris-Foulkes estimate   =   -1045.26773480 Ry
     estimated scf accuracy    <       0.01737048 Ry

     iteration #  2     ecut=    70.00 Ry     beta= 0.70
     Davidson diagonalization with overlap
     ethr =  9.14E-05,  avg # of iterations =  2.0

     total cpu time spent up to now is        2.8 secs

     total energy              =   -1045.25816448 Ry
     Harris-Foulkes estimate   =   -1045.25846696 Ry
     estimated scf accuracy    <       0.00051517 Ry

     iteration #  3     ecut=    70.00 Ry     beta= 0.70
     Davidson diagonalization with overlap
     ethr =  2.71E-06,  avg # of iterations =  3.1

     total cpu time spent up to now is        3.3 secs

     total energy              =   -1045.25822383 Ry
     Harris-Foulkes estimate   =   -1045.25823137 Ry
     estimated scf accuracy    <       0.00001775 Ry

     iteration #  4     ecut=    70.00 Ry     beta= 0.70
     Davidson diagonalization with overlap
     ethr =  9.34E-08,  avg # of iterations =  2.1

     total cpu time spent up to now is        3.8 secs

     total energy              =   -1045.25822877 Ry
     Harris-Foulkes estimate   =   -1045.25822833 Ry
     estimated scf accuracy    <       0.00000024 Ry

     iteration #  5     ecut=    70.00 Ry     beta= 0.70
     Davidson diagonalization with overlap
     ethr =  1.26E-09,  avg # of iterations =  2.2

     total cpu time spent up to now is        4.3 secs

     total energy              =   -1045.25822883 Ry
     Harris-Foulkes estimate   =   -1045.25822880 Ry
     estimated scf accuracy    <       0.00000002 Ry

     iteration #  6     ecut=    70.00 Ry     beta= 0.70
     Davidson diagonalization with overlap
     ethr =  8.22E-11,  avg # of iterations =  2.0

     total cpu time spent up to now is        4.8 secs

     End of self-consistent calculation

          k = 0.0000 0.0000 0.0000 (   749 PWs)   bands (ev):

    -9.4626  -9.4626  -9.4626  -9.1129  -9.1129   9.0909  46.8672  46.8672
    46.8672  48.0866  53.6799  53.6799  53.6799  57.5373

          k =-0.1111 0.1111-0.1111 (   797 PWs)   bands (ev):

    -9.4611  -9.4277  -9.4277  -9.1154  -9.1154   9.5850  42.0559  46.1519
    46.1519  47.9556  54.8675  54.8675  55.6169  56.8948

          k =-0.2222 0.2222-0.2222 (   800 PWs)   bands (ev):

    -9.4544  -9.3752  -9.3752  -9.0674  -9.0674  11.0694  35.1630  44.7627
    44.7627  47.9937  53.6782  54.3578  54.3578  57.6556

          k =-0.3333 0.3333-0.3333 (   787 PWs)   bands (ev):

    -9.4499  -9.3824  -9.3824  -8.9415  -8.9415  13.4972  28.8610  43.4854
    43.4854  47.9629  51.8988  52.5712  52.5712  61.1883

          k =-0.4444 0.4444-0.4444 (   787 PWs)   bands (ev):

    -9.4511  -9.4062  -9.4062  -8.8395  -8.8395  16.4020  23.9649  42.7317
    42.7317  47.8644  51.0547  51.6999  51.6999  64.4846

          k = 0.0000 0.2222 0.0000 (   797 PWs)   bands (ev):

    -9.5043  -9.3877  -9.3877  -9.1564  -9.0834   9.7495  44.0103  44.0103
    44.4740  46.7247  52.6043  56.1162  56.8880  56.8880

          k =-0.1111 0.3333-0.1111 (   795 PWs)   bands (ev):

    -9.5164  -9.3230  -9.3136  -9.1689  -9.0306  10.9042  37.6630  42.2157
    43.8183  47.7469  50.1514  55.8894  57.9757  58.2105

          k =-0.2222 0.4444-0.2222 (   790 PWs)   bands (ev):

    -9.4934  -9.3373  -9.3023  -9.0732  -8.9177  13.0258  31.1839  41.1159
    42.0434  46.7072  52.7542  55.5250  55.8634  56.6199

          k =-0.3333 0.5556-0.3333 (   790 PWs)   bands (ev):

    -9.4678  -9.3676  -9.3297  -8.9492  -8.8286  15.8782  25.7520  40.1876
    40.8990  46.1408  53.8964  54.1164  55.0050  59.1620

          k = 0.5556-0.3333 0.5556 (   793 PWs)   bands (ev):

    -9.4422  -9.3865  -9.3464  -8.8741  -8.8440  17.3893  23.5960  38.9177
    41.6778  46.4687  52.7636  53.0301  56.0490  63.4692

          k = 0.4444-0.2222 0.4444 (   793 PWs)   bands (ev):

    -9.4180  -9.3932  -9.3345  -8.9653  -8.8853  14.8838  27.4157  38.5183
    43.4228  47.6147  51.9084  52.6048  57.5512  60.1132

          k = 0.3333-0.1111 0.3333 (   790 PWs)   bands (ev):

    -9.4434  -9.3599  -9.3182  -9.1150  -8.9671  12.2151  33.2725  39.0292
    45.7893  49.4322  51.2088  52.8696  56.2675  57.8931

          k = 0.2222-0.0000 0.2222 (   797 PWs)   bands (ev):

    -9.4657  -9.3789  -9.3684  -9.1501  -9.0599  10.4096  39.4579  40.8126
    47.3572  49.2693  52.7860  54.0945  54.1262  56.3136

          k = 0.0000 0.4444 0.0000 (   801 PWs)   bands (ev):

    -9.6038  -9.2668  -9.1853  -9.1853  -8.9995  11.7281  39.2935  40.0451
    40.0451  44.8847  46.6101  60.9113  60.9113  61.1270

          k =-0.1111 0.5556-0.1111 (   801 PWs)   bands (ev):

    -9.6182  -9.3271  -9.1281  -9.0744  -8.9067  13.5249  33.7349  38.2749
    38.6979  44.7166  47.4958  60.1185  60.4431  61.8946

          k =-0.2222 0.6667-0.2222 (   790 PWs)   bands (ev):

    -9.5704  -9.3259  -9.1482  -9.0210  -8.8170  16.1447  28.3302  35.6980
    38.3669  44.3691  52.1245  58.0945  58.6179  61.7224

          k = 0.6667-0.2222 0.6667 (   790 PWs)   bands (ev):

    -9.5148  -9.2669  -9.1753  -9.0138  -8.8385  18.4728  24.9272  33.7348
    39.1391  44.7106  56.6357  56.8127  57.6903  62.4955

          k = 0.5556-0.1111 0.5556 (   785 PWs)   bands (ev):

    -9.4548  -9.2812  -9.1812  -8.9742  -8.9700  17.0191  27.0767  32.7514
    40.9688  45.7556  55.5223  55.8308  60.1487  60.7279

          k = 0.4444 0.0000 0.4444 (   796 PWs)   bands (ev):

    -9.3938  -9.3730  -9.1656  -9.1575  -8.9296  14.2902  31.5485  33.5351
    43.5745  47.5328  53.4993  55.6835  55.7151  58.2745

          k = 0.0000 0.6667 0.0000 (   797 PWs)   bands (ev):

    -9.7152  -9.4041  -8.9471  -8.9471  -8.9029  14.9930  32.5726  37.0325
    37.0325  43.6223  43.7124  64.3382  64.8793  64.8793

          k =-0.1111 0.7778-0.1111 (   784 PWs)   bands (ev):

    -9.7080  -9.4326  -8.9440  -8.8884  -8.8092  17.3092  29.0657  33.9618
    36.4033  43.2824  46.1717  62.1740  64.0472  68.4464

          k = 0.7778-0.1111 0.7778 (   782 PWs)   bands (ev):

    -9.6241  -9.3535  -8.9763  -8.9466  -8.8212  19.7137  26.5741  30.3813
    36.9184  43.4987  51.2998  60.3742  62.1050  66.5834

          k = 0.6667-0.0000 0.6667 (   792 PWs)   bands (ev):

    -9.5356  -9.1662  -9.0979  -9.0266  -8.9317  19.3602  28.0151  28.0435
    38.5279  44.3159  57.1630  58.7566  59.7546  62.3388

          k = 0.0000 0.8889 0.0000 (   785 PWs)   bands (ev):

    -9.7877  -9.4992  -8.8389  -8.7861  -8.7861  19.2346  26.2866  35.4305
    35.4305  42.6054  43.0050  64.1050  69.5358  69.5358

          k = 0.8889 0.0000 0.8889 (   776 PWs)   bands (ev):

    -9.7430  -9.4787  -8.8573  -8.8098  -8.7839  20.6681  25.0306  32.8078
    35.6091  42.8639  45.7483  62.9836  67.3919  68.9096

          k =-0.2222 0.4444 0.0000 (   792 PWs)   bands (ev):

    -9.5246  -9.3138  -9.1947  -9.1891  -8.9536  12.3806  35.2347  37.1680
    43.0026  48.4332  48.7870  55.4664  57.8360  60.4343

          k =-0.3333 0.5556-0.1111 (   787 PWs)   bands (ev):

    -9.4748  -9.3538  -9.2046  -9.0605  -8.8836  14.7647  29.8896  35.6683
    40.5209  47.8500  51.8731  54.4440  58.2820  61.6452

          k = 0.5556-0.3333 0.7778 (   789 PWs)   bands (ev):

    -9.4310  -9.3842  -9.1986  -8.9883  -8.8483  17.5371  25.2965  35.4810
    38.7722  47.4385  51.9320  58.5093  58.7947  60.0745

          k =-0.2222 0.6667 0.0000 (   791 PWs)   bands (ev):

    -9.6154  -9.3700  -9.0942  -8.9518  -8.8626  15.5883  31.2992  34.4431
    36.8646  46.8582  46.9094  57.7938  63.7864  65.9454

          k = 0.6667-0.2222 0.8889 (   785 PWs)   bands (ev):

    -9.5359  -9.3474  -9.1158  -8.9469  -8.8314  18.2329  27.6580  32.2414
    35.4957  46.8896  51.7007  55.8465  63.4105  64.6437

          k = 0.5556-0.1111 0.7778 (   787 PWs)   bands (ev):

    -9.4668  -9.2744  -9.1253  -9.0387  -8.8512  19.4187  26.2933  30.7208
    36.0789  47.5475  54.1884  57.6024  59.0280  62.8153

          k = 0.4444 0.0000 0.6667 (   783 PWs)   bands (ev):

    -9.4073  -9.3601  -9.1524  -8.9601  -8.9534  17.2371  29.0308  30.8196
    37.9557  48.7311  52.6978  55.0112  61.1001  62.7477

          k = 0.7778-0.1111 1.0000 (   783 PWs)   bands (ev):

    -9.6752  -9.4429  -8.9461  -8.8544  -8.7867  19.5813  26.7049  32.9856
    33.8176  45.9739  46.1172  60.4807  65.4343  68.4954

          k = 0.6667-0.0000 0.8889 (   774 PWs)   bands (ev):

    -9.5615  -9.3554  -9.0392  -8.9492  -8.7893  20.6902  26.5544  29.6526
    34.2339  46.5506  51.4078  58.1742  61.1181  66.3230

          k = 0.5556-0.1111 1.0000 (   773 PWs)   bands (ev):

    -9.3843  -9.3615  -9.1962  -8.9793  -8.7876  20.3020  27.7846  29.3740
    32.8179  51.5526  51.8022  54.4924  58.4583  67.9830

     the Fermi energy is    46.7227 ev

!    total energy              =   -1045.25822883 Ry
     Harris-Foulkes estimate   =   -1045.25822883 Ry
     estimated scf accuracy    <          1.5E-10 Ry

     total all-electron energy =    -48490.711202 Ry

     The total energy is the sum of the following terms:

     one-electron contribution =       1.46950072 Ry
     hartree contribution      =      28.21763681 Ry
     xc contribution           =     -63.89936471 Ry
     ewald contribution        =    -242.33311988 Ry
     one-center paw contrib.   =    -768.71239828 Ry
     smearing contrib. (-TS)   =      -0.00048349 Ry

     convergence has been achieved in   6 iterations

     Forces acting on atoms (cartesian axes, Ry/au):

     atom    1 type  1   force =     0.00000000    0.00000000    0.00000000

     Total force =     0.000000     Total SCF correction =     0.000000


     Computing stress (Cartesian axis) and pressure

          total   stress  (Ry/bohr**3)                   (kbar)     P= 6977.97
   0.04743525  -0.00000000  -0.00000000       6977.97     -0.00     -0.00
  -0.00000000   0.04743525   0.00000000         -0.00   6977.97      0.00
  -0.00000000   0.00000000   0.04743525         -0.00      0.00   6977.97


     Writing output data file Fr.save/

     init_run     :      0.38s CPU      0.40s WALL (       1 calls)
     electrons    :      3.40s CPU      3.55s WALL (       1 calls)
     forces       :      0.04s CPU      0.04s WALL (       1 calls)
     stress       :      0.14s CPU      0.14s WALL (       1 calls)

     Called by init_run:
     wfcinit      :      0.15s CPU      0.16s WALL (       1 calls)
     potinit      :      0.05s CPU      0.05s WALL (       1 calls)
     hinit0       :      0.17s CPU      0.17s WALL (       1 calls)

     Called by electrons:
     c_bands      :      2.62s CPU      2.74s WALL (       7 calls)
     sum_band     :      0.44s CPU      0.46s WALL (       7 calls)
     v_of_rho     :      0.00s CPU      0.00s WALL (       7 calls)
     newd         :      0.06s CPU      0.06s WALL (       7 calls)
     PAW_pot      :      0.32s CPU      0.33s WALL (       7 calls)
     mix_rho      :      0.01s CPU      0.01s WALL (       7 calls)

     Called by c_bands:
     init_us_2    :      0.07s CPU      0.07s WALL (     595 calls)
     cegterg      :      2.53s CPU      2.64s WALL (     245 calls)

     Called by sum_band:
     sum_band:bec :      0.00s CPU      0.00s WALL (     245 calls)
     addusdens    :      0.04s CPU      0.04s WALL (       7 calls)

     Called by *egterg:
     h_psi        :      1.80s CPU      1.89s WALL (     904 calls)
     s_psi        :      0.06s CPU      0.06s WALL (     904 calls)
     g_psi        :      0.01s CPU      0.01s WALL (     624 calls)
     cdiaghg      :      0.38s CPU      0.40s WALL (     834 calls)

     Called by h_psi:
     h_psi:pot    :      1.79s CPU      1.88s WALL (     904 calls)
     h_psi:calbec :      0.09s CPU      0.09s WALL (     904 calls)
     vloc_psi     :      1.64s CPU      1.72s WALL (     904 calls)
     add_vuspsi   :      0.06s CPU      0.06s WALL (     904 calls)

     General routines
     calbec       :      0.15s CPU      0.15s WALL (    1324 calls)
     fft          :      0.01s CPU      0.01s WALL (      38 calls)
     ffts         :      0.00s CPU      0.00s WALL (       7 calls)
     fftw         :      1.84s CPU      1.93s WALL (   21556 calls)

     Parallel routines
     fft_scatt_xy :      0.14s CPU      0.16s WALL (   21601 calls)
     fft_scatt_yz :      0.52s CPU      0.55s WALL (   21601 calls)

     PWSCF        :     4.90s CPU         5.14s WALL


   This run was terminated on:  22:49: 9   7Apr2024            

=------------------------------------------------------------------------------=
   JOB DONE.
=------------------------------------------------------------------------------=
