
     Program PWSCF v.6.3MaX starts on  7Apr2024 at 22:56: 8 

     This program is part of the open-source Quantum ESPRESSO suite
     for quantum simulation of materials; please cite
         "P. Giannozzi et al., J. Phys.:Condens. Matter 21 395502 (2009);
         "P. Giannozzi et al., J. Phys.:Condens. Matter 29 465901 (2017);
          URL http://www.quantum-espresso.org", 
     in publications or presentations arising from this work. More details at
     http://www.quantum-espresso.org/quote

     Parallel version (MPI), running on     5 processors

     MPI processes distributed on     1 nodes
     R & G space division:  proc/nbgrp/npool/nimage =       5
     Waiting for input...
     Reading input from standard input

     Current dimensions of program PWSCF are:
     Max number of different atomic species (ntypx) = 10
     Max number of k-points (npk) =  40000
     Max angular momentum in pseudopotentials (lmaxx) =  3

     Subspace diagonalization in iterative solution of the eigenvalue problem:
     a serial algorithm will be used


     Parallelization info
     --------------------
     sticks:   dense  smooth     PW     G-vecs:    dense   smooth      PW
     Min         109     109     33                 1677     1677     294
     Max         110     110     35                 1680     1680     295
     Sum         547     547    169                 8393     8393    1471



     bravais-lattice index     =            2
     lattice parameter (alat)  =       6.8300  a.u.
     unit-cell volume          =      79.6530 (a.u.)^3
     number of atoms/cell      =            1
     number of atomic types    =            1
     number of electrons       =        19.00
     number of Kohn-Sham states=           14
     kinetic-energy cutoff     =      85.0000  Ry
     charge density cutoff     =     340.0000  Ry
     convergence threshold     =      1.0E-08
     mixing beta               =       0.7000
     number of iterations used =            8  plain     mixing
     Exchange-correlation      = LDA ( 1  1  0  0 0 0)

     celldm(1)=   6.830000  celldm(2)=   0.000000  celldm(3)=   0.000000
     celldm(4)=   0.000000  celldm(5)=   0.000000  celldm(6)=   0.000000

     crystal axes: (cart. coord. in units of alat)
               a(1) = (  -0.500000   0.000000   0.500000 )  
               a(2) = (   0.000000   0.500000   0.500000 )  
               a(3) = (  -0.500000   0.500000   0.000000 )  

     reciprocal axes: (cart. coord. in units 2 pi/alat)
               b(1) = ( -1.000000 -1.000000  1.000000 )  
               b(2) = (  1.000000  1.000000  1.000000 )  
               b(3) = ( -1.000000  1.000000 -1.000000 )  


     PseudoPot. # 1 for Fr read from file:
     /home/lorenzo/pseudos/Fr/Fr.pz-spdn-rrkjus_psl.1.0.0.UPF
     MD5 check sum: 5665a43a3d1ea02b0b7dc7a0ae9ace04
     Pseudo is Ultrasoft + core correction, Zval = 19.0
     Generated using "atomic" code by A. Dal Corso v.6.2.2
     Using radial grid of 1287 points,  6 beta functions with: 
                l(1) =   0
                l(2) =   0
                l(3) =   1
                l(4) =   1
                l(5) =   2
                l(6) =   2
     Q(r) pseudized with 0 coefficients 


     atomic species   valence    mass     pseudopotential
        Fr            19.00   223.00000     Fr( 1.00)

     48 Sym. Ops., with inversion, found



   Cartesian axes

     site n.     atom                  positions (alat units)
         1           Fr  tau(   1) = (   0.0000000   0.0000000   0.0000000  )

     number of k points=    47  gaussian smearing, width (Ry)=  0.0100
                       cart. coord. in units 2pi/alat
        k(    1) = (   0.0000000   0.0000000   0.0000000), wk =   0.0020000
        k(    2) = (  -0.1000000   0.1000000  -0.1000000), wk =   0.0160000
        k(    3) = (  -0.2000000   0.2000000  -0.2000000), wk =   0.0160000
        k(    4) = (  -0.3000000   0.3000000  -0.3000000), wk =   0.0160000
        k(    5) = (  -0.4000000   0.4000000  -0.4000000), wk =   0.0160000
        k(    6) = (   0.5000000  -0.5000000   0.5000000), wk =   0.0080000
        k(    7) = (   0.0000000   0.2000000   0.0000000), wk =   0.0120000
        k(    8) = (  -0.1000000   0.3000000  -0.1000000), wk =   0.0480000
        k(    9) = (  -0.2000000   0.4000000  -0.2000000), wk =   0.0480000
        k(   10) = (  -0.3000000   0.5000000  -0.3000000), wk =   0.0480000
        k(   11) = (   0.6000000  -0.4000000   0.6000000), wk =   0.0480000
        k(   12) = (   0.5000000  -0.3000000   0.5000000), wk =   0.0480000
        k(   13) = (   0.4000000  -0.2000000   0.4000000), wk =   0.0480000
        k(   14) = (   0.3000000  -0.1000000   0.3000000), wk =   0.0480000
        k(   15) = (   0.2000000   0.0000000   0.2000000), wk =   0.0240000
        k(   16) = (   0.0000000   0.4000000   0.0000000), wk =   0.0120000
        k(   17) = (  -0.1000000   0.5000000  -0.1000000), wk =   0.0480000
        k(   18) = (  -0.2000000   0.6000000  -0.2000000), wk =   0.0480000
        k(   19) = (   0.7000000  -0.3000000   0.7000000), wk =   0.0480000
        k(   20) = (   0.6000000  -0.2000000   0.6000000), wk =   0.0480000
        k(   21) = (   0.5000000  -0.1000000   0.5000000), wk =   0.0480000
        k(   22) = (   0.4000000   0.0000000   0.4000000), wk =   0.0240000
        k(   23) = (   0.0000000   0.6000000   0.0000000), wk =   0.0120000
        k(   24) = (  -0.1000000   0.7000000  -0.1000000), wk =   0.0480000
        k(   25) = (   0.8000000  -0.2000000   0.8000000), wk =   0.0480000
        k(   26) = (   0.7000000  -0.1000000   0.7000000), wk =   0.0480000
        k(   27) = (   0.6000000  -0.0000000   0.6000000), wk =   0.0240000
        k(   28) = (   0.0000000   0.8000000   0.0000000), wk =   0.0120000
        k(   29) = (   0.9000000  -0.1000000   0.9000000), wk =   0.0480000
        k(   30) = (   0.8000000   0.0000000   0.8000000), wk =   0.0240000
        k(   31) = (   0.0000000  -1.0000000   0.0000000), wk =   0.0060000
        k(   32) = (  -0.2000000   0.4000000   0.0000000), wk =   0.0480000
        k(   33) = (  -0.3000000   0.5000000  -0.1000000), wk =   0.0960000
        k(   34) = (   0.6000000  -0.4000000   0.8000000), wk =   0.0960000
        k(   35) = (   0.5000000  -0.3000000   0.7000000), wk =   0.0480000
        k(   36) = (  -0.2000000   0.6000000   0.0000000), wk =   0.0480000
        k(   37) = (   0.7000000  -0.3000000   0.9000000), wk =   0.0960000
        k(   38) = (   0.6000000  -0.2000000   0.8000000), wk =   0.0960000
        k(   39) = (   0.5000000  -0.1000000   0.7000000), wk =   0.0960000
        k(   40) = (   0.4000000   0.0000000   0.6000000), wk =   0.0480000
        k(   41) = (   0.8000000  -0.2000000   1.0000000), wk =   0.0480000
        k(   42) = (   0.7000000  -0.1000000   0.9000000), wk =   0.0960000
        k(   43) = (   0.6000000   0.0000000   0.8000000), wk =   0.0480000
        k(   44) = (  -0.2000000  -1.0000000   0.0000000), wk =   0.0240000
        k(   45) = (   0.6000000  -0.2000000   1.0000000), wk =   0.0480000
        k(   46) = (   0.5000000  -0.1000000   0.9000000), wk =   0.0480000
        k(   47) = (  -0.4000000  -1.0000000   0.0000000), wk =   0.0240000

     Dense  grid:     8393 G-vectors     FFT dimensions: (  30,  30,  30)

     Estimated max dynamical RAM per process >      10.04 MB

     Estimated total dynamical RAM >      50.21 MB

     Initial potential from superposition of free atoms

     starting charge   18.97647, renormalised to   19.00000
     Starting wfcs are   10 randomized atomic wfcs +    4 random wfcs

     total cpu time spent up to now is        1.4 secs

     Self-consistent Calculation

     iteration #  1     ecut=    85.00 Ry     beta= 0.70
     Davidson diagonalization with overlap
     ethr =  1.00E-02,  avg # of iterations =  4.7

     Threshold (ethr) on eigenvalues was too large:
     Diagonalizing with lowered threshold

     Davidson diagonalization with overlap
     ethr =  9.06E-05,  avg # of iterations =  2.0

     total cpu time spent up to now is        3.4 secs

     total energy              =    -282.48908873 Ry
     Harris-Foulkes estimate   =    -282.50085106 Ry
     estimated scf accuracy    <       0.01710174 Ry

     iteration #  2     ecut=    85.00 Ry     beta= 0.70
     Davidson diagonalization with overlap
     ethr =  9.00E-05,  avg # of iterations =  2.0

     total cpu time spent up to now is        4.2 secs

     total energy              =    -282.49217150 Ry
     Harris-Foulkes estimate   =    -282.49265683 Ry
     estimated scf accuracy    <       0.00064504 Ry

     iteration #  3     ecut=    85.00 Ry     beta= 0.70
     Davidson diagonalization with overlap
     ethr =  3.39E-06,  avg # of iterations =  2.4

     total cpu time spent up to now is        5.0 secs

     total energy              =    -282.49228974 Ry
     Harris-Foulkes estimate   =    -282.49230474 Ry
     estimated scf accuracy    <       0.00002555 Ry

     iteration #  4     ecut=    85.00 Ry     beta= 0.70
     Davidson diagonalization with overlap
     ethr =  1.34E-07,  avg # of iterations =  2.0

     total cpu time spent up to now is        5.7 secs

     total energy              =    -282.49229262 Ry
     Harris-Foulkes estimate   =    -282.49229266 Ry
     estimated scf accuracy    <       0.00000011 Ry

     iteration #  5     ecut=    85.00 Ry     beta= 0.70
     Davidson diagonalization with overlap
     ethr =  5.83E-10,  avg # of iterations =  2.1

     total cpu time spent up to now is        6.4 secs

     End of self-consistent calculation

          k = 0.0000 0.0000 0.0000 (  1067 PWs)   bands (ev):

    -9.4737  -9.4737  -9.4737  -9.1260  -9.1260   9.0993  46.8930  46.8930
    46.8930  48.0901  53.6760  53.6760  53.6760  57.5331

          k =-0.1000 0.1000-0.1000 (  1040 PWs)   bands (ev):

    -9.4698  -9.4423  -9.4423  -9.1253  -9.1253   9.4997  42.7541  46.2969
    46.2969  47.9583  54.6562  54.6562  55.6246  57.1642

          k =-0.2000 0.2000-0.2000 (  1046 PWs)   bands (ev):

    -9.4626  -9.3893  -9.3893  -9.0936  -9.0936  10.7030  36.5317  45.0727
    45.0727  47.9904  54.1257  54.8196  54.8196  57.0194

          k =-0.3000 0.3000-0.3000 (  1056 PWs)   bands (ev):

    -9.4587  -9.3843  -9.3843  -8.9916  -8.9916  12.6898  30.6640  43.8536
    43.8536  47.9821  52.3435  53.0061  53.0061  60.0947

          k =-0.4000 0.4000-0.4000 (  1050 PWs)   bands (ev):

    -9.4591  -9.4068  -9.4068  -8.8803  -8.8803  15.2864  25.6631  42.9765
    42.9765  47.8978  51.2890  51.9344  51.9344  63.3303

          k = 0.5000-0.5000 0.5000 (  1056 PWs)   bands (ev):

    -9.4603  -9.4183  -9.4183  -8.8345  -8.8345  17.1324  23.0051  42.6573
    42.6573  47.8387  50.9636  51.5856  51.5856  65.1406

          k = 0.0000 0.2000 0.0000 (  1038 PWs)   bands (ev):

    -9.5054  -9.4098  -9.4098  -9.1586  -9.0990   9.6330  44.4395  44.4395
    44.8922  46.9236  53.3436  55.7137  56.4270  56.4270

          k =-0.1000 0.3000-0.1000 (  1035 PWs)   bands (ev):

    -9.5161  -9.3490  -9.3433  -9.1749  -9.0589  10.5687  38.7773  42.7899
    44.3937  47.9331  50.6971  55.5404  57.9115  58.1274

          k =-0.2000 0.4000-0.2000 (  1054 PWs)   bands (ev):

    -9.4991  -9.3446  -9.3201  -9.1083  -8.9665  12.2978  32.7979  41.6414
    42.9626  47.3257  52.0495  55.3740  56.0979  56.5872

          k =-0.3000 0.5000-0.3000 (  1059 PWs)   bands (ev):

    -9.4780  -9.3739  -9.3401  -8.9913  -8.8661  14.7226  27.5058  41.1488
    41.3109  46.4718  53.6982  54.3667  54.4227  58.1617

          k = 0.6000-0.4000 0.6000 (  1056 PWs)   bands (ev):

    -9.4596  -9.3953  -9.3618  -8.8981  -8.8317  17.1502  23.7560  39.9509
    41.4207  46.3985  52.9492  53.1678  54.8926  62.0409

          k = 0.5000-0.3000 0.5000 (  1052 PWs)   bands (ev):

    -9.4362  -9.4075  -9.3637  -8.8911  -8.8706  16.4656  24.7137  39.2159
    42.4942  47.0066  52.1042  52.5205  55.9908  62.6531

          k = 0.4000-0.2000 0.4000 (  1050 PWs)   bands (ev):

    -9.4379  -9.3886  -9.3457  -9.0196  -8.9169  13.8503  29.1828  39.2025
    44.2686  48.2423  51.4969  52.4295  57.5090  58.9605

          k = 0.3000-0.1000 0.3000 (  1048 PWs)   bands (ev):

    -9.4596  -9.3647  -9.3420  -9.1388  -9.0066  11.6351  34.7351  39.8953
    46.3312  49.5817  51.3794  52.9802  55.7358  57.4317

          k = 0.2000 0.0000 0.2000 (  1037 PWs)   bands (ev):

    -9.4747  -9.4029  -9.3856  -9.1545  -9.0836  10.1679  40.3945  41.6146
    47.3980  48.9947  53.3669  54.0350  54.5038  56.2185

          k = 0.0000 0.4000 0.0000 (  1054 PWs)   bands (ev):

    -9.5883  -9.2497  -9.2401  -9.2401  -9.0280  11.2366  40.5333  40.8027
    40.8027  45.2138  47.5315  60.0023  60.1871  60.1871

          k =-0.1000 0.5000-0.1000 (  1051 PWs)   bands (ev):

    -9.6060  -9.3093  -9.1771  -9.1324  -8.9529  12.6999  35.1424  39.4399
    39.7214  45.2511  47.5418  59.7666  59.8634  60.9454

          k =-0.2000 0.6000-0.2000 (  1046 PWs)   bands (ev):

    -9.5728  -9.3328  -9.1862  -9.0574  -8.8547  14.8924  29.8799  37.4908
    38.8532  44.7180  51.3753  57.9915  58.3940  60.3208

          k = 0.7000-0.3000 0.7000 (  1061 PWs)   bands (ev):

    -9.5282  -9.3088  -9.2126  -9.0173  -8.8242  17.4234  25.6783  35.5454
    39.1323  44.7498  55.9082  56.4743  56.9779  60.6645

          k = 0.6000-0.2000 0.6000 (  1073 PWs)   bands (ev):

    -9.4835  -9.2962  -9.2279  -8.9805  -8.8925  18.0172  24.9037  34.2665
    40.2963  45.3650  55.4446  55.4744  60.5587  62.2189

          k = 0.5000-0.1000 0.5000 (  1053 PWs)   bands (ev):

    -9.4312  -9.3429  -9.2207  -9.0374  -8.9424  15.7016  28.4934  33.8267
    42.2570  46.5854  54.2739  54.9967  58.6601  59.8475

          k = 0.4000 0.0000 0.4000 (  1057 PWs)   bands (ev):

    -9.4136  -9.3831  -9.2215  -9.1743  -8.9462  13.3415  32.8941  34.8843
    44.6966  48.4234  52.4782  54.7408  55.2600  57.7540

          k = 0.0000 0.6000 0.0000 (  1042 PWs)   bands (ev):

    -9.6899  -9.3727  -9.0241  -9.0241  -8.9397  13.8958  34.6496  37.8189
    37.8189  43.9309  44.3253  63.5970  63.5970  64.4391

          k =-0.1000 0.7000-0.1000 (  1049 PWs)   bands (ev):

    -9.6960  -9.4123  -9.0008  -8.9499  -8.8513  15.8323  31.0608  35.2411
    36.9963  43.6075  46.0506  61.8666  63.1255  66.3968

          k = 0.8000-0.2000 0.8000 (  1054 PWs)   bands (ev):

    -9.6363  -9.3774  -9.0263  -8.9598  -8.8133  18.2330  27.6210  32.2188
    37.0776  43.5890  50.3839  60.0993  61.3607  66.6353

          k = 0.7000-0.1000 0.7000 (  1056 PWs)   bands (ev):

    -9.5646  -9.2464  -9.0531  -9.0507  -8.8792  19.5986  26.2091  30.0613
    38.0772  44.0710  55.4580  58.8012  59.7866  64.1046

          k = 0.6000-0.0000 0.6000 (  1059 PWs)   bands (ev):

    -9.4950  -9.2039  -9.0878  -9.0643  -9.0051  17.9937  28.3720  29.4732
    39.8980  45.0698  57.6620  57.7035  60.0258  60.1620

          k = 0.0000 0.8000 0.0000 (  1042 PWs)   bands (ev):

    -9.7717  -9.4798  -8.8679  -8.8442  -8.8442  17.4977  28.6400  35.9020
    35.9020  42.8874  43.1744  64.1782  67.6655  67.6655

          k = 0.9000-0.1000 0.9000 (  1061 PWs)   bands (ev):

    -9.7514  -9.4852  -8.8812  -8.8287  -8.7961  19.5895  26.2252  33.3816
    35.7160  42.9055  45.3589  63.0297  66.5533  69.4200

          k = 0.8000 0.0000 0.8000 (  1057 PWs)   bands (ev):

    -9.6612  -9.4009  -8.9253  -8.9155  -8.8368  20.6396  25.9088  30.0655
    36.4696  43.2578  50.0377  61.2962  64.2571  66.2078

          k = 0.0000-1.0000 0.0000 (  1034 PWs)   bands (ev):

    -9.8027  -9.5223  -8.8403  -8.7741  -8.7741  20.6341  24.6501  35.2422
    35.2422  42.4706  42.9266  64.0770  70.0390  70.9671

          k =-0.2000 0.4000 0.0000 (  1054 PWs)   bands (ev):

    -9.5274  -9.3218  -9.2485  -9.1977  -8.9934  11.7687  36.4824  38.2397
    44.0981  48.2818  49.0583  55.7257  57.0943  59.5592

          k =-0.3000 0.5000-0.1000 (  1057 PWs)   bands (ev):

    -9.4930  -9.3520  -9.2321  -9.1086  -8.9151  13.7340  31.4319  36.7200
    41.9197  47.8653  51.5392  54.3113  57.3931  61.1421

          k = 0.6000-0.4000 0.8000 (  1054 PWs)   bands (ev):

    -9.4511  -9.3874  -9.2408  -9.0055  -8.8650  16.2637  26.6620  36.3714
    39.9950  47.3433  52.0217  56.8567  57.8617  59.6001

          k = 0.5000-0.3000 0.7000 (  1060 PWs)   bands (ev):

    -9.4308  -9.4071  -9.2394  -8.9639  -8.8512  18.0035  24.1573  36.3907
    39.1873  47.1612  51.7564  58.0532  58.5402  61.4248

          k =-0.2000 0.6000 0.0000 (  1052 PWs)   bands (ev):

    -9.6137  -9.3531  -9.1325  -9.0296  -8.8954  14.4012  32.8522  35.5301
    38.3881  46.7904  46.8387  57.7469  62.2382  65.0517

          k = 0.7000-0.3000 0.9000 (  1053 PWs)   bands (ev):

    -9.5570  -9.3592  -9.1422  -8.9761  -8.8544  16.7302  28.9277  33.7373
    36.6932  46.6043  50.8610  55.8657  62.8201  63.7901

          k = 0.6000-0.2000 0.8000 (  1060 PWs)   bands (ev):

    -9.4961  -9.3146  -9.1303  -9.0358  -8.8451  18.9055  25.8341  32.4619
    36.4819  46.9129  53.9927  56.1912  61.5160  62.6041

          k = 0.5000-0.1000 0.7000 (  1064 PWs)   bands (ev):

    -9.4464  -9.3242  -9.1289  -9.0418  -8.9051  18.2546  26.8177  31.6011
    37.6029  47.7599  53.2589  57.5139  60.7492  61.1122

          k = 0.4000 0.0000 0.6000 (  1049 PWs)   bands (ev):

    -9.4144  -9.3949  -9.1723  -9.0389  -8.9313  15.8531  30.1725  32.2008
    39.5837  48.9457  51.8803  54.4032  59.6324  62.5330

          k = 0.8000-0.2000 1.0000 (  1055 PWs)   bands (ev):

    -9.6843  -9.4379  -8.9913  -8.8483  -8.8458  17.8988  28.5911  33.7795
    34.7559  45.6827  45.8444  60.1575  66.0192  67.6488

          k = 0.7000-0.1000 0.9000 (  1058 PWs)   bands (ev):

    -9.5994  -9.3897  -9.0323  -8.9286  -8.8068  19.9888  26.7960  30.6926
    34.5540  45.9914  50.2875  58.3728  63.0648  66.2122

          k = 0.6000 0.0000 0.8000 (  1064 PWs)   bands (ev):

    -9.5151  -9.2469  -9.1498  -9.0083  -8.8532  20.0802  27.7120  28.2723
    35.6719  46.7259  55.5555  56.5118  59.0964  63.9385

          k =-0.2000-1.0000 0.0000 (  1058 PWs)   bands (ev):

    -9.7113  -9.4739  -8.8849  -8.8797  -8.7741  20.7337  25.2829  33.1737
    33.7285  45.3194  45.5306  61.6845  65.8902  68.1626

          k = 0.6000-0.2000 1.0000 (  1052 PWs)   bands (ev):

    -9.4499  -9.3792  -9.1662  -8.9539  -8.8498  18.9429  28.2237  30.4793
    34.3460  50.4743  50.8346  54.4747  61.6062  65.6761

          k = 0.5000-0.1000 0.9000 (  1058 PWs)   bands (ev):

    -9.4002  -9.3251  -9.2210  -9.0100  -8.8093  20.2705  27.2203  29.6596
    33.4007  50.5787  52.8617  56.0891  57.0256  66.8441

          k =-0.4000-1.0000 0.0000 (  1056 PWs)   bands (ev):

    -9.4653  -9.3733  -9.1481  -8.9793  -8.7740  20.9082  27.1031  29.8855
    32.0954  50.4751  50.8979  56.1255  58.5948  68.8967

     the Fermi energy is    46.6243 ev

!    total energy              =    -282.49229266 Ry
     Harris-Foulkes estimate   =    -282.49229266 Ry
     estimated scf accuracy    <          1.8E-09 Ry

     The total energy is the sum of the following terms:

     one-electron contribution =      -4.49943393 Ry
     hartree contribution      =      28.24578526 Ry
     xc contribution           =     -63.90496254 Ry
     ewald contribution        =    -242.33311988 Ry
     smearing contrib. (-TS)   =      -0.00056158 Ry

     convergence has been achieved in   5 iterations

     Forces acting on atoms (cartesian axes, Ry/au):

     atom    1 type  1   force =     0.00000000    0.00000000    0.00000000

     Total force =     0.000000     Total SCF correction =     0.000000


     Computing stress (Cartesian axis) and pressure

          total   stress  (Ry/bohr**3)                   (kbar)     P= 7095.17
   0.04823200   0.00000000  -0.00000000       7095.17      0.00     -0.00
   0.00000000   0.04823200   0.00000000          0.00   7095.17      0.00
  -0.00000000   0.00000000   0.04823200         -0.00      0.00   7095.17


     Writing output data file Fr.save/

     init_run     :      0.47s CPU      0.48s WALL (       1 calls)
     electrons    :      4.80s CPU      5.01s WALL (       1 calls)
     forces       :      0.05s CPU      0.05s WALL (       1 calls)
     stress       :      0.19s CPU      0.19s WALL (       1 calls)

     Called by init_run:
     wfcinit      :      0.25s CPU      0.25s WALL (       1 calls)
     potinit      :      0.01s CPU      0.01s WALL (       1 calls)
     hinit0       :      0.20s CPU      0.20s WALL (       1 calls)

     Called by electrons:
     c_bands      :      4.12s CPU      4.30s WALL (       6 calls)
     sum_band     :      0.63s CPU      0.66s WALL (       6 calls)
     v_of_rho     :      0.01s CPU      0.01s WALL (       6 calls)
     newd         :      0.05s CPU      0.06s WALL (       6 calls)
     mix_rho      :      0.00s CPU      0.00s WALL (       6 calls)

     Called by c_bands:
     init_us_2    :      0.09s CPU      0.10s WALL (     705 calls)
     cegterg      :      3.99s CPU      4.16s WALL (     282 calls)

     Called by sum_band:
     sum_band:bec :      0.00s CPU      0.00s WALL (     282 calls)
     addusdens    :      0.05s CPU      0.05s WALL (       6 calls)

     Called by *egterg:
     h_psi        :      3.03s CPU      3.16s WALL (    1049 calls)
     s_psi        :      0.09s CPU      0.09s WALL (    1049 calls)
     g_psi        :      0.01s CPU      0.01s WALL (     720 calls)
     cdiaghg      :      0.49s CPU      0.50s WALL (     955 calls)

     Called by h_psi:
     h_psi:pot    :      3.01s CPU      3.15s WALL (    1049 calls)
     h_psi:calbec :      0.14s CPU      0.15s WALL (    1049 calls)
     vloc_psi     :      2.77s CPU      2.90s WALL (    1049 calls)
     add_vuspsi   :      0.09s CPU      0.10s WALL (    1049 calls)

     General routines
     calbec       :      0.21s CPU      0.21s WALL (    1566 calls)
     fft          :      0.01s CPU      0.01s WALL (      34 calls)
     ffts         :      0.00s CPU      0.00s WALL (       6 calls)
     fftw         :      3.04s CPU      3.18s WALL (   25258 calls)

     Parallel routines
     fft_scatt_xy :      0.25s CPU      0.27s WALL (   25298 calls)
     fft_scatt_yz :      0.82s CPU      0.85s WALL (   25298 calls)

     PWSCF        :     6.47s CPU         6.77s WALL


   This run was terminated on:  22:56:15   7Apr2024            

=------------------------------------------------------------------------------=
   JOB DONE.
=------------------------------------------------------------------------------=
