
     Program PWSCF v.6.3MaX starts on  7Apr2024 at 22:22:19 

     This program is part of the open-source Quantum ESPRESSO suite
     for quantum simulation of materials; please cite
         "P. Giannozzi et al., J. Phys.:Condens. Matter 21 395502 (2009);
         "P. Giannozzi et al., J. Phys.:Condens. Matter 29 465901 (2017);
          URL http://www.quantum-espresso.org", 
     in publications or presentations arising from this work. More details at
     http://www.quantum-espresso.org/quote

     Parallel version (MPI), running on     5 processors

     MPI processes distributed on     1 nodes
     R & G space division:  proc/nbgrp/npool/nimage =       5
     Waiting for input...
     Reading input from standard input

     Current dimensions of program PWSCF are:
     Max number of different atomic species (ntypx) = 10
     Max number of k-points (npk) =  40000
     Max angular momentum in pseudopotentials (lmaxx) =  3
               file Fr.pz-spdn-kjpaw_psl.1.0.0.UPF: wavefunction(s)  6P renormalized

     Subspace diagonalization in iterative solution of the eigenvalue problem:
     a serial algorithm will be used


     Parallelization info
     --------------------
     sticks:   dense  smooth     PW     G-vecs:    dense   smooth      PW
     Min          18      18      7                  121      121      33
     Max          19      19      8                  123      123      35
     Sum          91      91     37                  609      609     169



     bravais-lattice index     =            2
     lattice parameter (alat)  =       6.8300  a.u.
     unit-cell volume          =      79.6530 (a.u.)^3
     number of atoms/cell      =            1
     number of atomic types    =            1
     number of electrons       =        19.00
     number of Kohn-Sham states=           14
     kinetic-energy cutoff     =      15.0000  Ry
     charge density cutoff     =      60.0000  Ry
     convergence threshold     =      1.0E-08
     mixing beta               =       0.7000
     number of iterations used =            8  plain     mixing
     Exchange-correlation      = SLA PZ NOGX NOGC ( 1  1  0  0 0 0)

     celldm(1)=   6.830000  celldm(2)=   0.000000  celldm(3)=   0.000000
     celldm(4)=   0.000000  celldm(5)=   0.000000  celldm(6)=   0.000000

     crystal axes: (cart. coord. in units of alat)
               a(1) = (  -0.500000   0.000000   0.500000 )  
               a(2) = (   0.000000   0.500000   0.500000 )  
               a(3) = (  -0.500000   0.500000   0.000000 )  

     reciprocal axes: (cart. coord. in units 2 pi/alat)
               b(1) = ( -1.000000 -1.000000  1.000000 )  
               b(2) = (  1.000000  1.000000  1.000000 )  
               b(3) = ( -1.000000  1.000000 -1.000000 )  


     PseudoPot. # 1 for Fr read from file:
     /home/lorenzo/pseudos/Fr/Fr.pz-spdn-kjpaw_psl.1.0.0.UPF
     MD5 check sum: 60dafd115682613df3cc92ec23a62a32
     Pseudo is Projector augmented-wave + core cor, Zval = 19.0
     Generated using "atomic" code by A. Dal Corso v.6.2.2
     Shape of augmentation charge: PSQ
     Using radial grid of 1287 points,  6 beta functions with: 
                l(1) =   0
                l(2) =   0
                l(3) =   1
                l(4) =   1
                l(5) =   2
                l(6) =   2
     Q(r) pseudized with 0 coefficients 


     atomic species   valence    mass     pseudopotential
        Fr            19.00   223.00000     Fr( 1.00)

     48 Sym. Ops., with inversion, found



   Cartesian axes

     site n.     atom                  positions (alat units)
         1           Fr  tau(   1) = (   0.0000000   0.0000000   0.0000000  )

     number of k points=    20  gaussian smearing, width (Ry)=  0.0100
                       cart. coord. in units 2pi/alat
        k(    1) = (   0.0000000   0.0000000   0.0000000), wk =   0.0058309
        k(    2) = (  -0.1428571   0.1428571  -0.1428571), wk =   0.0466472
        k(    3) = (  -0.2857143   0.2857143  -0.2857143), wk =   0.0466472
        k(    4) = (  -0.4285714   0.4285714  -0.4285714), wk =   0.0466472
        k(    5) = (   0.0000000   0.2857143   0.0000000), wk =   0.0349854
        k(    6) = (  -0.1428571   0.4285714  -0.1428571), wk =   0.1399417
        k(    7) = (  -0.2857143   0.5714286  -0.2857143), wk =   0.1399417
        k(    8) = (   0.5714286  -0.2857143   0.5714286), wk =   0.1399417
        k(    9) = (   0.4285714  -0.1428571   0.4285714), wk =   0.1399417
        k(   10) = (   0.2857143  -0.0000000   0.2857143), wk =   0.0699708
        k(   11) = (   0.0000000   0.5714286   0.0000000), wk =   0.0349854
        k(   12) = (  -0.1428571   0.7142857  -0.1428571), wk =   0.1399417
        k(   13) = (   0.7142857  -0.1428571   0.7142857), wk =   0.1399417
        k(   14) = (   0.5714286   0.0000000   0.5714286), wk =   0.0699708
        k(   15) = (   0.0000000   0.8571429   0.0000000), wk =   0.0349854
        k(   16) = (   0.8571429  -0.0000000   0.8571429), wk =   0.0699708
        k(   17) = (  -0.2857143   0.5714286   0.0000000), wk =   0.1399417
        k(   18) = (   0.5714286  -0.2857143   0.8571429), wk =   0.2798834
        k(   19) = (   0.7142857  -0.1428571   1.0000000), wk =   0.1399417
        k(   20) = (   0.5714286   0.0000000   0.8571429), wk =   0.1399417

     Dense  grid:      609 G-vectors     FFT dimensions: (  12,  12,  12)

     Estimated max dynamical RAM per process >       1.21 MB

     Estimated total dynamical RAM >       6.04 MB

     Check: negative/imaginary core charge=   -0.000424    0.000000

     Initial potential from superposition of free atoms

     starting charge   18.97647, renormalised to   19.00000
     Starting wfcs are   10 randomized atomic wfcs +    4 random wfcs
     Checking if some PAW data can be deallocated... 

     total cpu time spent up to now is        1.2 secs

     Self-consistent Calculation

     iteration #  1     ecut=    15.00 Ry     beta= 0.70
     Davidson diagonalization with overlap
     ethr =  1.00E-02,  avg # of iterations =  4.2

     total cpu time spent up to now is        1.4 secs

     total energy              =   -1023.29168772 Ry
     Harris-Foulkes estimate   =   -1028.89008902 Ry
     estimated scf accuracy    <       6.54749734 Ry

     iteration #  2     ecut=    15.00 Ry     beta= 0.70
     Davidson diagonalization with overlap
     ethr =  1.00E-02,  avg # of iterations =  2.8

     total cpu time spent up to now is        1.6 secs

     total energy              =   -1024.49116746 Ry
     Harris-Foulkes estimate   =   -1024.68044440 Ry
     estimated scf accuracy    <       0.50039393 Ry

     iteration #  3     ecut=    15.00 Ry     beta= 0.70
     Davidson diagonalization with overlap
     ethr =  2.63E-03,  avg # of iterations =  2.0

     total cpu time spent up to now is        1.7 secs

     total energy              =   -1024.51524759 Ry
     Harris-Foulkes estimate   =   -1024.53209030 Ry
     estimated scf accuracy    <       0.02848279 Ry

     iteration #  4     ecut=    15.00 Ry     beta= 0.70
     Davidson diagonalization with overlap
     ethr =  1.50E-04,  avg # of iterations =  2.4

     total cpu time spent up to now is        1.8 secs

     total energy              =   -1024.51713621 Ry
     Harris-Foulkes estimate   =   -1024.51750798 Ry
     estimated scf accuracy    <       0.00081975 Ry

     iteration #  5     ecut=    15.00 Ry     beta= 0.70
     Davidson diagonalization with overlap
     ethr =  4.31E-06,  avg # of iterations =  2.6

     total cpu time spent up to now is        1.9 secs

     total energy              =   -1024.51724298 Ry
     Harris-Foulkes estimate   =   -1024.51724476 Ry
     estimated scf accuracy    <       0.00000976 Ry

     iteration #  6     ecut=    15.00 Ry     beta= 0.70
     Davidson diagonalization with overlap
     ethr =  5.14E-08,  avg # of iterations =  2.0

     total cpu time spent up to now is        2.1 secs

     total energy              =   -1024.51724381 Ry
     Harris-Foulkes estimate   =   -1024.51724379 Ry
     estimated scf accuracy    <       0.00000035 Ry

     iteration #  7     ecut=    15.00 Ry     beta= 0.70
     Davidson diagonalization with overlap
     ethr =  1.84E-09,  avg # of iterations =  1.8

     total cpu time spent up to now is        2.2 secs

     End of self-consistent calculation

          k = 0.0000 0.0000 0.0000 (    65 PWs)   bands (ev):

     6.0493   6.0493   6.5104   9.3645   9.3645   9.3645  43.1268  43.1268
    43.1268  50.4136  53.9876  59.7755  59.7755  59.7755

          k =-0.1429 0.1429-0.1429 (    71 PWs)   bands (ev):

     4.3378   4.3378   5.4483   7.4513   7.6165   7.6165  38.2336  42.6229
    42.6229  51.0659  56.4061  57.4160  59.8005  59.8005

          k =-0.2857 0.2857-0.2857 (    74 PWs)   bands (ev):

     1.1802   1.1802   3.8625   7.4651   7.4651   9.9407  30.4113  41.1444
    41.1444  51.2850  54.7523  60.9490  61.3590  61.3590

          k =-0.4286 0.4286-0.4286 (    77 PWs)   bands (ev):

    -0.1906  -0.1906   0.4335   6.9894   6.9894  13.0217  24.0434  39.8579
    39.8579  50.3907  53.6006  63.5364  63.5364  66.0665

          k = 0.0000 0.2857 0.0000 (    72 PWs)   bands (ev):

     3.9521   4.1061   4.1061   7.2838   7.8763   8.1618  38.9534  41.0096
    41.0096  51.5071  54.9347  59.3385  60.9612  60.9612

          k =-0.1429 0.4286-0.1429 (    77 PWs)   bands (ev):

    -0.7442   1.9401   3.3739   3.5533   7.6497   9.3986  32.7013  39.1580
    39.8475  52.0260  54.2525  59.7011  62.0453  63.2545

          k =-0.2857 0.5714-0.2857 (    79 PWs)   bands (ev):

    -0.3330   0.8156   1.7449   3.8448   5.4079  12.2597  26.2734  37.6877
    38.2972  50.7324  57.2053  59.3908  63.0749  65.0731

          k = 0.5714-0.2857 0.5714 (    79 PWs)   bands (ev):

    -0.1221   0.4493   2.0792   3.0226   6.0046  13.8845  23.9687  36.0963
    38.9609  50.5994  57.2721  62.9920  63.2098  65.6030

          k = 0.4286-0.1429 0.4286 (    79 PWs)   bands (ev):

    -0.6179   1.1818   2.2139   3.3956   5.1989  11.3721  28.2877  36.2385
    40.9607  51.5798  55.7054  60.0221  61.9834  63.5716

          k = 0.2857-0.0000 0.2857 (    71 PWs)   bands (ev):

     2.7485   4.0435   6.5134   7.0554   8.7970   9.1224  34.4958  38.7740
    42.7725  52.9205  54.1781  58.4060  60.7378  62.5767

          k = 0.0000 0.5714 0.0000 (    76 PWs)   bands (ev):

     1.4975   1.4975   3.4204   3.9248   7.4017  10.5570  31.9936  36.8444
    36.8444  50.4757  54.0573  64.8280  64.8280  66.4419

          k =-0.1429 0.7143-0.1429 (    80 PWs)   bands (ev):

    -1.0100  -0.5456   2.3189   2.4015   6.0640  12.8358  27.8370  34.3227
    35.7245  50.1928  55.9490  63.2710  64.9243  69.0482

          k = 0.7143-0.1429 0.7143 (    78 PWs)   bands (ev):

     1.4969   1.5478   2.6043   3.7073   6.3994  14.7153  26.0611  31.1490
    36.4360  51.2616  59.0763  63.0125  63.6453  66.2343

          k = 0.5714 0.0000 0.5714 (    79 PWs)   bands (ev):

     0.5377   1.4596   2.5396   2.6528   6.1263  13.4926  27.7739  30.5939
    38.7055  51.4808  59.4735  59.9816  62.9776  65.0108

          k = 0.0000 0.8571 0.0000 (    80 PWs)   bands (ev):

    -2.3708   0.9749   0.9749   2.9811   7.3309  14.4720  25.5563  34.0925
    34.0925  49.1492  56.4873  65.9780  69.7376  69.7376

          k = 0.8571-0.0000 0.8571 (    77 PWs)   bands (ev):

    -0.1491   2.4532   4.3339   5.2882   6.5487  15.5628  25.0154  32.0759
    34.3822  51.0170  56.7980  65.0366  67.5495  68.2631

          k =-0.2857 0.5714 0.0000 (    78 PWs)   bands (ev):

     0.5487   1.5066   3.0360   4.1694   5.3218  11.3695  29.6281  34.6752
    38.7326  51.9791  55.5205  59.5127  64.7857  65.9757

          k = 0.5714-0.2857 0.8571 (    79 PWs)   bands (ev):

     0.2824   1.3770   3.1021   3.6311   5.2209  13.8001  26.2543  32.6701
    36.9557  51.8590  58.7358  59.6808  64.1176  66.0791

          k = 0.7143-0.1429 1.0000 (    82 PWs)   bands (ev):

    -1.3747  -1.0546   0.4525   3.2820   4.6609  14.6355  26.3373  32.0082
    33.9710  51.4628  56.6736  61.4119  64.7202  70.1390

          k = 0.5714 0.0000 0.8571 (    80 PWs)   bands (ev):

    -0.2265   1.1692   2.4698   2.8596   5.7138  14.9878  27.8691  28.8295
    34.4975  52.9614  58.7944  60.3800  61.4434  67.8827

     the Fermi energy is    51.4856 ev

!    total energy              =   -1024.51724383 Ry
     Harris-Foulkes estimate   =   -1024.51724383 Ry
     estimated scf accuracy    <          1.4E-10 Ry

     total all-electron energy =    -48469.970217 Ry

     The total energy is the sum of the following terms:

     one-electron contribution =      27.39475050 Ry
     hartree contribution      =      17.51124778 Ry
     xc contribution           =     -60.67840149 Ry
     ewald contribution        =    -242.33312978 Ry
     one-center paw contrib.   =    -766.41074751 Ry
     smearing contrib. (-TS)   =      -0.00096335 Ry

     convergence has been achieved in   7 iterations

     Forces acting on atoms (cartesian axes, Ry/au):

     atom    1 type  1   force =     0.00000000    0.00000000    0.00000000

     Total force =     0.000000     Total SCF correction =     0.000000


     Computing stress (Cartesian axis) and pressure

          total   stress  (Ry/bohr**3)                   (kbar)     P=********
  -0.30950575   0.00000000   0.00000000     -45529.86      0.00      0.00
   0.00000000  -0.30950575  -0.00000000          0.00 -45529.86     -0.00
   0.00000000  -0.00000000  -0.30950575          0.00     -0.00 -45529.86


     Writing output data file Fr.save/

     init_run     :      0.15s CPU      0.15s WALL (       1 calls)
     electrons    :      0.87s CPU      0.97s WALL (       1 calls)
     forces       :      0.01s CPU      0.01s WALL (       1 calls)
     stress       :      0.02s CPU      0.02s WALL (       1 calls)

     Called by init_run:
     wfcinit      :      0.02s CPU      0.02s WALL (       1 calls)
     potinit      :      0.04s CPU      0.05s WALL (       1 calls)
     hinit0       :      0.08s CPU      0.08s WALL (       1 calls)

     Called by electrons:
     c_bands      :      0.48s CPU      0.55s WALL (       7 calls)
     sum_band     :      0.05s CPU      0.06s WALL (       7 calls)
     v_of_rho     :      0.00s CPU      0.00s WALL (       8 calls)
     newd         :      0.01s CPU      0.01s WALL (       8 calls)
     PAW_pot      :      0.37s CPU      0.37s WALL (       8 calls)
     mix_rho      :      0.00s CPU      0.00s WALL (       7 calls)

     Called by c_bands:
     init_us_2    :      0.01s CPU      0.01s WALL (     340 calls)
     cegterg      :      0.47s CPU      0.54s WALL (     140 calls)

     Called by sum_band:
     sum_band:bec :      0.00s CPU      0.00s WALL (     140 calls)
     addusdens    :      0.00s CPU      0.00s WALL (       7 calls)

     Called by *egterg:
     h_psi        :      0.22s CPU      0.26s WALL (     514 calls)
     s_psi        :      0.01s CPU      0.01s WALL (     514 calls)
     g_psi        :      0.00s CPU      0.00s WALL (     354 calls)
     cdiaghg      :      0.20s CPU      0.22s WALL (     494 calls)

     Called by h_psi:
     h_psi:pot    :      0.22s CPU      0.25s WALL (     514 calls)
     h_psi:calbec :      0.01s CPU      0.01s WALL (     514 calls)
     vloc_psi     :      0.20s CPU      0.23s WALL (     514 calls)
     add_vuspsi   :      0.01s CPU      0.01s WALL (     514 calls)

     General routines
     calbec       :      0.02s CPU      0.02s WALL (     754 calls)
     fft          :      0.00s CPU      0.00s WALL (      41 calls)
     ffts         :      0.00s CPU      0.00s WALL (       7 calls)
     fftw         :      0.21s CPU      0.24s WALL (   12302 calls)

     Parallel routines
     fft_scatt_xy :      0.02s CPU      0.03s WALL (   12350 calls)
     fft_scatt_yz :      0.10s CPU      0.11s WALL (   12350 calls)

     PWSCF        :     2.12s CPU         2.30s WALL


   This run was terminated on:  22:22:21   7Apr2024            

=------------------------------------------------------------------------------=
   JOB DONE.
=------------------------------------------------------------------------------=
