
     Program PWSCF v.6.3MaX starts on  7Apr2024 at 22:33:56 

     This program is part of the open-source Quantum ESPRESSO suite
     for quantum simulation of materials; please cite
         "P. Giannozzi et al., J. Phys.:Condens. Matter 21 395502 (2009);
         "P. Giannozzi et al., J. Phys.:Condens. Matter 29 465901 (2017);
          URL http://www.quantum-espresso.org", 
     in publications or presentations arising from this work. More details at
     http://www.quantum-espresso.org/quote

     Parallel version (MPI), running on     5 processors

     MPI processes distributed on     1 nodes
     R & G space division:  proc/nbgrp/npool/nimage =       5
     Waiting for input...
     Reading input from standard input

     Current dimensions of program PWSCF are:
     Max number of different atomic species (ntypx) = 10
     Max number of k-points (npk) =  40000
     Max angular momentum in pseudopotentials (lmaxx) =  3
               file Fr.pbe-spdn-kjpaw_psl.1.0.0.UPF: wavefunction(s)  6P renormalized

     Subspace diagonalization in iterative solution of the eigenvalue problem:
     a serial algorithm will be used


     Parallelization info
     --------------------
     sticks:   dense  smooth     PW     G-vecs:    dense   smooth      PW
     Min          59      59     14                  657      657      82
     Max          59      59     15                  658      658      83
     Sum         295     295     73                 3287     3287     411



     bravais-lattice index     =            2
     lattice parameter (alat)  =       6.8300  a.u.
     unit-cell volume          =      79.6530 (a.u.)^3
     number of atoms/cell      =            1
     number of atomic types    =            1
     number of electrons       =        19.00
     number of Kohn-Sham states=           14
     kinetic-energy cutoff     =      45.0000  Ry
     charge density cutoff     =     180.0000  Ry
     convergence threshold     =      1.0E-08
     mixing beta               =       0.7000
     number of iterations used =            8  plain     mixing
     Exchange-correlation      = SLA PW PBX PBC ( 1  4  3  4 0 0)

     celldm(1)=   6.830000  celldm(2)=   0.000000  celldm(3)=   0.000000
     celldm(4)=   0.000000  celldm(5)=   0.000000  celldm(6)=   0.000000

     crystal axes: (cart. coord. in units of alat)
               a(1) = (  -0.500000   0.000000   0.500000 )  
               a(2) = (   0.000000   0.500000   0.500000 )  
               a(3) = (  -0.500000   0.500000   0.000000 )  

     reciprocal axes: (cart. coord. in units 2 pi/alat)
               b(1) = ( -1.000000 -1.000000  1.000000 )  
               b(2) = (  1.000000  1.000000  1.000000 )  
               b(3) = ( -1.000000  1.000000 -1.000000 )  


     PseudoPot. # 1 for Fr read from file:
     /home/lorenzo/pseudos/Fr/Fr.pbe-spdn-kjpaw_psl.1.0.0.UPF
     MD5 check sum: 362a188b966a64328b94f1ef5f32e8c4
     Pseudo is Projector augmented-wave + core cor, Zval = 19.0
     Generated using "atomic" code by A. Dal Corso v.6.2.2
     Shape of augmentation charge: PSQ
     Using radial grid of 1287 points,  6 beta functions with: 
                l(1) =   0
                l(2) =   0
                l(3) =   1
                l(4) =   1
                l(5) =   2
                l(6) =   2
     Q(r) pseudized with 0 coefficients 


     atomic species   valence    mass     pseudopotential
        Fr            19.00   223.00000     Fr( 1.00)

     48 Sym. Ops., with inversion, found



   Cartesian axes

     site n.     atom                  positions (alat units)
         1           Fr  tau(   1) = (   0.0000000   0.0000000   0.0000000  )

     number of k points=     1  gaussian smearing, width (Ry)=  0.0100
                       cart. coord. in units 2pi/alat
        k(    1) = (   0.0000000   0.0000000   0.0000000), wk =   2.0000000

     Dense  grid:     3287 G-vectors     FFT dimensions: (  24,  24,  24)

     Estimated max dynamical RAM per process >       3.70 MB

     Estimated total dynamical RAM >      18.48 MB

     Check: negative/imaginary core charge=   -0.000013    0.000000

     Initial potential from superposition of free atoms

     starting charge   18.97009, renormalised to   19.00000
     Starting wfcs are   10 randomized atomic wfcs +    4 random wfcs
     Checking if some PAW data can be deallocated... 

     total cpu time spent up to now is        1.2 secs

     Self-consistent Calculation

     iteration #  1     ecut=    45.00 Ry     beta= 0.70
     Davidson diagonalization with overlap
     ethr =  1.00E-02,  avg # of iterations =  5.0

     Threshold (ethr) on eigenvalues was too large:
     Diagonalizing with lowered threshold

     Davidson diagonalization with overlap
     ethr =  8.83E-04,  avg # of iterations =  1.0

     total cpu time spent up to now is        1.4 secs

     total energy              =   -1065.42991805 Ry
     Harris-Foulkes estimate   =   -1065.42918960 Ry
     estimated scf accuracy    <       0.16930571 Ry

     iteration #  2     ecut=    45.00 Ry     beta= 0.70
     Davidson diagonalization with overlap
     ethr =  8.91E-04,  avg # of iterations =  1.0

     total cpu time spent up to now is        1.5 secs

     total energy              =   -1065.44508817 Ry
     Harris-Foulkes estimate   =   -1065.43714302 Ry
     estimated scf accuracy    <       0.01033596 Ry

     iteration #  3     ecut=    45.00 Ry     beta= 0.70
     Davidson diagonalization with overlap
     ethr =  5.44E-05,  avg # of iterations =  3.0

     total cpu time spent up to now is        1.7 secs

     total energy              =   -1065.44662641 Ry
     Harris-Foulkes estimate   =   -1065.44702980 Ry
     estimated scf accuracy    <       0.00218698 Ry

     iteration #  4     ecut=    45.00 Ry     beta= 0.70
     Davidson diagonalization with overlap
     ethr =  1.15E-05,  avg # of iterations =  2.0

     total cpu time spent up to now is        1.8 secs

     total energy              =   -1065.44752887 Ry
     Harris-Foulkes estimate   =   -1065.44886397 Ry
     estimated scf accuracy    <       0.00823451 Ry

     iteration #  5     ecut=    45.00 Ry     beta= 0.70
     Davidson diagonalization with overlap
     ethr =  1.15E-05,  avg # of iterations =  1.0

     total cpu time spent up to now is        1.9 secs

     total energy              =   -1065.44699120 Ry
     Harris-Foulkes estimate   =   -1065.44770448 Ry
     estimated scf accuracy    <       0.00235330 Ry

     iteration #  6     ecut=    45.00 Ry     beta= 0.70
     Davidson diagonalization with overlap
     ethr =  1.15E-05,  avg # of iterations =  1.0

     total cpu time spent up to now is        2.1 secs

     total energy              =   -1065.44712012 Ry
     Harris-Foulkes estimate   =   -1065.44774909 Ry
     estimated scf accuracy    <       0.00433904 Ry

     iteration #  7     ecut=    45.00 Ry     beta= 0.70
     Davidson diagonalization with overlap
     ethr =  1.15E-05,  avg # of iterations =  1.0

     total cpu time spent up to now is        2.2 secs

     total energy              =   -1065.44744588 Ry
     Harris-Foulkes estimate   =   -1065.44744687 Ry
     estimated scf accuracy    <       0.00002790 Ry

     iteration #  8     ecut=    45.00 Ry     beta= 0.70
     Davidson diagonalization with overlap
     ethr =  1.47E-07,  avg # of iterations =  1.0

     total cpu time spent up to now is        2.3 secs

     total energy              =   -1065.44744417 Ry
     Harris-Foulkes estimate   =   -1065.44744636 Ry
     estimated scf accuracy    <       0.00001604 Ry

     iteration #  9     ecut=    45.00 Ry     beta= 0.70
     Davidson diagonalization with overlap
     ethr =  8.44E-08,  avg # of iterations =  1.0

     total cpu time spent up to now is        2.5 secs

     total energy              =   -1065.44744509 Ry
     Harris-Foulkes estimate   =   -1065.44744510 Ry
     estimated scf accuracy    <       0.00000010 Ry

     iteration # 10     ecut=    45.00 Ry     beta= 0.70
     Davidson diagonalization with overlap
     ethr =  5.01E-10,  avg # of iterations =  2.0

     total cpu time spent up to now is        2.6 secs

     total energy              =   -1065.44744504 Ry
     Harris-Foulkes estimate   =   -1065.44744521 Ry
     estimated scf accuracy    <       0.00000116 Ry

     iteration # 11     ecut=    45.00 Ry     beta= 0.70
     Davidson diagonalization with overlap
     ethr =  5.01E-10,  avg # of iterations =  1.0

     total cpu time spent up to now is        2.7 secs

     total energy              =   -1065.44744511 Ry
     Harris-Foulkes estimate   =   -1065.44744511 Ry
     estimated scf accuracy    <       0.00000001 Ry

     iteration # 12     ecut=    45.00 Ry     beta= 0.70
     Davidson diagonalization with overlap
     ethr =  6.95E-11,  avg # of iterations =  1.0

     total cpu time spent up to now is        2.9 secs

     total energy              =   -1065.44744510 Ry
     Harris-Foulkes estimate   =   -1065.44744512 Ry
     estimated scf accuracy    <       0.00000010 Ry

     iteration # 13     ecut=    45.00 Ry     beta= 0.70
     Davidson diagonalization with overlap
     ethr =  6.95E-11,  avg # of iterations =  2.0

     total cpu time spent up to now is        3.0 secs

     End of self-consistent calculation

          k = 0.0000 0.0000 0.0000 (   411 PWs)   bands (ev):

    -8.5349  -8.5349  -8.5349  -7.8109  -7.8109   9.7606  47.5513  47.5513
    47.5513  47.7233  54.5281  54.5281  54.5281  58.9464

     the Fermi energy is    47.7410 ev

!    total energy              =   -1065.44744511 Ry
     Harris-Foulkes estimate   =   -1065.44744511 Ry
     estimated scf accuracy    <          4.6E-09 Ry

     total all-electron energy =    -48511.057756 Ry

     The total energy is the sum of the following terms:

     one-electron contribution =       5.36613478 Ry
     hartree contribution      =      29.34035834 Ry
     xc contribution           =     -64.88783082 Ry
     ewald contribution        =    -242.33311996 Ry
     one-center paw contrib.   =    -792.92501971 Ry
     smearing contrib. (-TS)   =      -0.00796772 Ry

     convergence has been achieved in  13 iterations

     Forces acting on atoms (cartesian axes, Ry/au):

     atom    1 type  1   force =     0.00000000    0.00000000    0.00000000

     Total force =     0.000000     Total SCF correction =     0.000000


     Computing stress (Cartesian axis) and pressure

          total   stress  (Ry/bohr**3)                   (kbar)     P=13351.88
   0.09076424   0.00000000   0.00000000      13351.88      0.00      0.00
  -0.00000000   0.09076424  -0.00000000         -0.00  13351.88     -0.00
   0.00000000  -0.00000000   0.09076424          0.00     -0.00  13351.88


     Writing output data file Fr.save/

     init_run     :      0.25s CPU      0.27s WALL (       1 calls)
     electrons    :      1.61s CPU      1.81s WALL (       1 calls)
     forces       :      0.02s CPU      0.02s WALL (       1 calls)
     stress       :      0.05s CPU      0.05s WALL (       1 calls)

     Called by init_run:
     wfcinit      :      0.00s CPU      0.00s WALL (       1 calls)
     potinit      :      0.11s CPU      0.12s WALL (       1 calls)
     hinit0       :      0.12s CPU      0.13s WALL (       1 calls)

     Called by electrons:
     c_bands      :      0.09s CPU      0.10s WALL (      14 calls)
     sum_band     :      0.08s CPU      0.08s WALL (      14 calls)
     v_of_rho     :      0.04s CPU      0.05s WALL (      14 calls)
     newd         :      0.05s CPU      0.05s WALL (      14 calls)
     PAW_pot      :      1.43s CPU      1.63s WALL (      14 calls)
     mix_rho      :      0.01s CPU      0.01s WALL (      14 calls)

     Called by c_bands:
     init_us_2    :      0.00s CPU      0.00s WALL (      29 calls)
     cegterg      :      0.09s CPU      0.10s WALL (      14 calls)

     Called by sum_band:
     sum_band:bec :      0.00s CPU      0.00s WALL (      14 calls)
     addusdens    :      0.05s CPU      0.05s WALL (      14 calls)

     Called by *egterg:
     h_psi        :      0.07s CPU      0.07s WALL (      38 calls)
     s_psi        :      0.00s CPU      0.00s WALL (      38 calls)
     g_psi        :      0.00s CPU      0.00s WALL (      23 calls)
     cdiaghg      :      0.01s CPU      0.02s WALL (      36 calls)

     Called by h_psi:
     h_psi:pot    :      0.07s CPU      0.07s WALL (      38 calls)
     h_psi:calbec :      0.00s CPU      0.00s WALL (      38 calls)
     vloc_psi     :      0.06s CPU      0.07s WALL (      38 calls)
     add_vuspsi   :      0.00s CPU      0.00s WALL (      38 calls)

     General routines
     calbec       :      0.00s CPU      0.00s WALL (      57 calls)
     fft          :      0.02s CPU      0.02s WALL (     181 calls)
     ffts         :      0.00s CPU      0.00s WALL (      14 calls)
     fftw         :      0.07s CPU      0.08s WALL (    1080 calls)

     Parallel routines
     fft_scatt_xy :      0.01s CPU      0.01s WALL (    1275 calls)
     fft_scatt_yz :      0.03s CPU      0.04s WALL (    1275 calls)

     PWSCF        :     2.85s CPU         3.11s WALL


   This run was terminated on:  22:33:59   7Apr2024            

=------------------------------------------------------------------------------=
   JOB DONE.
=------------------------------------------------------------------------------=
