
     Program PWSCF v.6.3MaX starts on  7Apr2024 at 22:39: 8 

     This program is part of the open-source Quantum ESPRESSO suite
     for quantum simulation of materials; please cite
         "P. Giannozzi et al., J. Phys.:Condens. Matter 21 395502 (2009);
         "P. Giannozzi et al., J. Phys.:Condens. Matter 29 465901 (2017);
          URL http://www.quantum-espresso.org", 
     in publications or presentations arising from this work. More details at
     http://www.quantum-espresso.org/quote

     Parallel version (MPI), running on     5 processors

     MPI processes distributed on     1 nodes
     R & G space division:  proc/nbgrp/npool/nimage =       5
     Waiting for input...
     Reading input from standard input

     Current dimensions of program PWSCF are:
     Max number of different atomic species (ntypx) = 10
     Max number of k-points (npk) =  40000
     Max angular momentum in pseudopotentials (lmaxx) =  3
               file Fr.pbe-spdn-kjpaw_psl.1.0.0.UPF: wavefunction(s)  6P renormalized

     Subspace diagonalization in iterative solution of the eigenvalue problem:
     a serial algorithm will be used


     Parallelization info
     --------------------
     sticks:   dense  smooth     PW     G-vecs:    dense   smooth      PW
     Min          72      72     21                  876      876     148
     Max          73      73     22                  877      877     151
     Sum         361     361    109                 4381     4381     749



     bravais-lattice index     =            2
     lattice parameter (alat)  =       6.8300  a.u.
     unit-cell volume          =      79.6530 (a.u.)^3
     number of atoms/cell      =            1
     number of atomic types    =            1
     number of electrons       =        19.00
     number of Kohn-Sham states=           14
     kinetic-energy cutoff     =      55.0000  Ry
     charge density cutoff     =     220.0000  Ry
     convergence threshold     =      1.0E-08
     mixing beta               =       0.7000
     number of iterations used =            8  plain     mixing
     Exchange-correlation      = SLA PW PBX PBC ( 1  4  3  4 0 0)

     celldm(1)=   6.830000  celldm(2)=   0.000000  celldm(3)=   0.000000
     celldm(4)=   0.000000  celldm(5)=   0.000000  celldm(6)=   0.000000

     crystal axes: (cart. coord. in units of alat)
               a(1) = (  -0.500000   0.000000   0.500000 )  
               a(2) = (   0.000000   0.500000   0.500000 )  
               a(3) = (  -0.500000   0.500000   0.000000 )  

     reciprocal axes: (cart. coord. in units 2 pi/alat)
               b(1) = ( -1.000000 -1.000000  1.000000 )  
               b(2) = (  1.000000  1.000000  1.000000 )  
               b(3) = ( -1.000000  1.000000 -1.000000 )  


     PseudoPot. # 1 for Fr read from file:
     /home/lorenzo/pseudos/Fr/Fr.pbe-spdn-kjpaw_psl.1.0.0.UPF
     MD5 check sum: 362a188b966a64328b94f1ef5f32e8c4
     Pseudo is Projector augmented-wave + core cor, Zval = 19.0
     Generated using "atomic" code by A. Dal Corso v.6.2.2
     Shape of augmentation charge: PSQ
     Using radial grid of 1287 points,  6 beta functions with: 
                l(1) =   0
                l(2) =   0
                l(3) =   1
                l(4) =   1
                l(5) =   2
                l(6) =   2
     Q(r) pseudized with 0 coefficients 


     atomic species   valence    mass     pseudopotential
        Fr            19.00   223.00000     Fr( 1.00)

     48 Sym. Ops., with inversion, found



   Cartesian axes

     site n.     atom                  positions (alat units)
         1           Fr  tau(   1) = (   0.0000000   0.0000000   0.0000000  )

     number of k points=     4  gaussian smearing, width (Ry)=  0.0100
                       cart. coord. in units 2pi/alat
        k(    1) = (   0.0000000   0.0000000   0.0000000), wk =   0.0740741
        k(    2) = (  -0.3333333   0.3333333  -0.3333333), wk =   0.5925926
        k(    3) = (   0.0000000   0.6666667   0.0000000), wk =   0.4444444
        k(    4) = (   0.6666667  -0.0000000   0.6666667), wk =   0.8888889

     Dense  grid:     4381 G-vectors     FFT dimensions: (  24,  24,  24)

     Estimated max dynamical RAM per process >       4.69 MB

     Estimated total dynamical RAM >      23.47 MB

     Check: negative/imaginary core charge=   -0.000002    0.000000

     Initial potential from superposition of free atoms

     starting charge   18.97009, renormalised to   19.00000
     Starting wfcs are   10 randomized atomic wfcs +    4 random wfcs
     Checking if some PAW data can be deallocated... 

     total cpu time spent up to now is        1.3 secs

     Self-consistent Calculation

     iteration #  1     ecut=    55.00 Ry     beta= 0.70
     Davidson diagonalization with overlap
     ethr =  1.00E-02,  avg # of iterations =  4.2

     Threshold (ethr) on eigenvalues was too large:
     Diagonalizing with lowered threshold

     Davidson diagonalization with overlap
     ethr =  6.90E-05,  avg # of iterations =  2.2

     total cpu time spent up to now is        1.5 secs

     total energy              =   -1069.87425740 Ry
     Harris-Foulkes estimate   =   -1069.88251282 Ry
     estimated scf accuracy    <       0.01285918 Ry

     iteration #  2     ecut=    55.00 Ry     beta= 0.70
     Davidson diagonalization with overlap
     ethr =  6.77E-05,  avg # of iterations =  2.0

     total cpu time spent up to now is        1.7 secs

     total energy              =   -1069.87595299 Ry
     Harris-Foulkes estimate   =   -1069.87613880 Ry
     estimated scf accuracy    <       0.00043641 Ry

     iteration #  3     ecut=    55.00 Ry     beta= 0.70
     Davidson diagonalization with overlap
     ethr =  2.30E-06,  avg # of iterations =  2.5

     total cpu time spent up to now is        1.8 secs

     total energy              =   -1069.87598404 Ry
     Harris-Foulkes estimate   =   -1069.87598801 Ry
     estimated scf accuracy    <       0.00001912 Ry

     iteration #  4     ecut=    55.00 Ry     beta= 0.70
     Davidson diagonalization with overlap
     ethr =  1.01E-07,  avg # of iterations =  2.2

     total cpu time spent up to now is        2.0 secs

     total energy              =   -1069.87598810 Ry
     Harris-Foulkes estimate   =   -1069.87598780 Ry
     estimated scf accuracy    <       0.00000024 Ry

     iteration #  5     ecut=    55.00 Ry     beta= 0.70
     Davidson diagonalization with overlap
     ethr =  1.28E-09,  avg # of iterations =  2.0

     total cpu time spent up to now is        2.2 secs

     total energy              =   -1069.87598816 Ry
     Harris-Foulkes estimate   =   -1069.87598814 Ry
     estimated scf accuracy    <       0.00000002 Ry

     iteration #  6     ecut=    55.00 Ry     beta= 0.70
     Davidson diagonalization with overlap
     ethr =  8.88E-11,  avg # of iterations =  2.0

     total cpu time spent up to now is        2.4 secs

     End of self-consistent calculation

          k = 0.0000 0.0000 0.0000 (   537 PWs)   bands (ev):

    -9.1154  -9.1154  -9.1154  -8.7760  -8.7760   9.4975  47.3005  47.3005
    47.3005  48.3239  53.9088  53.9088  53.9088  57.7814

          k =-0.3333 0.3333-0.3333 (   555 PWs)   bands (ev):

    -9.1020  -9.0368  -9.0368  -8.5998  -8.5998  13.9206  29.2033  43.9014
    43.9014  48.1845  52.2016  52.7906  52.7906  61.5015

          k = 0.0000 0.6667 0.0000 (   556 PWs)   bands (ev):

    -9.3632  -9.0634  -8.6011  -8.6011  -8.5642  15.4200  33.0008  37.3875
    37.3875  43.8271  43.9099  64.6418  65.1617  65.1617

          k = 0.6667-0.0000 0.6667 (   544 PWs)   bands (ev):

    -9.1888  -8.8248  -8.7521  -8.6872  -8.5851  19.8636  28.3280  28.3504
    38.8937  44.5303  57.4575  59.0262  60.0342  62.6714

     the Fermi energy is    44.4996 ev

!    total energy              =   -1069.87598816 Ry
     Harris-Foulkes estimate   =   -1069.87598816 Ry
     estimated scf accuracy    <          6.6E-10 Ry

     total all-electron energy =    -48515.486299 Ry

     The total energy is the sum of the following terms:

     one-electron contribution =       1.51219600 Ry
     hartree contribution      =      28.28416654 Ry
     xc contribution           =     -64.60840669 Ry
     ewald contribution        =    -242.33311993 Ry
     one-center paw contrib.   =    -792.72844069 Ry
     smearing contrib. (-TS)   =      -0.00238339 Ry

     convergence has been achieved in   6 iterations

     Forces acting on atoms (cartesian axes, Ry/au):

     atom    1 type  1   force =     0.00000000    0.00000000    0.00000000

     Total force =     0.000000     Total SCF correction =     0.000000


     Computing stress (Cartesian axis) and pressure

          total   stress  (Ry/bohr**3)                   (kbar)     P= 7442.54
   0.05059336   0.00000000  -0.00000000       7442.54      0.00     -0.00
  -0.00000000   0.05059336  -0.00000000         -0.00   7442.54     -0.00
  -0.00000000  -0.00000000   0.05059336         -0.00     -0.00   7442.54


     Writing output data file Fr.save/

     init_run     :      0.35s CPU      0.37s WALL (       1 calls)
     electrons    :      0.97s CPU      1.09s WALL (       1 calls)
     forces       :      0.03s CPU      0.03s WALL (       1 calls)
     stress       :      0.07s CPU      0.07s WALL (       1 calls)

     Called by init_run:
     wfcinit      :      0.01s CPU      0.01s WALL (       1 calls)
     potinit      :      0.10s CPU      0.12s WALL (       1 calls)
     hinit0       :      0.20s CPU      0.21s WALL (       1 calls)

     Called by electrons:
     c_bands      :      0.23s CPU      0.25s WALL (       7 calls)
     sum_band     :      0.08s CPU      0.08s WALL (       7 calls)
     v_of_rho     :      0.02s CPU      0.02s WALL (       7 calls)
     newd         :      0.03s CPU      0.03s WALL (       7 calls)
     PAW_pot      :      0.71s CPU      0.81s WALL (       7 calls)
     mix_rho      :      0.00s CPU      0.00s WALL (       7 calls)

     Called by c_bands:
     init_us_2    :      0.01s CPU      0.01s WALL (      68 calls)
     cegterg      :      0.22s CPU      0.24s WALL (      28 calls)

     Called by sum_band:
     sum_band:bec :      0.00s CPU      0.00s WALL (      28 calls)
     addusdens    :      0.03s CPU      0.03s WALL (       7 calls)

     Called by *egterg:
     h_psi        :      0.15s CPU      0.17s WALL (     101 calls)
     s_psi        :      0.00s CPU      0.00s WALL (     101 calls)
     g_psi        :      0.00s CPU      0.00s WALL (      69 calls)
     cdiaghg      :      0.04s CPU      0.04s WALL (      93 calls)

     Called by h_psi:
     h_psi:pot    :      0.15s CPU      0.17s WALL (     101 calls)
     h_psi:calbec :      0.01s CPU      0.01s WALL (     101 calls)
     vloc_psi     :      0.14s CPU      0.15s WALL (     101 calls)
     add_vuspsi   :      0.00s CPU      0.00s WALL (     101 calls)

     General routines
     calbec       :      0.01s CPU      0.01s WALL (     149 calls)
     fft          :      0.02s CPU      0.02s WALL (     104 calls)
     ffts         :      0.00s CPU      0.00s WALL (       7 calls)
     fftw         :      0.16s CPU      0.17s WALL (    2450 calls)

     Parallel routines
     fft_scatt_xy :      0.02s CPU      0.02s WALL (    2561 calls)
     fft_scatt_yz :      0.06s CPU      0.07s WALL (    2561 calls)

     PWSCF        :     2.33s CPU         2.52s WALL


   This run was terminated on:  22:39:11   7Apr2024            

=------------------------------------------------------------------------------=
   JOB DONE.
=------------------------------------------------------------------------------=
