
     Program PWSCF v.6.3MaX starts on  7Apr2024 at 22:46: 2 

     This program is part of the open-source Quantum ESPRESSO suite
     for quantum simulation of materials; please cite
         "P. Giannozzi et al., J. Phys.:Condens. Matter 21 395502 (2009);
         "P. Giannozzi et al., J. Phys.:Condens. Matter 29 465901 (2017);
          URL http://www.quantum-espresso.org", 
     in publications or presentations arising from this work. More details at
     http://www.quantum-espresso.org/quote

     Parallel version (MPI), running on     5 processors

     MPI processes distributed on     1 nodes
     R & G space division:  proc/nbgrp/npool/nimage =       5
     Waiting for input...
     Reading input from standard input

     Current dimensions of program PWSCF are:
     Max number of different atomic species (ntypx) = 10
     Max number of k-points (npk) =  40000
     Max angular momentum in pseudopotentials (lmaxx) =  3
               file Fr.pz-spdn-kjpaw_psl.1.0.0.UPF: wavefunction(s)  6P renormalized

     Subspace diagonalization in iterative solution of the eigenvalue problem:
     a serial algorithm will be used


     Parallelization info
     --------------------
     sticks:   dense  smooth     PW     G-vecs:    dense   smooth      PW
     Min          84      84     27                 1134     1134     213
     Max          85      85     28                 1137     1137     214
     Sum         421     421    139                 5673     5673    1067



     bravais-lattice index     =            2
     lattice parameter (alat)  =       6.8300  a.u.
     unit-cell volume          =      79.6530 (a.u.)^3
     number of atoms/cell      =            1
     number of atomic types    =            1
     number of electrons       =        19.00
     number of Kohn-Sham states=           14
     kinetic-energy cutoff     =      65.0000  Ry
     charge density cutoff     =     260.0000  Ry
     convergence threshold     =      1.0E-08
     mixing beta               =       0.7000
     number of iterations used =            8  plain     mixing
     Exchange-correlation      = SLA PZ NOGX NOGC ( 1  1  0  0 0 0)

     celldm(1)=   6.830000  celldm(2)=   0.000000  celldm(3)=   0.000000
     celldm(4)=   0.000000  celldm(5)=   0.000000  celldm(6)=   0.000000

     crystal axes: (cart. coord. in units of alat)
               a(1) = (  -0.500000   0.000000   0.500000 )  
               a(2) = (   0.000000   0.500000   0.500000 )  
               a(3) = (  -0.500000   0.500000   0.000000 )  

     reciprocal axes: (cart. coord. in units 2 pi/alat)
               b(1) = ( -1.000000 -1.000000  1.000000 )  
               b(2) = (  1.000000  1.000000  1.000000 )  
               b(3) = ( -1.000000  1.000000 -1.000000 )  


     PseudoPot. # 1 for Fr read from file:
     /home/lorenzo/pseudos/Fr/Fr.pz-spdn-kjpaw_psl.1.0.0.UPF
     MD5 check sum: 60dafd115682613df3cc92ec23a62a32
     Pseudo is Projector augmented-wave + core cor, Zval = 19.0
     Generated using "atomic" code by A. Dal Corso v.6.2.2
     Shape of augmentation charge: PSQ
     Using radial grid of 1287 points,  6 beta functions with: 
                l(1) =   0
                l(2) =   0
                l(3) =   1
                l(4) =   1
                l(5) =   2
                l(6) =   2
     Q(r) pseudized with 0 coefficients 


     atomic species   valence    mass     pseudopotential
        Fr            19.00   223.00000     Fr( 1.00)

     48 Sym. Ops., with inversion, found



   Cartesian axes

     site n.     atom                  positions (alat units)
         1           Fr  tau(   1) = (   0.0000000   0.0000000   0.0000000  )

     number of k points=    35  gaussian smearing, width (Ry)=  0.0100
                       cart. coord. in units 2pi/alat
        k(    1) = (   0.0000000   0.0000000   0.0000000), wk =   0.0027435
        k(    2) = (  -0.1111111   0.1111111  -0.1111111), wk =   0.0219479
        k(    3) = (  -0.2222222   0.2222222  -0.2222222), wk =   0.0219479
        k(    4) = (  -0.3333333   0.3333333  -0.3333333), wk =   0.0219479
        k(    5) = (  -0.4444444   0.4444444  -0.4444444), wk =   0.0219479
        k(    6) = (   0.0000000   0.2222222   0.0000000), wk =   0.0164609
        k(    7) = (  -0.1111111   0.3333333  -0.1111111), wk =   0.0658436
        k(    8) = (  -0.2222222   0.4444444  -0.2222222), wk =   0.0658436
        k(    9) = (  -0.3333333   0.5555556  -0.3333333), wk =   0.0658436
        k(   10) = (   0.5555556  -0.3333333   0.5555556), wk =   0.0658436
        k(   11) = (   0.4444444  -0.2222222   0.4444444), wk =   0.0658436
        k(   12) = (   0.3333333  -0.1111111   0.3333333), wk =   0.0658436
        k(   13) = (   0.2222222  -0.0000000   0.2222222), wk =   0.0329218
        k(   14) = (   0.0000000   0.4444444   0.0000000), wk =   0.0164609
        k(   15) = (  -0.1111111   0.5555556  -0.1111111), wk =   0.0658436
        k(   16) = (  -0.2222222   0.6666667  -0.2222222), wk =   0.0658436
        k(   17) = (   0.6666667  -0.2222222   0.6666667), wk =   0.0658436
        k(   18) = (   0.5555556  -0.1111111   0.5555556), wk =   0.0658436
        k(   19) = (   0.4444444   0.0000000   0.4444444), wk =   0.0329218
        k(   20) = (   0.0000000   0.6666667   0.0000000), wk =   0.0164609
        k(   21) = (  -0.1111111   0.7777778  -0.1111111), wk =   0.0658436
        k(   22) = (   0.7777778  -0.1111111   0.7777778), wk =   0.0658436
        k(   23) = (   0.6666667  -0.0000000   0.6666667), wk =   0.0329218
        k(   24) = (   0.0000000   0.8888889   0.0000000), wk =   0.0164609
        k(   25) = (   0.8888889   0.0000000   0.8888889), wk =   0.0329218
        k(   26) = (  -0.2222222   0.4444444   0.0000000), wk =   0.0658436
        k(   27) = (  -0.3333333   0.5555556  -0.1111111), wk =   0.1316872
        k(   28) = (   0.5555556  -0.3333333   0.7777778), wk =   0.1316872
        k(   29) = (  -0.2222222   0.6666667   0.0000000), wk =   0.0658436
        k(   30) = (   0.6666667  -0.2222222   0.8888889), wk =   0.1316872
        k(   31) = (   0.5555556  -0.1111111   0.7777778), wk =   0.1316872
        k(   32) = (   0.4444444   0.0000000   0.6666667), wk =   0.0658436
        k(   33) = (   0.7777778  -0.1111111   1.0000000), wk =   0.0658436
        k(   34) = (   0.6666667  -0.0000000   0.8888889), wk =   0.0658436
        k(   35) = (   0.5555556  -0.1111111   1.0000000), wk =   0.0658436

     Dense  grid:     5673 G-vectors     FFT dimensions: (  25,  25,  25)

     Estimated max dynamical RAM per process >       6.70 MB

     Estimated total dynamical RAM >      33.52 MB

     Check: negative/imaginary core charge=   -0.000003    0.000000

     Initial potential from superposition of free atoms

     starting charge   18.97647, renormalised to   19.00000
     Starting wfcs are   10 randomized atomic wfcs +    4 random wfcs
     Checking if some PAW data can be deallocated... 

     total cpu time spent up to now is        1.3 secs

     Self-consistent Calculation

     iteration #  1     ecut=    65.00 Ry     beta= 0.70
     Davidson diagonalization with overlap
     ethr =  1.00E-02,  avg # of iterations =  4.7

     Threshold (ethr) on eigenvalues was too large:
     Diagonalizing with lowered threshold

     Davidson diagonalization with overlap
     ethr =  9.21E-05,  avg # of iterations =  1.8

     total cpu time spent up to now is        2.3 secs

     total energy              =   -1045.25094700 Ry
     Harris-Foulkes estimate   =   -1045.26325668 Ry
     estimated scf accuracy    <       0.01731854 Ry

     iteration #  2     ecut=    65.00 Ry     beta= 0.70
     Davidson diagonalization with overlap
     ethr =  9.12E-05,  avg # of iterations =  2.0

     total cpu time spent up to now is        2.8 secs

     total energy              =   -1045.25366778 Ry
     Harris-Foulkes estimate   =   -1045.25397174 Ry
     estimated scf accuracy    <       0.00050922 Ry

     iteration #  3     ecut=    65.00 Ry     beta= 0.70
     Davidson diagonalization with overlap
     ethr =  2.68E-06,  avg # of iterations =  3.0

     total cpu time spent up to now is        3.3 secs

     total energy              =   -1045.25372478 Ry
     Harris-Foulkes estimate   =   -1045.25373288 Ry
     estimated scf accuracy    <       0.00001775 Ry

     iteration #  4     ecut=    65.00 Ry     beta= 0.70
     Davidson diagonalization with overlap
     ethr =  9.34E-08,  avg # of iterations =  2.1

     total cpu time spent up to now is        3.8 secs

     total energy              =   -1045.25372965 Ry
     Harris-Foulkes estimate   =   -1045.25372924 Ry
     estimated scf accuracy    <       0.00000024 Ry

     iteration #  5     ecut=    65.00 Ry     beta= 0.70
     Davidson diagonalization with overlap
     ethr =  1.28E-09,  avg # of iterations =  2.2

     total cpu time spent up to now is        4.3 secs

     total energy              =   -1045.25372971 Ry
     Harris-Foulkes estimate   =   -1045.25372969 Ry
     estimated scf accuracy    <       0.00000002 Ry

     iteration #  6     ecut=    65.00 Ry     beta= 0.70
     Davidson diagonalization with overlap
     ethr =  8.07E-11,  avg # of iterations =  2.1

     total cpu time spent up to now is        4.8 secs

     End of self-consistent calculation

          k = 0.0000 0.0000 0.0000 (   725 PWs)   bands (ev):

    -9.4619  -9.4619  -9.4619  -9.1114  -9.1114   9.0921  46.8701  46.8701
    46.8701  48.0867  53.6805  53.6805  53.6805  57.5389

          k =-0.1111 0.1111-0.1111 (   706 PWs)   bands (ev):

    -9.4549  -9.4228  -9.4228  -9.1088  -9.1088   9.5863  42.0581  46.1547
    46.1547  47.9561  54.8686  54.8686  55.6175  56.8957

          k =-0.2222 0.2222-0.2222 (   703 PWs)   bands (ev):

    -9.4479  -9.3691  -9.3691  -9.0608  -9.0608  11.0707  35.1649  44.7655
    44.7655  47.9942  53.6791  54.3587  54.3587  57.6569

          k =-0.3333 0.3333-0.3333 (   697 PWs)   bands (ev):

    -9.4448  -9.3760  -9.3760  -8.9355  -8.9355  13.4986  28.8626  43.4880
    43.4880  47.9633  51.9000  52.5722  52.5722  61.1896

          k =-0.4444 0.4444-0.4444 (   709 PWs)   bands (ev):

    -9.4464  -9.4003  -9.4003  -8.8351  -8.8351  16.4035  23.9664  42.7343
    42.7343  47.8646  51.0561  51.7009  51.7009  64.4856

          k = 0.0000 0.2222 0.0000 (   697 PWs)   bands (ev):

    -9.4989  -9.3800  -9.3800  -9.1510  -9.0768   9.7508  44.0128  44.0128
    44.4769  46.7250  52.6051  56.1169  56.8890  56.8890

          k =-0.1111 0.3333-0.1111 (   696 PWs)   bands (ev):

    -9.5095  -9.3164  -9.3065  -9.1626  -9.0244  10.9055  37.6650  42.2180
    43.8208  47.7480  50.1521  55.8902  57.9762  58.2114

          k =-0.2222 0.4444-0.2222 (   706 PWs)   bands (ev):

    -9.4871  -9.3316  -9.2962  -9.0686  -8.9128  13.0271  31.1857  41.1181
    42.0458  46.7077  52.7557  55.5256  55.8644  56.6209

          k =-0.3333 0.5556-0.3333 (   706 PWs)   bands (ev):

    -9.4621  -9.3619  -9.3230  -8.9438  -8.8247  15.8797  25.7535  40.1899
    40.9014  46.1413  53.8979  54.1175  55.0060  59.1630

          k = 0.5556-0.3333 0.5556 (   705 PWs)   bands (ev):

    -9.4365  -9.3802  -9.3397  -8.8689  -8.8391  17.3910  23.5973  38.9198
    41.6802  46.4693  52.7648  53.0312  56.0502  63.4702

          k = 0.4444-0.2222 0.4444 (   705 PWs)   bands (ev):

    -9.4125  -9.3861  -9.3282  -8.9596  -8.8809  14.8853  27.4173  38.5203
    43.4255  47.6152  51.9096  52.6058  57.5523  60.1144

          k = 0.3333-0.1111 0.3333 (   714 PWs)   bands (ev):

    -9.4376  -9.3549  -9.3128  -9.1104  -8.9637  12.2164  33.2743  39.0311
    45.7924  49.4328  51.2097  52.8704  56.2684  57.8944

          k = 0.2222-0.0000 0.2222 (   698 PWs)   bands (ev):

    -9.4576  -9.3726  -9.3622  -9.1439  -9.0539  10.4109  39.4601  40.8145
    47.3606  49.2702  52.7866  54.0951  54.1271  56.3152

          k = 0.0000 0.4444 0.0000 (   697 PWs)   bands (ev):

    -9.5970  -9.2610  -9.1775  -9.1775  -8.9932  11.7294  39.2962  40.0472
    40.0472  44.8852  46.6106  60.9113  60.9113  61.1275

          k =-0.1111 0.5556-0.1111 (   704 PWs)   bands (ev):

    -9.6110  -9.3203  -9.1213  -9.0690  -8.9014  13.5263  33.7369  38.2769
    38.7000  44.7172  47.4969  60.1192  60.4436  61.8959

          k =-0.2222 0.6667-0.2222 (   704 PWs)   bands (ev):

    -9.5637  -9.3197  -9.1417  -9.0158  -8.8136  16.1462  28.3318  35.6998
    38.3690  44.3697  52.1258  58.0954  58.6188  61.7235

          k = 0.6667-0.2222 0.6667 (   704 PWs)   bands (ev):

    -9.5082  -9.2610  -9.1688  -9.0096  -8.8341  18.4745  24.9286  33.7365
    39.1413  44.7113  56.6366  56.8139  57.6912  62.4967

          k = 0.5556-0.1111 0.5556 (   702 PWs)   bands (ev):

    -9.4489  -9.2762  -9.1749  -8.9683  -8.9660  17.0207  27.0783  32.7531
    40.9711  45.7563  55.5232  55.8317  60.1502  60.7286

          k = 0.4444 0.0000 0.4444 (   704 PWs)   bands (ev):

    -9.3876  -9.3668  -9.1586  -9.1514  -8.9249  14.2916  31.5504  33.5368
    43.5771  47.5335  53.5002  55.6842  55.7166  58.2759

          k = 0.0000 0.6667 0.0000 (   717 PWs)   bands (ev):

    -9.7089  -9.3985  -8.9431  -8.9431  -8.8977  14.9944  32.5747  37.0345
    37.0345  43.6228  43.7132  64.3382  64.8797  64.8797

          k =-0.1111 0.7778-0.1111 (   703 PWs)   bands (ev):

    -9.7007  -9.4265  -8.9395  -8.8839  -8.8052  17.3107  29.0675  33.9635
    36.4053  43.2832  46.1728  62.1742  64.0481  68.4472

          k = 0.7778-0.1111 0.7778 (   707 PWs)   bands (ev):

    -9.6178  -9.3494  -8.9706  -8.9431  -8.8170  19.7154  26.5756  30.3828
    36.9204  43.4995  51.3010  60.3745  62.1058  66.5856

          k = 0.6667-0.0000 0.6667 (   702 PWs)   bands (ev):

    -9.5285  -9.1612  -9.0934  -9.0204  -8.9256  19.3620  28.0166  28.0450
    38.5300  44.3168  57.1641  58.7568  59.7554  62.3409

          k = 0.0000 0.8889 0.0000 (   708 PWs)   bands (ev):

    -9.7785  -9.4948  -8.8342  -8.7829  -8.7829  19.2362  26.2883  35.4324
    35.4324  42.6064  43.0057  64.1047  69.5367  69.5367

          k = 0.8889 0.0000 0.8889 (   712 PWs)   bands (ev):

    -9.7358  -9.4748  -8.8539  -8.8077  -8.7805  20.6699  25.0321  32.8094
    35.6111  42.8647  45.7493  62.9834  67.3925  68.9110

          k =-0.2222 0.4444 0.0000 (   703 PWs)   bands (ev):

    -9.5175  -9.3075  -9.1881  -9.1845  -8.9491  12.3820  35.2368  37.1697
    43.0050  48.4341  48.7881  55.4672  57.8367  60.4360

          k =-0.3333 0.5556-0.1111 (   704 PWs)   bands (ev):

    -9.4683  -9.3477  -9.1990  -9.0554  -8.8798  14.7662  29.8913  35.6702
    40.5229  47.8511  51.8744  54.4450  58.2828  61.6462

          k = 0.5556-0.3333 0.7778 (   707 PWs)   bands (ev):

    -9.4244  -9.3793  -9.1924  -8.9838  -8.8443  17.5387  25.2980  35.4829
    38.7741  47.4396  51.9330  58.5105  58.7953  60.0758

          k =-0.2222 0.6667 0.0000 (   706 PWs)   bands (ev):

    -9.6089  -9.3632  -9.0886  -8.9472  -8.8586  15.5898  31.3012  34.4448
    36.8663  46.8595  46.9103  57.7947  63.7865  65.9460

          k = 0.6667-0.2222 0.8889 (   708 PWs)   bands (ev):

    -9.5297  -9.3418  -9.1107  -8.9429  -8.8279  18.2346  27.6597  32.2431
    35.4974  46.8907  51.7019  55.8473  63.4111  64.6443

          k = 0.5556-0.1111 0.7778 (   706 PWs)   bands (ev):

    -9.4610  -9.2691  -9.1204  -9.0330  -8.8472  19.4205  26.2948  30.7225
    36.0806  47.5486  54.1893  57.6035  59.0293  62.8159

          k = 0.4444 0.0000 0.6667 (   696 PWs)   bands (ev):

    -9.4007  -9.3538  -9.1462  -8.9552  -8.9486  17.2387  29.0325  30.8212
    37.9575  48.7324  52.6986  55.0126  61.1005  62.7486

          k = 0.7778-0.1111 1.0000 (   707 PWs)   bands (ev):

    -9.6687  -9.4380  -8.9404  -8.8503  -8.7835  19.5830  26.7065  32.9873
    33.8192  45.9752  46.1181  60.4811  65.4354  68.4961

          k = 0.6667-0.0000 0.8889 (   713 PWs)   bands (ev):

    -9.5564  -9.3524  -9.0349  -8.9454  -8.7867  20.6920  26.5559  29.6541
    34.2356  46.5517  51.4090  58.1746  61.1196  66.3233

          k = 0.5556-0.1111 1.0000 (   708 PWs)   bands (ev):

    -9.3795  -9.3565  -9.1921  -8.9753  -8.7852  20.3038  27.7862  29.3755
    32.8194  51.5544  51.8029  54.4932  58.4594  67.9831

     the Fermi energy is    46.7235 ev

!    total energy              =   -1045.25372971 Ry
     Harris-Foulkes estimate   =   -1045.25372972 Ry
     estimated scf accuracy    <          1.7E-10 Ry

     total all-electron energy =    -48490.706703 Ry

     The total energy is the sum of the following terms:

     one-electron contribution =       1.47554268 Ry
     hartree contribution      =      28.21692487 Ry
     xc contribution           =     -63.89968671 Ry
     ewald contribution        =    -242.33311988 Ry
     one-center paw contrib.   =    -768.71290844 Ry
     smearing contrib. (-TS)   =      -0.00048223 Ry

     convergence has been achieved in   6 iterations

     Forces acting on atoms (cartesian axes, Ry/au):

     atom    1 type  1   force =     0.00000000    0.00000000    0.00000000

     Total force =     0.000000     Total SCF correction =     0.000000


     Computing stress (Cartesian axis) and pressure

          total   stress  (Ry/bohr**3)                   (kbar)     P= 6969.99
   0.04738103   0.00000000   0.00000000       6969.99      0.00      0.00
  -0.00000000   0.04738103   0.00000000         -0.00   6969.99      0.00
   0.00000000   0.00000000   0.04738103          0.00      0.00   6969.99


     Writing output data file Fr.save/

     init_run     :      0.34s CPU      0.36s WALL (       1 calls)
     electrons    :      3.35s CPU      3.51s WALL (       1 calls)
     forces       :      0.04s CPU      0.04s WALL (       1 calls)
     stress       :      0.11s CPU      0.12s WALL (       1 calls)

     Called by init_run:
     wfcinit      :      0.11s CPU      0.13s WALL (       1 calls)
     potinit      :      0.06s CPU      0.06s WALL (       1 calls)
     hinit0       :      0.16s CPU      0.16s WALL (       1 calls)

     Called by electrons:
     c_bands      :      2.62s CPU      2.74s WALL (       7 calls)
     sum_band     :      0.42s CPU      0.45s WALL (       7 calls)
     v_of_rho     :      0.00s CPU      0.00s WALL (       7 calls)
     newd         :      0.04s CPU      0.04s WALL (       7 calls)
     PAW_pot      :      0.32s CPU      0.32s WALL (       7 calls)
     mix_rho      :      0.00s CPU      0.00s WALL (       7 calls)

     Called by c_bands:
     init_us_2    :      0.06s CPU      0.06s WALL (     595 calls)
     cegterg      :      2.53s CPU      2.65s WALL (     245 calls)

     Called by sum_band:
     sum_band:bec :      0.00s CPU      0.00s WALL (     245 calls)
     addusdens    :      0.04s CPU      0.04s WALL (       7 calls)

     Called by *egterg:
     h_psi        :      1.81s CPU      1.91s WALL (     904 calls)
     s_psi        :      0.05s CPU      0.06s WALL (     904 calls)
     g_psi        :      0.00s CPU      0.01s WALL (     624 calls)
     cdiaghg      :      0.38s CPU      0.40s WALL (     834 calls)

     Called by h_psi:
     h_psi:pot    :      1.80s CPU      1.90s WALL (     904 calls)
     h_psi:calbec :      0.09s CPU      0.09s WALL (     904 calls)
     vloc_psi     :      1.65s CPU      1.74s WALL (     904 calls)
     add_vuspsi   :      0.05s CPU      0.06s WALL (     904 calls)

     General routines
     calbec       :      0.13s CPU      0.14s WALL (    1324 calls)
     fft          :      0.01s CPU      0.01s WALL (      38 calls)
     ffts         :      0.00s CPU      0.00s WALL (       7 calls)
     fftw         :      1.86s CPU      1.95s WALL (   21538 calls)

     Parallel routines
     fft_scatt_xy :      0.14s CPU      0.15s WALL (   21583 calls)
     fft_scatt_yz :      0.58s CPU      0.60s WALL (   21583 calls)

     PWSCF        :     4.82s CPU         5.07s WALL


   This run was terminated on:  22:46: 7   7Apr2024            

=------------------------------------------------------------------------------=
   JOB DONE.
=------------------------------------------------------------------------------=
