
     Program PWSCF v.6.3MaX starts on  7Apr2024 at 22:57:13 

     This program is part of the open-source Quantum ESPRESSO suite
     for quantum simulation of materials; please cite
         "P. Giannozzi et al., J. Phys.:Condens. Matter 21 395502 (2009);
         "P. Giannozzi et al., J. Phys.:Condens. Matter 29 465901 (2017);
          URL http://www.quantum-espresso.org", 
     in publications or presentations arising from this work. More details at
     http://www.quantum-espresso.org/quote

     Parallel version (MPI), running on     5 processors

     MPI processes distributed on     1 nodes
     R & G space division:  proc/nbgrp/npool/nimage =       5
     Waiting for input...
     Reading input from standard input

     Current dimensions of program PWSCF are:
     Max number of different atomic species (ntypx) = 10
     Max number of k-points (npk) =  40000
     Max angular momentum in pseudopotentials (lmaxx) =  3
               file Fr.pz-spdn-kjpaw_psl.1.0.0.UPF: wavefunction(s)  6P renormalized

     Subspace diagonalization in iterative solution of the eigenvalue problem:
     a serial algorithm will be used


     Parallelization info
     --------------------
     sticks:   dense  smooth     PW     G-vecs:    dense   smooth      PW
     Min         109     109     32                 1677     1677     280
     Max         110     110     33                 1680     1680     283
     Sum         547     547    163                 8393     8393    1411



     bravais-lattice index     =            2
     lattice parameter (alat)  =       6.8300  a.u.
     unit-cell volume          =      79.6530 (a.u.)^3
     number of atoms/cell      =            1
     number of atomic types    =            1
     number of electrons       =        19.00
     number of Kohn-Sham states=           14
     kinetic-energy cutoff     =      85.0000  Ry
     charge density cutoff     =     340.0000  Ry
     convergence threshold     =      1.0E-08
     mixing beta               =       0.7000
     number of iterations used =            8  plain     mixing
     Exchange-correlation      = SLA PZ NOGX NOGC ( 1  1  0  0 0 0)

     celldm(1)=   6.830000  celldm(2)=   0.000000  celldm(3)=   0.000000
     celldm(4)=   0.000000  celldm(5)=   0.000000  celldm(6)=   0.000000

     crystal axes: (cart. coord. in units of alat)
               a(1) = (  -0.500000   0.000000   0.500000 )  
               a(2) = (   0.000000   0.500000   0.500000 )  
               a(3) = (  -0.500000   0.500000   0.000000 )  

     reciprocal axes: (cart. coord. in units 2 pi/alat)
               b(1) = ( -1.000000 -1.000000  1.000000 )  
               b(2) = (  1.000000  1.000000  1.000000 )  
               b(3) = ( -1.000000  1.000000 -1.000000 )  


     PseudoPot. # 1 for Fr read from file:
     /home/lorenzo/pseudos/Fr/Fr.pz-spdn-kjpaw_psl.1.0.0.UPF
     MD5 check sum: 60dafd115682613df3cc92ec23a62a32
     Pseudo is Projector augmented-wave + core cor, Zval = 19.0
     Generated using "atomic" code by A. Dal Corso v.6.2.2
     Shape of augmentation charge: PSQ
     Using radial grid of 1287 points,  6 beta functions with: 
                l(1) =   0
                l(2) =   0
                l(3) =   1
                l(4) =   1
                l(5) =   2
                l(6) =   2
     Q(r) pseudized with 0 coefficients 


     atomic species   valence    mass     pseudopotential
        Fr            19.00   223.00000     Fr( 1.00)

     48 Sym. Ops., with inversion, found



   Cartesian axes

     site n.     atom                  positions (alat units)
         1           Fr  tau(   1) = (   0.0000000   0.0000000   0.0000000  )

     number of k points=     4  gaussian smearing, width (Ry)=  0.0100
                       cart. coord. in units 2pi/alat
        k(    1) = (   0.0000000   0.0000000   0.0000000), wk =   0.0740741
        k(    2) = (  -0.3333333   0.3333333  -0.3333333), wk =   0.5925926
        k(    3) = (   0.0000000   0.6666667   0.0000000), wk =   0.4444444
        k(    4) = (   0.6666667  -0.0000000   0.6666667), wk =   0.8888889

     Dense  grid:     8393 G-vectors     FFT dimensions: (  30,  30,  30)

     Estimated max dynamical RAM per process >       8.11 MB

     Estimated total dynamical RAM >      40.56 MB

     Initial potential from superposition of free atoms

     starting charge   18.97647, renormalised to   19.00000
     Starting wfcs are   10 randomized atomic wfcs +    4 random wfcs
     Checking if some PAW data can be deallocated... 

     total cpu time spent up to now is        1.2 secs

     Self-consistent Calculation

     iteration #  1     ecut=    85.00 Ry     beta= 0.70
     Davidson diagonalization with overlap
     ethr =  1.00E-02,  avg # of iterations =  4.2

     Threshold (ethr) on eigenvalues was too large:
     Diagonalizing with lowered threshold

     Davidson diagonalization with overlap
     ethr =  6.45E-05,  avg # of iterations =  1.8

     total cpu time spent up to now is        1.5 secs

     total energy              =   -1045.19567842 Ry
     Harris-Foulkes estimate   =   -1045.20430735 Ry
     estimated scf accuracy    <       0.01217255 Ry

     iteration #  2     ecut=    85.00 Ry     beta= 0.70
     Davidson diagonalization with overlap
     ethr =  6.41E-05,  avg # of iterations =  2.0

     total cpu time spent up to now is        1.6 secs

     total energy              =   -1045.19759899 Ry
     Harris-Foulkes estimate   =   -1045.19778915 Ry
     estimated scf accuracy    <       0.00042139 Ry

     iteration #  3     ecut=    85.00 Ry     beta= 0.70
     Davidson diagonalization with overlap
     ethr =  2.22E-06,  avg # of iterations =  2.5

     total cpu time spent up to now is        1.8 secs

     total energy              =   -1045.19763916 Ry
     Harris-Foulkes estimate   =   -1045.19764224 Ry
     estimated scf accuracy    <       0.00001751 Ry

     iteration #  4     ecut=    85.00 Ry     beta= 0.70
     Davidson diagonalization with overlap
     ethr =  9.21E-08,  avg # of iterations =  2.2

     total cpu time spent up to now is        1.9 secs

     total energy              =   -1045.19764376 Ry
     Harris-Foulkes estimate   =   -1045.19764344 Ry
     estimated scf accuracy    <       0.00000030 Ry

     iteration #  5     ecut=    85.00 Ry     beta= 0.70
     Davidson diagonalization with overlap
     ethr =  1.56E-09,  avg # of iterations =  1.8

     total cpu time spent up to now is        2.0 secs

     total energy              =   -1045.19764380 Ry
     Harris-Foulkes estimate   =   -1045.19764380 Ry
     estimated scf accuracy    <       0.00000002 Ry

     iteration #  6     ecut=    85.00 Ry     beta= 0.70
     Davidson diagonalization with overlap
     ethr =  1.29E-10,  avg # of iterations =  2.0

     total cpu time spent up to now is        2.1 secs

     End of self-consistent calculation

          k = 0.0000 0.0000 0.0000 (  1067 PWs)   bands (ev):

    -9.3522  -9.3522  -9.3522  -9.0081  -9.0081   9.1181  46.8905  46.8905
    46.8905  48.0967  53.6974  53.6974  53.6974  57.4805

          k =-0.3333 0.3333-0.3333 (  1059 PWs)   bands (ev):

    -9.3376  -9.2718  -9.2718  -8.8301  -8.8301  13.5289  28.8761  43.5191
    43.5191  47.9491  51.9113  52.5695  52.5695  61.2042

          k = 0.0000 0.6667 0.0000 (  1030 PWs)   bands (ev):

    -9.6012  -9.2974  -8.8320  -8.8320  -8.7935  15.0253  32.6089  37.0525
    37.0525  43.6371  43.6750  64.3642  64.8769  64.8769

          k = 0.6667-0.0000 0.6667 (  1063 PWs)   bands (ev):

    -9.4247  -9.0566  -8.9842  -8.9179  -8.8161  19.4078  28.0219  28.0609
    38.5518  44.3032  57.1701  58.7754  59.7609  62.3445

     the Fermi energy is    44.2726 ev

!    total energy              =   -1045.19764380 Ry
     Harris-Foulkes estimate   =   -1045.19764380 Ry
     estimated scf accuracy    <          6.7E-10 Ry

     total all-electron energy =    -48490.650617 Ry

     The total energy is the sum of the following terms:

     one-electron contribution =       1.44661701 Ry
     hartree contribution      =      28.33612800 Ry
     xc contribution           =     -63.91962032 Ry
     ewald contribution        =    -242.33311988 Ry
     one-center paw contrib.   =    -768.72526523 Ry
     smearing contrib. (-TS)   =      -0.00238339 Ry

     convergence has been achieved in   6 iterations

     Forces acting on atoms (cartesian axes, Ry/au):

     atom    1 type  1   force =     0.00000000    0.00000000    0.00000000

     Total force =     0.000000     Total SCF correction =     0.000000


     Computing stress (Cartesian axis) and pressure

          total   stress  (Ry/bohr**3)                   (kbar)     P= 7246.54
   0.04926102  -0.00000000  -0.00000000       7246.54     -0.00     -0.00
  -0.00000000   0.04926102   0.00000000         -0.00   7246.54      0.00
  -0.00000000   0.00000000   0.04926102         -0.00      0.00   7246.54


     Writing output data file Fr.save/

     init_run     :      0.27s CPU      0.27s WALL (       1 calls)
     electrons    :      0.89s CPU      0.92s WALL (       1 calls)
     forces       :      0.03s CPU      0.03s WALL (       1 calls)
     stress       :      0.08s CPU      0.08s WALL (       1 calls)

     Called by init_run:
     wfcinit      :      0.02s CPU      0.02s WALL (       1 calls)
     potinit      :      0.05s CPU      0.05s WALL (       1 calls)
     hinit0       :      0.19s CPU      0.19s WALL (       1 calls)

     Called by electrons:
     c_bands      :      0.43s CPU      0.44s WALL (       7 calls)
     sum_band     :      0.15s CPU      0.16s WALL (       7 calls)
     v_of_rho     :      0.01s CPU      0.01s WALL (       7 calls)
     newd         :      0.06s CPU      0.06s WALL (       7 calls)
     PAW_pot      :      0.30s CPU      0.30s WALL (       7 calls)
     mix_rho      :      0.00s CPU      0.00s WALL (       7 calls)

     Called by c_bands:
     init_us_2    :      0.01s CPU      0.01s WALL (      68 calls)
     cegterg      :      0.41s CPU      0.42s WALL (      28 calls)

     Called by sum_band:
     sum_band:bec :      0.00s CPU      0.00s WALL (      28 calls)
     addusdens    :      0.06s CPU      0.07s WALL (       7 calls)

     Called by *egterg:
     h_psi        :      0.31s CPU      0.32s WALL (      98 calls)
     s_psi        :      0.01s CPU      0.01s WALL (      98 calls)
     g_psi        :      0.00s CPU      0.00s WALL (      66 calls)
     cdiaghg      :      0.04s CPU      0.05s WALL (      90 calls)

     Called by h_psi:
     h_psi:pot    :      0.31s CPU      0.32s WALL (      98 calls)
     h_psi:calbec :      0.01s CPU      0.01s WALL (      98 calls)
     vloc_psi     :      0.29s CPU      0.29s WALL (      98 calls)
     add_vuspsi   :      0.01s CPU      0.01s WALL (      98 calls)

     General routines
     calbec       :      0.02s CPU      0.02s WALL (     146 calls)
     fft          :      0.01s CPU      0.01s WALL (      38 calls)
     ffts         :      0.00s CPU      0.00s WALL (       7 calls)
     fftw         :      0.33s CPU      0.33s WALL (    2446 calls)

     Parallel routines
     fft_scatt_xy :      0.03s CPU      0.03s WALL (    2491 calls)
     fft_scatt_yz :      0.08s CPU      0.08s WALL (    2491 calls)

     PWSCF        :     2.20s CPU         2.27s WALL


   This run was terminated on:  22:57:16   7Apr2024            

=------------------------------------------------------------------------------=
   JOB DONE.
=------------------------------------------------------------------------------=
