
     Program PWSCF v.6.3MaX starts on  7Apr2024 at 22:44:14 

     This program is part of the open-source Quantum ESPRESSO suite
     for quantum simulation of materials; please cite
         "P. Giannozzi et al., J. Phys.:Condens. Matter 21 395502 (2009);
         "P. Giannozzi et al., J. Phys.:Condens. Matter 29 465901 (2017);
          URL http://www.quantum-espresso.org", 
     in publications or presentations arising from this work. More details at
     http://www.quantum-espresso.org/quote

     Parallel version (MPI), running on     5 processors

     MPI processes distributed on     1 nodes
     R & G space division:  proc/nbgrp/npool/nimage =       5
     Waiting for input...
     Reading input from standard input

     Current dimensions of program PWSCF are:
     Max number of different atomic species (ntypx) = 10
     Max number of k-points (npk) =  40000
     Max angular momentum in pseudopotentials (lmaxx) =  3

     Subspace diagonalization in iterative solution of the eigenvalue problem:
     a serial algorithm will be used


     Parallelization info
     --------------------
     sticks:   dense  smooth     PW     G-vecs:    dense   smooth      PW
     Min          84      84     21                 1134     1134     144
     Max          85      85     22                 1137     1137     146
     Sum         421     421    109                 5673     5673     725



     bravais-lattice index     =            2
     lattice parameter (alat)  =       6.8300  a.u.
     unit-cell volume          =      79.6530 (a.u.)^3
     number of atoms/cell      =            1
     number of atomic types    =            1
     number of electrons       =        19.00
     number of Kohn-Sham states=           14
     kinetic-energy cutoff     =      65.0000  Ry
     charge density cutoff     =     260.0000  Ry
     convergence threshold     =      1.0E-08
     mixing beta               =       0.7000
     number of iterations used =            8  plain     mixing
     Exchange-correlation      = PBE ( 1  4  3  4 0 0)

     celldm(1)=   6.830000  celldm(2)=   0.000000  celldm(3)=   0.000000
     celldm(4)=   0.000000  celldm(5)=   0.000000  celldm(6)=   0.000000

     crystal axes: (cart. coord. in units of alat)
               a(1) = (  -0.500000   0.000000   0.500000 )  
               a(2) = (   0.000000   0.500000   0.500000 )  
               a(3) = (  -0.500000   0.500000   0.000000 )  

     reciprocal axes: (cart. coord. in units 2 pi/alat)
               b(1) = ( -1.000000 -1.000000  1.000000 )  
               b(2) = (  1.000000  1.000000  1.000000 )  
               b(3) = ( -1.000000  1.000000 -1.000000 )  


     PseudoPot. # 1 for Fr read from file:
     /home/lorenzo/pseudos/Fr/Fr.pbe-spdn-rrkjus_psl.1.0.0.UPF
     MD5 check sum: 07cabfa18982bd6b5b9d8ae5689d9732
     Pseudo is Ultrasoft + core correction, Zval = 19.0
     Generated using "atomic" code by A. Dal Corso v.6.2.2
     Using radial grid of 1287 points,  6 beta functions with: 
                l(1) =   0
                l(2) =   0
                l(3) =   1
                l(4) =   1
                l(5) =   2
                l(6) =   2
     Q(r) pseudized with 0 coefficients 


     atomic species   valence    mass     pseudopotential
        Fr            19.00   223.00000     Fr( 1.00)

     48 Sym. Ops., with inversion, found



   Cartesian axes

     site n.     atom                  positions (alat units)
         1           Fr  tau(   1) = (   0.0000000   0.0000000   0.0000000  )

     number of k points=     1  gaussian smearing, width (Ry)=  0.0100
                       cart. coord. in units 2pi/alat
        k(    1) = (   0.0000000   0.0000000   0.0000000), wk =   2.0000000

     Dense  grid:     5673 G-vectors     FFT dimensions: (  25,  25,  25)

     Estimated max dynamical RAM per process >       5.65 MB

     Estimated total dynamical RAM >      28.25 MB

     Check: negative/imaginary core charge=   -0.000003    0.000000

     Initial potential from superposition of free atoms

     starting charge   18.97009, renormalised to   19.00000
     Starting wfcs are   10 randomized atomic wfcs +    4 random wfcs

     total cpu time spent up to now is        1.1 secs

     Self-consistent Calculation

     iteration #  1     ecut=    65.00 Ry     beta= 0.70
     Davidson diagonalization with overlap
     ethr =  1.00E-02,  avg # of iterations =  5.0

     Threshold (ethr) on eigenvalues was too large:
     Diagonalizing with lowered threshold

     Davidson diagonalization with overlap
     ethr =  8.84E-04,  avg # of iterations =  1.0

     total cpu time spent up to now is        1.1 secs

     total energy              =    -278.32921957 Ry
     Harris-Foulkes estimate   =    -278.34178054 Ry
     estimated scf accuracy    <       0.16901974 Ry

     iteration #  2     ecut=    65.00 Ry     beta= 0.70
     Davidson diagonalization with overlap
     ethr =  8.90E-04,  avg # of iterations =  1.0

     total cpu time spent up to now is        1.2 secs

     total energy              =    -278.32191939 Ry
     Harris-Foulkes estimate   =    -278.34199123 Ry
     estimated scf accuracy    <       0.07774469 Ry

     iteration #  3     ecut=    65.00 Ry     beta= 0.70
     Davidson diagonalization with overlap
     ethr =  4.09E-04,  avg # of iterations =  1.0

     total cpu time spent up to now is        1.2 secs

     total energy              =    -278.34496536 Ry
     Harris-Foulkes estimate   =    -278.35510650 Ry
     estimated scf accuracy    <       0.04395224 Ry

     iteration #  4     ecut=    65.00 Ry     beta= 0.70
     Davidson diagonalization with overlap
     ethr =  2.31E-04,  avg # of iterations =  1.0

     total cpu time spent up to now is        1.2 secs

     total energy              =    -278.34448596 Ry
     Harris-Foulkes estimate   =    -278.34667912 Ry
     estimated scf accuracy    <       0.01135153 Ry

     iteration #  5     ecut=    65.00 Ry     beta= 0.70
     Davidson diagonalization with overlap
     ethr =  5.97E-05,  avg # of iterations =  2.0

     total cpu time spent up to now is        1.3 secs

     total energy              =    -278.34581248 Ry
     Harris-Foulkes estimate   =    -278.34632829 Ry
     estimated scf accuracy    <       0.00354642 Ry

     iteration #  6     ecut=    65.00 Ry     beta= 0.70
     Davidson diagonalization with overlap
     ethr =  1.87E-05,  avg # of iterations =  1.0

     total cpu time spent up to now is        1.3 secs

     total energy              =    -278.34604307 Ry
     Harris-Foulkes estimate   =    -278.34605357 Ry
     estimated scf accuracy    <       0.00001349 Ry

     iteration #  7     ecut=    65.00 Ry     beta= 0.70
     Davidson diagonalization with overlap
     ethr =  7.10E-08,  avg # of iterations =  3.0

     total cpu time spent up to now is        1.3 secs

     total energy              =    -278.34603283 Ry
     Harris-Foulkes estimate   =    -278.34606884 Ry
     estimated scf accuracy    <       0.00021821 Ry

     iteration #  8     ecut=    65.00 Ry     beta= 0.70
     Davidson diagonalization with overlap
     ethr =  7.10E-08,  avg # of iterations =  2.0

     total cpu time spent up to now is        1.3 secs

     total energy              =    -278.34605212 Ry
     Harris-Foulkes estimate   =    -278.34605496 Ry
     estimated scf accuracy    <       0.00002181 Ry

     iteration #  9     ecut=    65.00 Ry     beta= 0.70
     Davidson diagonalization with overlap
     ethr =  7.10E-08,  avg # of iterations =  1.0

     total cpu time spent up to now is        1.4 secs

     total energy              =    -278.34605361 Ry
     Harris-Foulkes estimate   =    -278.34605359 Ry
     estimated scf accuracy    <       0.00000019 Ry

     iteration # 10     ecut=    65.00 Ry     beta= 0.70
     Davidson diagonalization with overlap
     ethr =  9.77E-10,  avg # of iterations =  1.0

     total cpu time spent up to now is        1.4 secs

     total energy              =    -278.34605357 Ry
     Harris-Foulkes estimate   =    -278.34605363 Ry
     estimated scf accuracy    <       0.00000069 Ry

     iteration # 11     ecut=    65.00 Ry     beta= 0.70
     Davidson diagonalization with overlap
     ethr =  9.77E-10,  avg # of iterations =  1.0

     total cpu time spent up to now is        1.4 secs

     total energy              =    -278.34605357 Ry
     Harris-Foulkes estimate   =    -278.34605359 Ry
     estimated scf accuracy    <       0.00000009 Ry

     iteration # 12     ecut=    65.00 Ry     beta= 0.70
     Davidson diagonalization with overlap
     ethr =  4.63E-10,  avg # of iterations =  1.0

     total cpu time spent up to now is        1.4 secs

     End of self-consistent calculation

          k = 0.0000 0.0000 0.0000 (   725 PWs)   bands (ev):

    -8.7303  -8.7303  -8.7303  -8.0126  -8.0126   9.8343  47.6999  47.6999
    47.6999  47.8268  54.3745  54.3745  54.3745  59.0332

     the Fermi energy is    47.8613 ev

!    total energy              =    -278.34605358 Ry
     Harris-Foulkes estimate   =    -278.34605358 Ry
     estimated scf accuracy    <          8.4E-10 Ry

     The total energy is the sum of the following terms:

     one-electron contribution =      -0.14089371 Ry
     hartree contribution      =      28.93306434 Ry
     xc contribution           =     -64.79567053 Ry
     ewald contribution        =    -242.33311988 Ry
     smearing contrib. (-TS)   =      -0.00943380 Ry

     convergence has been achieved in  12 iterations

     Forces acting on atoms (cartesian axes, Ry/au):

     atom    1 type  1   force =     0.00000000    0.00000000    0.00000000

     Total force =     0.000000     Total SCF correction =     0.000000


     Computing stress (Cartesian axis) and pressure

          total   stress  (Ry/bohr**3)                   (kbar)     P=13395.57
   0.09106124   0.00000000  -0.00000000      13395.57      0.00     -0.00
   0.00000000   0.09106124   0.00000000          0.00  13395.57      0.00
  -0.00000000   0.00000000   0.09106124         -0.00      0.00  13395.57


     Writing output data file Fr.save/

     init_run     :      0.18s CPU      0.18s WALL (       1 calls)
     electrons    :      0.33s CPU      0.35s WALL (       1 calls)
     forces       :      0.02s CPU      0.02s WALL (       1 calls)
     stress       :      0.06s CPU      0.06s WALL (       1 calls)

     Called by init_run:
     wfcinit      :      0.00s CPU      0.00s WALL (       1 calls)
     potinit      :      0.01s CPU      0.01s WALL (       1 calls)
     hinit0       :      0.16s CPU      0.16s WALL (       1 calls)

     Called by electrons:
     c_bands      :      0.10s CPU      0.11s WALL (      13 calls)
     sum_band     :      0.10s CPU      0.11s WALL (      13 calls)
     v_of_rho     :      0.04s CPU      0.04s WALL (      13 calls)
     newd         :      0.09s CPU      0.09s WALL (      13 calls)
     mix_rho      :      0.01s CPU      0.01s WALL (      13 calls)

     Called by c_bands:
     init_us_2    :      0.00s CPU      0.00s WALL (      27 calls)
     cegterg      :      0.10s CPU      0.10s WALL (      13 calls)

     Called by sum_band:
     sum_band:bec :      0.00s CPU      0.00s WALL (      13 calls)
     addusdens    :      0.07s CPU      0.07s WALL (      13 calls)

     Called by *egterg:
     h_psi        :      0.07s CPU      0.08s WALL (      35 calls)
     s_psi        :      0.00s CPU      0.00s WALL (      35 calls)
     g_psi        :      0.00s CPU      0.00s WALL (      21 calls)
     cdiaghg      :      0.01s CPU      0.01s WALL (      33 calls)

     Called by h_psi:
     h_psi:pot    :      0.07s CPU      0.08s WALL (      35 calls)
     h_psi:calbec :      0.00s CPU      0.00s WALL (      35 calls)
     vloc_psi     :      0.07s CPU      0.07s WALL (      35 calls)
     add_vuspsi   :      0.00s CPU      0.00s WALL (      35 calls)

     General routines
     calbec       :      0.01s CPU      0.01s WALL (      53 calls)
     fft          :      0.03s CPU      0.03s WALL (     170 calls)
     ffts         :      0.00s CPU      0.00s WALL (      13 calls)
     fftw         :      0.07s CPU      0.08s WALL (    1008 calls)

     Parallel routines
     fft_scatt_xy :      0.01s CPU      0.01s WALL (    1191 calls)
     fft_scatt_yz :      0.03s CPU      0.04s WALL (    1191 calls)

     PWSCF        :     1.49s CPU         1.56s WALL


   This run was terminated on:  22:44:16   7Apr2024            

=------------------------------------------------------------------------------=
   JOB DONE.
=------------------------------------------------------------------------------=
