
     Program PWSCF v.6.3MaX starts on  7Apr2024 at 22:21:37 

     This program is part of the open-source Quantum ESPRESSO suite
     for quantum simulation of materials; please cite
         "P. Giannozzi et al., J. Phys.:Condens. Matter 21 395502 (2009);
         "P. Giannozzi et al., J. Phys.:Condens. Matter 29 465901 (2017);
          URL http://www.quantum-espresso.org", 
     in publications or presentations arising from this work. More details at
     http://www.quantum-espresso.org/quote

     Parallel version (MPI), running on     5 processors

     MPI processes distributed on     1 nodes
     R & G space division:  proc/nbgrp/npool/nimage =       5
     Waiting for input...
     Reading input from standard input

     Current dimensions of program PWSCF are:
     Max number of different atomic species (ntypx) = 10
     Max number of k-points (npk) =  40000
     Max angular momentum in pseudopotentials (lmaxx) =  3
               file Fr.pz-spdn-kjpaw_psl.1.0.0.UPF: wavefunction(s)  6P renormalized

     Subspace diagonalization in iterative solution of the eigenvalue problem:
     a serial algorithm will be used


     Parallelization info
     --------------------
     sticks:   dense  smooth     PW     G-vecs:    dense   smooth      PW
     Min          18      18      7                  121      121      33
     Max          19      19      8                  123      123      35
     Sum          91      91     37                  609      609     169



     bravais-lattice index     =            2
     lattice parameter (alat)  =       6.8300  a.u.
     unit-cell volume          =      79.6530 (a.u.)^3
     number of atoms/cell      =            1
     number of atomic types    =            1
     number of electrons       =        19.00
     number of Kohn-Sham states=           14
     kinetic-energy cutoff     =      15.0000  Ry
     charge density cutoff     =      60.0000  Ry
     convergence threshold     =      1.0E-08
     mixing beta               =       0.7000
     number of iterations used =            8  plain     mixing
     Exchange-correlation      = SLA PZ NOGX NOGC ( 1  1  0  0 0 0)

     celldm(1)=   6.830000  celldm(2)=   0.000000  celldm(3)=   0.000000
     celldm(4)=   0.000000  celldm(5)=   0.000000  celldm(6)=   0.000000

     crystal axes: (cart. coord. in units of alat)
               a(1) = (  -0.500000   0.000000   0.500000 )  
               a(2) = (   0.000000   0.500000   0.500000 )  
               a(3) = (  -0.500000   0.500000   0.000000 )  

     reciprocal axes: (cart. coord. in units 2 pi/alat)
               b(1) = ( -1.000000 -1.000000  1.000000 )  
               b(2) = (  1.000000  1.000000  1.000000 )  
               b(3) = ( -1.000000  1.000000 -1.000000 )  


     PseudoPot. # 1 for Fr read from file:
     /home/lorenzo/pseudos/Fr/Fr.pz-spdn-kjpaw_psl.1.0.0.UPF
     MD5 check sum: 60dafd115682613df3cc92ec23a62a32
     Pseudo is Projector augmented-wave + core cor, Zval = 19.0
     Generated using "atomic" code by A. Dal Corso v.6.2.2
     Shape of augmentation charge: PSQ
     Using radial grid of 1287 points,  6 beta functions with: 
                l(1) =   0
                l(2) =   0
                l(3) =   1
                l(4) =   1
                l(5) =   2
                l(6) =   2
     Q(r) pseudized with 0 coefficients 


     atomic species   valence    mass     pseudopotential
        Fr            19.00   223.00000     Fr( 1.00)

     48 Sym. Ops., with inversion, found



   Cartesian axes

     site n.     atom                  positions (alat units)
         1           Fr  tau(   1) = (   0.0000000   0.0000000   0.0000000  )

     number of k points=     3  gaussian smearing, width (Ry)=  0.0100
                       cart. coord. in units 2pi/alat
        k(    1) = (   0.0000000   0.0000000   0.0000000), wk =   0.2500000
        k(    2) = (   0.5000000  -0.5000000   0.5000000), wk =   1.0000000
        k(    3) = (   0.0000000  -1.0000000   0.0000000), wk =   0.7500000

     Dense  grid:      609 G-vectors     FFT dimensions: (  12,  12,  12)

     Estimated max dynamical RAM per process >       1.15 MB

     Estimated total dynamical RAM >       5.76 MB

     Check: negative/imaginary core charge=   -0.000424    0.000000

     Initial potential from superposition of free atoms

     starting charge   18.97647, renormalised to   19.00000
     Starting wfcs are   10 randomized atomic wfcs +    4 random wfcs
     Checking if some PAW data can be deallocated... 

     total cpu time spent up to now is        1.1 secs

     Self-consistent Calculation

     iteration #  1     ecut=    15.00 Ry     beta= 0.70
     Davidson diagonalization with overlap
     ethr =  1.00E-02,  avg # of iterations =  5.0

     total cpu time spent up to now is        1.1 secs

     total energy              =   -1022.48763919 Ry
     Harris-Foulkes estimate   =   -1028.56819123 Ry
     estimated scf accuracy    <       7.11626479 Ry

     iteration #  2     ecut=    15.00 Ry     beta= 0.70
     Davidson diagonalization with overlap
     ethr =  1.00E-02,  avg # of iterations =  2.7

     total cpu time spent up to now is        1.2 secs

     total energy              =   -1023.84281995 Ry
     Harris-Foulkes estimate   =   -1024.05505340 Ry
     estimated scf accuracy    <       0.57434402 Ry

     iteration #  3     ecut=    15.00 Ry     beta= 0.70
     Davidson diagonalization with overlap
     ethr =  3.02E-03,  avg # of iterations =  2.0

     total cpu time spent up to now is        1.3 secs

     total energy              =   -1023.86851884 Ry
     Harris-Foulkes estimate   =   -1023.88613403 Ry
     estimated scf accuracy    <       0.03447620 Ry

     iteration #  4     ecut=    15.00 Ry     beta= 0.70
     Davidson diagonalization with overlap
     ethr =  1.81E-04,  avg # of iterations =  1.7

     total cpu time spent up to now is        1.3 secs

     total energy              =   -1023.87020147 Ry
     Harris-Foulkes estimate   =   -1023.87033953 Ry
     estimated scf accuracy    <       0.00040397 Ry

     iteration #  5     ecut=    15.00 Ry     beta= 0.70
     Davidson diagonalization with overlap
     ethr =  2.13E-06,  avg # of iterations =  2.3

     total cpu time spent up to now is        1.4 secs

     total energy              =   -1023.87026317 Ry
     Harris-Foulkes estimate   =   -1023.87026502 Ry
     estimated scf accuracy    <       0.00000683 Ry

     iteration #  6     ecut=    15.00 Ry     beta= 0.70
     Davidson diagonalization with overlap
     ethr =  3.59E-08,  avg # of iterations =  2.3

     total cpu time spent up to now is        1.4 secs

     total energy              =   -1023.87026384 Ry
     Harris-Foulkes estimate   =   -1023.87026386 Ry
     estimated scf accuracy    <       0.00000008 Ry

     iteration #  7     ecut=    15.00 Ry     beta= 0.70
     Davidson diagonalization with overlap
     ethr =  4.43E-10,  avg # of iterations =  1.7

     total cpu time spent up to now is        1.5 secs

     End of self-consistent calculation

          k = 0.0000 0.0000 0.0000 (    65 PWs)   bands (ev):

     5.8384   5.8384   6.4317   9.2408   9.2408   9.2408  42.9724  42.9724
    42.9724  50.6358  53.6346  59.8365  59.8365  59.8365

          k = 0.5000-0.5000 0.5000 (    76 PWs)   bands (ev):

    -0.5304  -0.5304   2.5501   6.7790   6.7790  13.8599  22.9045  39.5876
    39.5876  50.2992  54.4702  64.3365  64.3365  65.6339

          k = 0.0000-1.0000 0.0000 (    80 PWs)   bands (ev):

    -2.7372  -1.2847  -1.2847   6.1123   7.7524  15.4272  24.3056  33.6878
    33.6878  51.0454  56.4137  65.8396  70.6363  71.1130

     the Fermi energy is    50.4985 ev

!    total energy              =   -1023.87026385 Ry
     Harris-Foulkes estimate   =   -1023.87026385 Ry
     estimated scf accuracy    <          1.1E-09 Ry

     total all-electron energy =    -48469.323237 Ry

     The total energy is the sum of the following terms:

     one-electron contribution =      28.09652786 Ry
     hartree contribution      =      17.41929288 Ry
     xc contribution           =     -60.64489818 Ry
     ewald contribution        =    -242.33312978 Ry
     one-center paw contrib.   =    -766.40747201 Ry
     smearing contrib. (-TS)   =      -0.00058461 Ry

     convergence has been achieved in   7 iterations

     Forces acting on atoms (cartesian axes, Ry/au):

     atom    1 type  1   force =     0.00000000    0.00000000    0.00000000

     Total force =     0.000000     Total SCF correction =     0.000000


     Computing stress (Cartesian axis) and pressure

          total   stress  (Ry/bohr**3)                   (kbar)     P=********
  -0.31005084   0.00000000  -0.00000000     -45610.05      0.00     -0.00
  -0.00000000  -0.31005084   0.00000000         -0.00 -45610.05      0.00
  -0.00000000   0.00000000  -0.31005084         -0.00      0.00 -45610.05


     Writing output data file Fr.save/

     init_run     :      0.13s CPU      0.14s WALL (       1 calls)
     electrons    :      0.40s CPU      0.43s WALL (       1 calls)
     forces       :      0.00s CPU      0.00s WALL (       1 calls)
     stress       :      0.01s CPU      0.01s WALL (       1 calls)

     Called by init_run:
     wfcinit      :      0.01s CPU      0.01s WALL (       1 calls)
     potinit      :      0.05s CPU      0.05s WALL (       1 calls)
     hinit0       :      0.08s CPU      0.08s WALL (       1 calls)

     Called by electrons:
     c_bands      :      0.07s CPU      0.08s WALL (       7 calls)
     sum_band     :      0.02s CPU      0.02s WALL (       7 calls)
     v_of_rho     :      0.00s CPU      0.00s WALL (       8 calls)
     newd         :      0.01s CPU      0.01s WALL (       8 calls)
     PAW_pot      :      0.35s CPU      0.35s WALL (       8 calls)
     mix_rho      :      0.00s CPU      0.00s WALL (       7 calls)

     Called by c_bands:
     init_us_2    :      0.00s CPU      0.00s WALL (      51 calls)
     cegterg      :      0.07s CPU      0.08s WALL (      21 calls)

     Called by sum_band:
     sum_band:bec :      0.00s CPU      0.00s WALL (      21 calls)
     addusdens    :      0.00s CPU      0.00s WALL (       7 calls)

     Called by *egterg:
     h_psi        :      0.03s CPU      0.04s WALL (      77 calls)
     s_psi        :      0.00s CPU      0.00s WALL (      77 calls)
     g_psi        :      0.00s CPU      0.00s WALL (      53 calls)
     cdiaghg      :      0.03s CPU      0.03s WALL (      74 calls)

     Called by h_psi:
     h_psi:pot    :      0.03s CPU      0.04s WALL (      77 calls)
     h_psi:calbec :      0.00s CPU      0.00s WALL (      77 calls)
     vloc_psi     :      0.03s CPU      0.03s WALL (      77 calls)
     add_vuspsi   :      0.00s CPU      0.00s WALL (      77 calls)

     General routines
     calbec       :      0.00s CPU      0.00s WALL (     113 calls)
     fft          :      0.00s CPU      0.00s WALL (      41 calls)
     ffts         :      0.00s CPU      0.00s WALL (       7 calls)
     fftw         :      0.03s CPU      0.04s WALL (    1820 calls)

     Parallel routines
     fft_scatt_xy :      0.00s CPU      0.01s WALL (    1868 calls)
     fft_scatt_yz :      0.01s CPU      0.02s WALL (    1868 calls)

     PWSCF        :     1.48s CPU         1.56s WALL


   This run was terminated on:  22:21:38   7Apr2024            

=------------------------------------------------------------------------------=
   JOB DONE.
=------------------------------------------------------------------------------=
