
     Program PWSCF v.6.3MaX starts on  7Apr2024 at 22:32:12 

     This program is part of the open-source Quantum ESPRESSO suite
     for quantum simulation of materials; please cite
         "P. Giannozzi et al., J. Phys.:Condens. Matter 21 395502 (2009);
         "P. Giannozzi et al., J. Phys.:Condens. Matter 29 465901 (2017);
          URL http://www.quantum-espresso.org", 
     in publications or presentations arising from this work. More details at
     http://www.quantum-espresso.org/quote

     Parallel version (MPI), running on     5 processors

     MPI processes distributed on     1 nodes
     R & G space division:  proc/nbgrp/npool/nimage =       5
     Waiting for input...
     Reading input from standard input

     Current dimensions of program PWSCF are:
     Max number of different atomic species (ntypx) = 10
     Max number of k-points (npk) =  40000
     Max angular momentum in pseudopotentials (lmaxx) =  3
               file Fr.pz-spdn-kjpaw_psl.1.0.0.UPF: wavefunction(s)  6P renormalized

     Subspace diagonalization in iterative solution of the eigenvalue problem:
     a serial algorithm will be used


     Parallelization info
     --------------------
     sticks:   dense  smooth     PW     G-vecs:    dense   smooth      PW
     Min          50      50     17                  544      544     106
     Max          51      51     17                  548      548     107
     Sum         253     253     85                 2733     2733     531



     bravais-lattice index     =            2
     lattice parameter (alat)  =       6.8300  a.u.
     unit-cell volume          =      79.6530 (a.u.)^3
     number of atoms/cell      =            1
     number of atomic types    =            1
     number of electrons       =        19.00
     number of Kohn-Sham states=           14
     kinetic-energy cutoff     =      40.0000  Ry
     charge density cutoff     =     160.0000  Ry
     convergence threshold     =      1.0E-08
     mixing beta               =       0.7000
     number of iterations used =            8  plain     mixing
     Exchange-correlation      = SLA PZ NOGX NOGC ( 1  1  0  0 0 0)

     celldm(1)=   6.830000  celldm(2)=   0.000000  celldm(3)=   0.000000
     celldm(4)=   0.000000  celldm(5)=   0.000000  celldm(6)=   0.000000

     crystal axes: (cart. coord. in units of alat)
               a(1) = (  -0.500000   0.000000   0.500000 )  
               a(2) = (   0.000000   0.500000   0.500000 )  
               a(3) = (  -0.500000   0.500000   0.000000 )  

     reciprocal axes: (cart. coord. in units 2 pi/alat)
               b(1) = ( -1.000000 -1.000000  1.000000 )  
               b(2) = (  1.000000  1.000000  1.000000 )  
               b(3) = ( -1.000000  1.000000 -1.000000 )  


     PseudoPot. # 1 for Fr read from file:
     /home/lorenzo/pseudos/Fr/Fr.pz-spdn-kjpaw_psl.1.0.0.UPF
     MD5 check sum: 60dafd115682613df3cc92ec23a62a32
     Pseudo is Projector augmented-wave + core cor, Zval = 19.0
     Generated using "atomic" code by A. Dal Corso v.6.2.2
     Shape of augmentation charge: PSQ
     Using radial grid of 1287 points,  6 beta functions with: 
                l(1) =   0
                l(2) =   0
                l(3) =   1
                l(4) =   1
                l(5) =   2
                l(6) =   2
     Q(r) pseudized with 0 coefficients 


     atomic species   valence    mass     pseudopotential
        Fr            19.00   223.00000     Fr( 1.00)

     48 Sym. Ops., with inversion, found



   Cartesian axes

     site n.     atom                  positions (alat units)
         1           Fr  tau(   1) = (   0.0000000   0.0000000   0.0000000  )

     number of k points=     8  gaussian smearing, width (Ry)=  0.0100
                       cart. coord. in units 2pi/alat
        k(    1) = (   0.0000000   0.0000000   0.0000000), wk =   0.0312500
        k(    2) = (  -0.2500000   0.2500000  -0.2500000), wk =   0.2500000
        k(    3) = (   0.5000000  -0.5000000   0.5000000), wk =   0.1250000
        k(    4) = (   0.0000000   0.5000000   0.0000000), wk =   0.1875000
        k(    5) = (   0.7500000  -0.2500000   0.7500000), wk =   0.7500000
        k(    6) = (   0.5000000   0.0000000   0.5000000), wk =   0.3750000
        k(    7) = (   0.0000000  -1.0000000   0.0000000), wk =   0.0937500
        k(    8) = (  -0.5000000  -1.0000000   0.0000000), wk =   0.1875000

     Dense  grid:     2733 G-vectors     FFT dimensions: (  20,  20,  20)

     Estimated max dynamical RAM per process >       3.26 MB

     Estimated total dynamical RAM >      16.31 MB

     Check: negative/imaginary core charge=   -0.000005    0.000000

     Initial potential from superposition of free atoms

     starting charge   18.97647, renormalised to   19.00000
     Starting wfcs are   10 randomized atomic wfcs +    4 random wfcs
     Checking if some PAW data can be deallocated... 

     total cpu time spent up to now is        1.2 secs

     Self-consistent Calculation

     iteration #  1     ecut=    40.00 Ry     beta= 0.70
     Davidson diagonalization with overlap
     ethr =  1.00E-02,  avg # of iterations =  4.6

     Threshold (ethr) on eigenvalues was too large:
     Diagonalizing with lowered threshold

     Davidson diagonalization with overlap
     ethr =  1.05E-04,  avg # of iterations =  1.5

     total cpu time spent up to now is        1.4 secs

     total energy              =   -1045.11152204 Ry
     Harris-Foulkes estimate   =   -1045.12667052 Ry
     estimated scf accuracy    <       0.01987192 Ry

     iteration #  2     ecut=    40.00 Ry     beta= 0.70
     Davidson diagonalization with overlap
     ethr =  1.05E-04,  avg # of iterations =  2.0

     total cpu time spent up to now is        1.5 secs

     total energy              =   -1045.11664246 Ry
     Harris-Foulkes estimate   =   -1045.11695557 Ry
     estimated scf accuracy    <       0.00084733 Ry

     iteration #  3     ecut=    40.00 Ry     beta= 0.70
     Davidson diagonalization with overlap
     ethr =  4.46E-06,  avg # of iterations =  2.4

     total cpu time spent up to now is        1.6 secs

     total energy              =   -1045.11678202 Ry
     Harris-Foulkes estimate   =   -1045.11676368 Ry
     estimated scf accuracy    <       0.00002133 Ry

     iteration #  4     ecut=    40.00 Ry     beta= 0.70
     Davidson diagonalization with overlap
     ethr =  1.12E-07,  avg # of iterations =  2.0

     total cpu time spent up to now is        1.7 secs

     total energy              =   -1045.11678618 Ry
     Harris-Foulkes estimate   =   -1045.11678561 Ry
     estimated scf accuracy    <       0.00000035 Ry

     iteration #  5     ecut=    40.00 Ry     beta= 0.70
     Davidson diagonalization with overlap
     ethr =  1.86E-09,  avg # of iterations =  2.0

     total cpu time spent up to now is        1.8 secs

     End of self-consistent calculation

          k = 0.0000 0.0000 0.0000 (   331 PWs)   bands (ev):

    -9.4617  -9.4617  -9.4617  -9.1350  -9.1350   9.0996  46.8317  46.8317
    46.8317  48.1606  54.0956  54.0956  54.0956  57.4172

          k =-0.2500 0.2500-0.2500 (   344 PWs)   bands (ev):

    -9.4349  -9.3986  -9.3986  -9.0776  -9.0776  11.6018  33.5311  44.4302
    44.4302  48.0907  53.2103  54.0538  54.0538  58.6957

          k = 0.5000-0.5000 0.5000 (   344 PWs)   bands (ev):

    -9.5084  -9.4347  -9.4347  -8.7962  -8.7962  17.1353  22.9911  42.6313
    42.6313  47.8352  51.1441  51.8779  51.8779  65.1442

          k = 0.0000 0.5000 0.0000 (   343 PWs)   bands (ev):

    -9.6535  -9.3284  -9.1449  -9.1449  -8.9915  12.4355  37.6751  39.1981
    39.1981  44.7534  45.7157  61.8392  61.8392  62.8114

          k = 0.7500-0.2500 0.7500 (   346 PWs)   bands (ev):

    -9.5672  -9.2920  -9.1439  -9.0347  -8.8255  17.7494  26.8094  33.6037
    38.0316  44.2734  53.3458  58.4932  59.0663  63.8217

          k = 0.5000 0.0000 0.5000 (   339 PWs)   bands (ev):

    -9.4097  -9.2813  -9.1592  -9.0677  -8.9409  15.5918  30.1136  32.0332
    42.2290  46.6600  54.9924  56.5811  57.3106  59.1496

          k = 0.0000-1.0000 0.0000 (   342 PWs)   bands (ev):

    -9.7613  -9.5445  -8.8089  -8.7886  -8.7886  20.6265  24.6538  35.2218
    35.2218  42.5575  43.2840  64.1344  70.0525  70.9503

          k =-0.5000-1.0000 0.0000 (   360 PWs)   bands (ev):

    -9.3462  -9.3416  -9.3416  -9.0960  -8.8616  20.9238  28.4130  28.4130
    31.8863  53.0620  53.4157  53.4157  56.3188  69.8864

     the Fermi energy is    44.8465 ev

!    total energy              =   -1045.11678622 Ry
     Harris-Foulkes estimate   =   -1045.11678622 Ry
     estimated scf accuracy    <          3.6E-09 Ry

     total all-electron energy =    -48490.569759 Ry

     The total energy is the sum of the following terms:

     one-electron contribution =       1.59281199 Ry
     hartree contribution      =      28.12635392 Ry
     xc contribution           =     -63.84043971 Ry
     ewald contribution        =    -242.33311992 Ry
     one-center paw contrib.   =    -768.66206115 Ry
     smearing contrib. (-TS)   =      -0.00033135 Ry

     convergence has been achieved in   5 iterations

     Forces acting on atoms (cartesian axes, Ry/au):

     atom    1 type  1   force =     0.00000000    0.00000000    0.00000000

     Total force =     0.000000     Total SCF correction =     0.000000


     Computing stress (Cartesian axis) and pressure

          total   stress  (Ry/bohr**3)                   (kbar)     P= 5046.24
   0.03430366   0.00000000   0.00000000       5046.24      0.00      0.00
   0.00000000   0.03430366  -0.00000000          0.00   5046.24     -0.00
   0.00000000  -0.00000000   0.03430366          0.00     -0.00   5046.24


     Writing output data file Fr.save/

     init_run     :      0.19s CPU      0.20s WALL (       1 calls)
     electrons    :      0.62s CPU      0.66s WALL (       1 calls)
     forces       :      0.01s CPU      0.02s WALL (       1 calls)
     stress       :      0.06s CPU      0.06s WALL (       1 calls)

     Called by init_run:
     wfcinit      :      0.01s CPU      0.01s WALL (       1 calls)
     potinit      :      0.05s CPU      0.05s WALL (       1 calls)
     hinit0       :      0.12s CPU      0.13s WALL (       1 calls)

     Called by electrons:
     c_bands      :      0.32s CPU      0.34s WALL (       6 calls)
     sum_band     :      0.05s CPU      0.06s WALL (       6 calls)
     v_of_rho     :      0.00s CPU      0.00s WALL (       6 calls)
     newd         :      0.02s CPU      0.02s WALL (       6 calls)
     PAW_pot      :      0.27s CPU      0.28s WALL (       6 calls)
     mix_rho      :      0.00s CPU      0.00s WALL (       6 calls)

     Called by c_bands:
     init_us_2    :      0.01s CPU      0.01s WALL (     120 calls)
     cegterg      :      0.29s CPU      0.32s WALL (      48 calls)

     Called by sum_band:
     sum_band:bec :      0.00s CPU      0.00s WALL (      48 calls)
     addusdens    :      0.02s CPU      0.02s WALL (       6 calls)

     Called by *egterg:
     h_psi        :      0.18s CPU      0.20s WALL (     172 calls)
     s_psi        :      0.01s CPU      0.01s WALL (     172 calls)
     g_psi        :      0.00s CPU      0.00s WALL (     116 calls)
     cdiaghg      :      0.07s CPU      0.07s WALL (     156 calls)

     Called by h_psi:
     h_psi:pot    :      0.18s CPU      0.20s WALL (     172 calls)
     h_psi:calbec :      0.01s CPU      0.01s WALL (     172 calls)
     vloc_psi     :      0.17s CPU      0.19s WALL (     172 calls)
     add_vuspsi   :      0.01s CPU      0.01s WALL (     172 calls)

     General routines
     calbec       :      0.02s CPU      0.02s WALL (     260 calls)
     fft          :      0.00s CPU      0.00s WALL (      34 calls)
     ffts         :      0.00s CPU      0.00s WALL (       6 calls)
     fftw         :      0.18s CPU      0.20s WALL (    4264 calls)

     Parallel routines
     fft_scatt_xy :      0.02s CPU      0.02s WALL (    4304 calls)
     fft_scatt_yz :      0.06s CPU      0.07s WALL (    4304 calls)

     PWSCF        :     1.85s CPU         1.94s WALL


   This run was terminated on:  22:32:14   7Apr2024            

=------------------------------------------------------------------------------=
   JOB DONE.
=------------------------------------------------------------------------------=
