
     Program PWSCF v.6.3MaX starts on  7Apr2024 at 23: 1:31 

     This program is part of the open-source Quantum ESPRESSO suite
     for quantum simulation of materials; please cite
         "P. Giannozzi et al., J. Phys.:Condens. Matter 21 395502 (2009);
         "P. Giannozzi et al., J. Phys.:Condens. Matter 29 465901 (2017);
          URL http://www.quantum-espresso.org", 
     in publications or presentations arising from this work. More details at
     http://www.quantum-espresso.org/quote

     Parallel version (MPI), running on     5 processors

     MPI processes distributed on     1 nodes
     R & G space division:  proc/nbgrp/npool/nimage =       5
     Waiting for input...
     Reading input from standard input

     Current dimensions of program PWSCF are:
     Max number of different atomic species (ntypx) = 10
     Max number of k-points (npk) =  40000
     Max angular momentum in pseudopotentials (lmaxx) =  3

     Subspace diagonalization in iterative solution of the eigenvalue problem:
     a serial algorithm will be used


     Parallelization info
     --------------------
     sticks:   dense  smooth     PW     G-vecs:    dense   smooth      PW
     Min         116     116     37                 1850     1850     327
     Max         117     117     38                 1853     1853     329
     Sum         583     583    187                 9257     9257    1639



     bravais-lattice index     =            2
     lattice parameter (alat)  =       6.8300  a.u.
     unit-cell volume          =      79.6530 (a.u.)^3
     number of atoms/cell      =            1
     number of atomic types    =            1
     number of electrons       =        19.00
     number of Kohn-Sham states=           14
     kinetic-energy cutoff     =      90.0000  Ry
     charge density cutoff     =     360.0000  Ry
     convergence threshold     =      1.0E-08
     mixing beta               =       0.7000
     number of iterations used =            8  plain     mixing
     Exchange-correlation      = LDA ( 1  1  0  0 0 0)

     celldm(1)=   6.830000  celldm(2)=   0.000000  celldm(3)=   0.000000
     celldm(4)=   0.000000  celldm(5)=   0.000000  celldm(6)=   0.000000

     crystal axes: (cart. coord. in units of alat)
               a(1) = (  -0.500000   0.000000   0.500000 )  
               a(2) = (   0.000000   0.500000   0.500000 )  
               a(3) = (  -0.500000   0.500000   0.000000 )  

     reciprocal axes: (cart. coord. in units 2 pi/alat)
               b(1) = ( -1.000000 -1.000000  1.000000 )  
               b(2) = (  1.000000  1.000000  1.000000 )  
               b(3) = ( -1.000000  1.000000 -1.000000 )  


     PseudoPot. # 1 for Fr read from file:
     /home/lorenzo/pseudos/Fr/Fr.pz-spdn-rrkjus_psl.1.0.0.UPF
     MD5 check sum: 5665a43a3d1ea02b0b7dc7a0ae9ace04
     Pseudo is Ultrasoft + core correction, Zval = 19.0
     Generated using "atomic" code by A. Dal Corso v.6.2.2
     Using radial grid of 1287 points,  6 beta functions with: 
                l(1) =   0
                l(2) =   0
                l(3) =   1
                l(4) =   1
                l(5) =   2
                l(6) =   2
     Q(r) pseudized with 0 coefficients 


     atomic species   valence    mass     pseudopotential
        Fr            19.00   223.00000     Fr( 1.00)

     48 Sym. Ops., with inversion, found



   Cartesian axes

     site n.     atom                  positions (alat units)
         1           Fr  tau(   1) = (   0.0000000   0.0000000   0.0000000  )

     number of k points=    16  gaussian smearing, width (Ry)=  0.0100
                       cart. coord. in units 2pi/alat
        k(    1) = (   0.0000000   0.0000000   0.0000000), wk =   0.0092593
        k(    2) = (  -0.1666667   0.1666667  -0.1666667), wk =   0.0740741
        k(    3) = (  -0.3333333   0.3333333  -0.3333333), wk =   0.0740741
        k(    4) = (   0.5000000  -0.5000000   0.5000000), wk =   0.0370370
        k(    5) = (   0.0000000   0.3333333   0.0000000), wk =   0.0555556
        k(    6) = (  -0.1666667   0.5000000  -0.1666667), wk =   0.2222222
        k(    7) = (   0.6666667  -0.3333333   0.6666667), wk =   0.2222222
        k(    8) = (   0.5000000  -0.1666667   0.5000000), wk =   0.2222222
        k(    9) = (   0.3333333   0.0000000   0.3333333), wk =   0.1111111
        k(   10) = (   0.0000000   0.6666667   0.0000000), wk =   0.0555556
        k(   11) = (   0.8333333  -0.1666667   0.8333333), wk =   0.2222222
        k(   12) = (   0.6666667  -0.0000000   0.6666667), wk =   0.1111111
        k(   13) = (   0.0000000  -1.0000000   0.0000000), wk =   0.0277778
        k(   14) = (   0.6666667  -0.3333333   1.0000000), wk =   0.2222222
        k(   15) = (   0.5000000  -0.1666667   0.8333333), wk =   0.2222222
        k(   16) = (  -0.3333333  -1.0000000   0.0000000), wk =   0.1111111

     Dense  grid:     9257 G-vectors     FFT dimensions: (  30,  30,  30)

     Estimated max dynamical RAM per process >       9.37 MB

     Estimated total dynamical RAM >      46.84 MB

     Initial potential from superposition of free atoms

     starting charge   18.97647, renormalised to   19.00000
     Starting wfcs are   10 randomized atomic wfcs +    4 random wfcs

     total cpu time spent up to now is        1.2 secs

     Self-consistent Calculation

     iteration #  1     ecut=    90.00 Ry     beta= 0.70
     Davidson diagonalization with overlap
     ethr =  1.00E-02,  avg # of iterations =  4.7

     Threshold (ethr) on eigenvalues was too large:
     Diagonalizing with lowered threshold

     Davidson diagonalization with overlap
     ethr =  9.14E-05,  avg # of iterations =  2.2

     total cpu time spent up to now is        1.8 secs

     total energy              =    -282.51285081 Ry
     Harris-Foulkes estimate   =    -282.52482084 Ry
     estimated scf accuracy    <       0.01726785 Ry

     iteration #  2     ecut=    90.00 Ry     beta= 0.70
     Davidson diagonalization with overlap
     ethr =  9.09E-05,  avg # of iterations =  2.0

     total cpu time spent up to now is        2.1 secs

     total energy              =    -282.51612884 Ry
     Harris-Foulkes estimate   =    -282.51664143 Ry
     estimated scf accuracy    <       0.00068188 Ry

     iteration #  3     ecut=    90.00 Ry     beta= 0.70
     Davidson diagonalization with overlap
     ethr =  3.59E-06,  avg # of iterations =  2.5

     total cpu time spent up to now is        2.4 secs

     total energy              =    -282.51625365 Ry
     Harris-Foulkes estimate   =    -282.51626831 Ry
     estimated scf accuracy    <       0.00002490 Ry

     iteration #  4     ecut=    90.00 Ry     beta= 0.70
     Davidson diagonalization with overlap
     ethr =  1.31E-07,  avg # of iterations =  2.0

     total cpu time spent up to now is        2.7 secs

     total energy              =    -282.51625631 Ry
     Harris-Foulkes estimate   =    -282.51625638 Ry
     estimated scf accuracy    <       0.00000013 Ry

     iteration #  5     ecut=    90.00 Ry     beta= 0.70
     Davidson diagonalization with overlap
     ethr =  7.07E-10,  avg # of iterations =  2.2

     total cpu time spent up to now is        3.0 secs

     End of self-consistent calculation

          k = 0.0000 0.0000 0.0000 (  1139 PWs)   bands (ev):

    -9.4815  -9.4815  -9.4815  -9.1356  -9.1356   9.1002  46.8894  46.8894
    46.8894  48.1008  53.6785  53.6785  53.6785  57.5216

          k =-0.1667 0.1667-0.1667 (  1167 PWs)   bands (ev):

    -9.4729  -9.4120  -9.4120  -9.1212  -9.1212  10.2136  38.5994  45.5008
    45.5008  47.9856  54.8005  55.5676  55.5676  56.1283

          k =-0.3333 0.3333-0.3333 (  1149 PWs)   bands (ev):

    -9.4663  -9.3999  -9.3999  -8.9601  -8.9601  13.5083  28.8726  43.5107
    43.5107  47.9619  51.9079  52.5642  52.5642  61.1940

          k = 0.5000-0.5000 0.5000 (  1158 PWs)   bands (ev):

    -9.4681  -9.4271  -9.4271  -8.8435  -8.8435  17.1326  23.0057  42.6584
    42.6584  47.8377  50.9685  51.5836  51.5836  65.1405

          k = 0.0000 0.3333 0.0000 (  1154 PWs)   bands (ev):

    -9.5645  -9.3134  -9.3134  -9.2235  -9.0649  10.5840  41.9756  41.9756
    42.1901  45.7589  49.1977  58.4257  59.0582  59.0582

          k =-0.1667 0.5000-0.1667 (  1151 PWs)   bands (ev):

    -9.5672  -9.3263  -9.2397  -9.1240  -8.9293  13.1638  32.5464  39.8592
    40.1540  45.5744  50.4368  57.8910  57.9358  58.7559

          k = 0.6667-0.3333 0.6667 (  1153 PWs)   bands (ev):

    -9.5082  -9.3405  -9.2787  -8.9930  -8.8361  17.2827  24.9495  37.0016
    39.9069  45.2474  55.2761  55.2891  58.1804  58.7317

          k = 0.5000-0.1667 0.5000 (  1144 PWs)   bands (ev):

    -9.4397  -9.3727  -9.2842  -8.9908  -8.9293  15.8889  27.1074  35.5859
    42.3204  46.6754  53.5237  54.0381  59.9713  60.3273

          k = 0.3333 0.0000 0.3333 (  1147 PWs)   bands (ev):

    -9.4559  -9.3732  -9.2982  -9.1858  -8.9928  12.0625  35.1542  37.0150
    46.1864  49.9251  51.1025  53.7223  54.7391  57.0958

          k = 0.0000 0.6667 0.0000 (  1150 PWs)   bands (ev):

    -9.7290  -9.4225  -8.9641  -8.9641  -8.9222  15.0049  32.5940  37.0492
    37.0492  43.6268  43.6945  64.3426  64.8811  64.8811

          k = 0.8333-0.1667 0.8333 (  1149 PWs)   bands (ev):

    -9.6847  -9.4288  -8.9783  -8.9211  -8.8177  18.6357  27.5771  32.0699
    36.5341  43.3095  48.5917  61.2198  63.0532  68.4124

          k = 0.6667-0.0000 0.6667 (  1141 PWs)   bands (ev):

    -9.5518  -9.1844  -9.1151  -9.0455  -8.9483  19.3757  28.0231  28.0586
    38.5466  44.3097  57.1669  58.7602  59.7629  62.3418

          k = 0.0000-1.0000 0.0000 (  1162 PWs)   bands (ev):

    -9.8105  -9.5320  -8.8502  -8.7825  -8.7825  20.6331  24.6537  35.2425
    35.2425  42.4616  42.9323  64.0809  70.0401  70.9654

          k = 0.6667-0.3333 1.0000 (  1151 PWs)   bands (ev):

    -9.5166  -9.3773  -9.1779  -8.9741  -8.9106  16.3148  30.1329  32.5858
    37.2674  49.2748  49.6774  54.5984  62.3856  64.7953

          k = 0.5000-0.1667 0.8333 (  1152 PWs)   bands (ev):

    -9.4315  -9.3578  -9.1451  -9.0583  -8.8525  19.4545  26.0641  31.5179
    35.1954  49.1419  52.4416  58.1491  58.1950  63.9704

          k =-0.3333-1.0000 0.0000 (  1142 PWs)   bands (ev):

    -9.5681  -9.4150  -9.0550  -8.9588  -8.7824  20.8575  26.3787  30.9644
    32.4906  48.7195  48.9175  58.0655  60.9522  68.4354

     the Fermi energy is    46.5647 ev

!    total energy              =    -282.51625635 Ry
     Harris-Foulkes estimate   =    -282.51625635 Ry
     estimated scf accuracy    <          1.9E-09 Ry

     The total energy is the sum of the following terms:

     one-electron contribution =      -4.51962919 Ry
     hartree contribution      =      28.23988231 Ry
     xc contribution           =     -63.90306578 Ry
     ewald contribution        =    -242.33311988 Ry
     smearing contrib. (-TS)   =      -0.00032382 Ry

     convergence has been achieved in   5 iterations

     Forces acting on atoms (cartesian axes, Ry/au):

     atom    1 type  1   force =     0.00000000    0.00000000    0.00000000

     Total force =     0.000000     Total SCF correction =     0.000000


     Computing stress (Cartesian axis) and pressure

          total   stress  (Ry/bohr**3)                   (kbar)     P= 7034.04
   0.04781644  -0.00000000   0.00000000       7034.04     -0.00      0.00
   0.00000000   0.04781644  -0.00000000          0.00   7034.04     -0.00
   0.00000000  -0.00000000   0.04781644          0.00     -0.00   7034.04


     Writing output data file Fr.save/

     init_run     :      0.33s CPU      0.34s WALL (       1 calls)
     electrons    :      1.73s CPU      1.79s WALL (       1 calls)
     forces       :      0.05s CPU      0.05s WALL (       1 calls)
     stress       :      0.15s CPU      0.15s WALL (       1 calls)

     Called by init_run:
     wfcinit      :      0.10s CPU      0.10s WALL (       1 calls)
     potinit      :      0.01s CPU      0.01s WALL (       1 calls)
     hinit0       :      0.21s CPU      0.21s WALL (       1 calls)

     Called by electrons:
     c_bands      :      1.40s CPU      1.45s WALL (       6 calls)
     sum_band     :      0.27s CPU      0.29s WALL (       6 calls)
     v_of_rho     :      0.01s CPU      0.01s WALL (       6 calls)
     newd         :      0.05s CPU      0.06s WALL (       6 calls)
     mix_rho      :      0.00s CPU      0.00s WALL (       6 calls)

     Called by c_bands:
     init_us_2    :      0.04s CPU      0.04s WALL (     240 calls)
     cegterg      :      1.35s CPU      1.40s WALL (      96 calls)

     Called by sum_band:
     sum_band:bec :      0.00s CPU      0.00s WALL (      96 calls)
     addusdens    :      0.05s CPU      0.05s WALL (       6 calls)

     Called by *egterg:
     h_psi        :      1.04s CPU      1.07s WALL (     363 calls)
     s_psi        :      0.03s CPU      0.03s WALL (     363 calls)
     g_psi        :      0.00s CPU      0.00s WALL (     251 calls)
     cdiaghg      :      0.15s CPU      0.16s WALL (     331 calls)

     Called by h_psi:
     h_psi:pot    :      1.03s CPU      1.07s WALL (     363 calls)
     h_psi:calbec :      0.05s CPU      0.05s WALL (     363 calls)
     vloc_psi     :      0.95s CPU      0.98s WALL (     363 calls)
     add_vuspsi   :      0.03s CPU      0.03s WALL (     363 calls)

     General routines
     calbec       :      0.08s CPU      0.08s WALL (     539 calls)
     fft          :      0.02s CPU      0.02s WALL (      34 calls)
     ffts         :      0.00s CPU      0.00s WALL (       6 calls)
     fftw         :      1.06s CPU      1.09s WALL (    8582 calls)

     Parallel routines
     fft_scatt_xy :      0.09s CPU      0.09s WALL (    8622 calls)
     fft_scatt_yz :      0.30s CPU      0.31s WALL (    8622 calls)

     PWSCF        :     3.16s CPU         3.28s WALL


   This run was terminated on:  23: 1:34   7Apr2024            

=------------------------------------------------------------------------------=
   JOB DONE.
=------------------------------------------------------------------------------=
