
     Program PWSCF v.6.3MaX starts on  7Apr2024 at 22:16:22 

     This program is part of the open-source Quantum ESPRESSO suite
     for quantum simulation of materials; please cite
         "P. Giannozzi et al., J. Phys.:Condens. Matter 21 395502 (2009);
         "P. Giannozzi et al., J. Phys.:Condens. Matter 29 465901 (2017);
          URL http://www.quantum-espresso.org", 
     in publications or presentations arising from this work. More details at
     http://www.quantum-espresso.org/quote

     Parallel version (MPI), running on     5 processors

     MPI processes distributed on     1 nodes
     R & G space division:  proc/nbgrp/npool/nimage =       5
     Waiting for input...
     Reading input from standard input

     Current dimensions of program PWSCF are:
     Max number of different atomic species (ntypx) = 10
     Max number of k-points (npk) =  40000
     Max angular momentum in pseudopotentials (lmaxx) =  3

     Subspace diagonalization in iterative solution of the eigenvalue problem:
     a serial algorithm will be used


     Parallelization info
     --------------------
     sticks:   dense  smooth     PW     G-vecs:    dense   smooth      PW
     Min         129     129     39                 2168     2168     351
     Max         130     130     40                 2171     2171     352
     Sum         649     649    199                10849    10849    1759



     bravais-lattice index     =            2
     lattice parameter (alat)  =       6.8300  a.u.
     unit-cell volume          =      79.6530 (a.u.)^3
     number of atoms/cell      =            1
     number of atomic types    =            1
     number of electrons       =        19.00
     number of Kohn-Sham states=           14
     kinetic-energy cutoff     =     100.0000  Ry
     charge density cutoff     =     400.0000  Ry
     convergence threshold     =      1.0E-08
     mixing beta               =       0.7000
     number of iterations used =            8  plain     mixing
     Exchange-correlation      = PBE ( 1  4  3  4 0 0)

     celldm(1)=   6.830000  celldm(2)=   0.000000  celldm(3)=   0.000000
     celldm(4)=   0.000000  celldm(5)=   0.000000  celldm(6)=   0.000000

     crystal axes: (cart. coord. in units of alat)
               a(1) = (  -0.500000   0.000000   0.500000 )  
               a(2) = (   0.000000   0.500000   0.500000 )  
               a(3) = (  -0.500000   0.500000   0.000000 )  

     reciprocal axes: (cart. coord. in units 2 pi/alat)
               b(1) = ( -1.000000 -1.000000  1.000000 )  
               b(2) = (  1.000000  1.000000  1.000000 )  
               b(3) = ( -1.000000  1.000000 -1.000000 )  


     PseudoPot. # 1 for Fr read from file:
     /home/lorenzo/pseudos/Fr/Fr.pbe-spdn-rrkjus_psl.1.0.0.UPF
     MD5 check sum: 07cabfa18982bd6b5b9d8ae5689d9732
     Pseudo is Ultrasoft + core correction, Zval = 19.0
     Generated using "atomic" code by A. Dal Corso v.6.2.2
     Using radial grid of 1287 points,  6 beta functions with: 
                l(1) =   0
                l(2) =   0
                l(3) =   1
                l(4) =   1
                l(5) =   2
                l(6) =   2
     Q(r) pseudized with 0 coefficients 


     atomic species   valence    mass     pseudopotential
        Fr            19.00   223.00000     Fr( 1.00)

     48 Sym. Ops., with inversion, found



   Cartesian axes

     site n.     atom                  positions (alat units)
         1           Fr  tau(   1) = (   0.0000000   0.0000000   0.0000000  )

     number of k points=     4  gaussian smearing, width (Ry)=  0.0100
                       cart. coord. in units 2pi/alat
        k(    1) = (   0.0000000   0.0000000   0.0000000), wk =   0.0740741
        k(    2) = (  -0.3333333   0.3333333  -0.3333333), wk =   0.5925926
        k(    3) = (   0.0000000   0.6666667   0.0000000), wk =   0.4444444
        k(    4) = (   0.6666667  -0.0000000   0.6666667), wk =   0.8888889

     Dense  grid:    10849 G-vectors     FFT dimensions: (  32,  32,  32)

     Estimated max dynamical RAM per process >      10.16 MB

     Estimated total dynamical RAM >      50.80 MB

     Initial potential from superposition of free atoms

     starting charge   18.97009, renormalised to   19.00000
     Starting wfcs are   10 randomized atomic wfcs +    4 random wfcs

     total cpu time spent up to now is        1.1 secs

     Self-consistent Calculation

     iteration #  1     ecut=   100.00 Ry     beta= 0.70
     Davidson diagonalization with overlap
     ethr =  1.00E-02,  avg # of iterations =  4.8

     Threshold (ethr) on eigenvalues was too large:
     Diagonalizing with lowered threshold

     Davidson diagonalization with overlap
     ethr =  6.88E-05,  avg # of iterations =  1.8

     total cpu time spent up to now is        1.4 secs

     total energy              =    -282.77732871 Ry
     Harris-Foulkes estimate   =    -282.78546524 Ry
     estimated scf accuracy    <       0.01297239 Ry

     iteration #  2     ecut=   100.00 Ry     beta= 0.70
     Davidson diagonalization with overlap
     ethr =  6.83E-05,  avg # of iterations =  2.0

     total cpu time spent up to now is        1.5 secs

     total energy              =    -282.77917865 Ry
     Harris-Foulkes estimate   =    -282.77945296 Ry
     estimated scf accuracy    <       0.00047487 Ry

     iteration #  3     ecut=   100.00 Ry     beta= 0.70
     Davidson diagonalization with overlap
     ethr =  2.50E-06,  avg # of iterations =  2.5

     total cpu time spent up to now is        1.6 secs

     total energy              =    -282.77923495 Ry
     Harris-Foulkes estimate   =    -282.77924509 Ry
     estimated scf accuracy    <       0.00002852 Ry

     iteration #  4     ecut=   100.00 Ry     beta= 0.70
     Davidson diagonalization with overlap
     ethr =  1.50E-07,  avg # of iterations =  1.8

     total cpu time spent up to now is        1.6 secs

     total energy              =    -282.77923724 Ry
     Harris-Foulkes estimate   =    -282.77923728 Ry
     estimated scf accuracy    <       0.00000018 Ry

     iteration #  5     ecut=   100.00 Ry     beta= 0.70
     Davidson diagonalization with overlap
     ethr =  9.63E-10,  avg # of iterations =  2.0

     total cpu time spent up to now is        1.8 secs

     End of self-consistent calculation

          k = 0.0000 0.0000 0.0000 (  1363 PWs)   bands (ev):

    -9.1723  -9.1723  -9.1723  -8.8321  -8.8321   9.4997  47.3173  47.3173
    47.3173  48.3256  53.8795  53.8795  53.8795  57.7896

          k =-0.3333 0.3333-0.3333 (  1356 PWs)   bands (ev):

    -9.1573  -9.0930  -9.0930  -8.6553  -8.6553  13.9235  29.2092  43.9144
    43.9144  48.1827  52.1975  52.7733  52.7733  61.4943

          k = 0.0000 0.6667 0.0000 (  1347 PWs)   bands (ev):

    -9.4192  -9.1185  -8.6566  -8.6566  -8.6195  15.4236  33.0105  37.3967
    37.3967  43.8134  43.9022  64.6305  65.1649  65.1649

          k = 0.6667-0.0000 0.6667 (  1316 PWs)   bands (ev):

    -9.2441  -8.8796  -8.8073  -8.7425  -8.6408  19.8680  28.3327  28.3556
    38.9029  44.5192  57.4512  59.0132  60.0323  62.6607

     the Fermi energy is    44.4886 ev

!    total energy              =    -282.77923727 Ry
     Harris-Foulkes estimate   =    -282.77923727 Ry
     estimated scf accuracy    <          2.2E-09 Ry

     The total energy is the sum of the following terms:

     one-electron contribution =      -4.11305355 Ry
     hartree contribution      =      28.27551652 Ry
     xc contribution           =     -64.60619697 Ry
     ewald contribution        =    -242.33311988 Ry
     smearing contrib. (-TS)   =      -0.00238339 Ry

     convergence has been achieved in   5 iterations

     Forces acting on atoms (cartesian axes, Ry/au):

     atom    1 type  1   force =     0.00000000    0.00000000    0.00000000

     Total force =     0.000000     Total SCF correction =     0.000000


     Computing stress (Cartesian axis) and pressure

          total   stress  (Ry/bohr**3)                   (kbar)     P= 7455.58
   0.05068199   0.00000000   0.00000000       7455.58      0.00      0.00
   0.00000000   0.05068199   0.00000000          0.00   7455.58      0.00
   0.00000000  -0.00000000   0.05068199          0.00     -0.00   7455.58


     Writing output data file Fr.save/

     init_run     :      0.25s CPU      0.25s WALL (       1 calls)
     electrons    :      0.58s CPU      0.62s WALL (       1 calls)
     forces       :      0.03s CPU      0.04s WALL (       1 calls)
     stress       :      0.11s CPU      0.11s WALL (       1 calls)

     Called by init_run:
     wfcinit      :      0.02s CPU      0.02s WALL (       1 calls)
     potinit      :      0.01s CPU      0.01s WALL (       1 calls)
     hinit0       :      0.20s CPU      0.20s WALL (       1 calls)

     Called by electrons:
     c_bands      :      0.35s CPU      0.38s WALL (       6 calls)
     sum_band     :      0.13s CPU      0.14s WALL (       6 calls)
     v_of_rho     :      0.04s CPU      0.04s WALL (       6 calls)
     newd         :      0.07s CPU      0.07s WALL (       6 calls)
     mix_rho      :      0.00s CPU      0.00s WALL (       6 calls)

     Called by c_bands:
     init_us_2    :      0.01s CPU      0.01s WALL (      60 calls)
     cegterg      :      0.34s CPU      0.37s WALL (      24 calls)

     Called by sum_band:
     sum_band:bec :      0.00s CPU      0.00s WALL (      24 calls)
     addusdens    :      0.07s CPU      0.07s WALL (       6 calls)

     Called by *egterg:
     h_psi        :      0.25s CPU      0.27s WALL (      87 calls)
     s_psi        :      0.01s CPU      0.01s WALL (      87 calls)
     g_psi        :      0.00s CPU      0.00s WALL (      59 calls)
     cdiaghg      :      0.04s CPU      0.04s WALL (      79 calls)

     Called by h_psi:
     h_psi:pot    :      0.25s CPU      0.27s WALL (      87 calls)
     h_psi:calbec :      0.01s CPU      0.02s WALL (      87 calls)
     vloc_psi     :      0.23s CPU      0.25s WALL (      87 calls)
     add_vuspsi   :      0.01s CPU      0.01s WALL (      87 calls)

     General routines
     calbec       :      0.02s CPU      0.02s WALL (     131 calls)
     fft          :      0.03s CPU      0.03s WALL (      93 calls)
     ffts         :      0.00s CPU      0.00s WALL (       6 calls)
     fftw         :      0.25s CPU      0.27s WALL (    2108 calls)

     Parallel routines
     fft_scatt_xy :      0.03s CPU      0.03s WALL (    2207 calls)
     fft_scatt_yz :      0.09s CPU      0.10s WALL (    2207 calls)

     PWSCF        :     1.86s CPU         1.93s WALL


   This run was terminated on:  22:16:24   7Apr2024            

=------------------------------------------------------------------------------=
   JOB DONE.
=------------------------------------------------------------------------------=
