
     Program PWSCF v.6.3MaX starts on  7Apr2024 at 22:33:51 

     This program is part of the open-source Quantum ESPRESSO suite
     for quantum simulation of materials; please cite
         "P. Giannozzi et al., J. Phys.:Condens. Matter 21 395502 (2009);
         "P. Giannozzi et al., J. Phys.:Condens. Matter 29 465901 (2017);
          URL http://www.quantum-espresso.org", 
     in publications or presentations arising from this work. More details at
     http://www.quantum-espresso.org/quote

     Parallel version (MPI), running on     5 processors

     MPI processes distributed on     1 nodes
     R & G space division:  proc/nbgrp/npool/nimage =       5
     Waiting for input...
     Reading input from standard input

     Current dimensions of program PWSCF are:
     Max number of different atomic species (ntypx) = 10
     Max number of k-points (npk) =  40000
     Max angular momentum in pseudopotentials (lmaxx) =  3

     Subspace diagonalization in iterative solution of the eigenvalue problem:
     a serial algorithm will be used


     Parallelization info
     --------------------
     sticks:   dense  smooth     PW     G-vecs:    dense   smooth      PW
     Min          59      59     19                  657      657     128
     Max          59      59     20                  658      658     130
     Sum         295     295     97                 3287     3287     645



     bravais-lattice index     =            2
     lattice parameter (alat)  =       6.8300  a.u.
     unit-cell volume          =      79.6530 (a.u.)^3
     number of atoms/cell      =            1
     number of atomic types    =            1
     number of electrons       =        19.00
     number of Kohn-Sham states=           14
     kinetic-energy cutoff     =      45.0000  Ry
     charge density cutoff     =     180.0000  Ry
     convergence threshold     =      1.0E-08
     mixing beta               =       0.7000
     number of iterations used =            8  plain     mixing
     Exchange-correlation      = LDA ( 1  1  0  0 0 0)

     celldm(1)=   6.830000  celldm(2)=   0.000000  celldm(3)=   0.000000
     celldm(4)=   0.000000  celldm(5)=   0.000000  celldm(6)=   0.000000

     crystal axes: (cart. coord. in units of alat)
               a(1) = (  -0.500000   0.000000   0.500000 )  
               a(2) = (   0.000000   0.500000   0.500000 )  
               a(3) = (  -0.500000   0.500000   0.000000 )  

     reciprocal axes: (cart. coord. in units 2 pi/alat)
               b(1) = ( -1.000000 -1.000000  1.000000 )  
               b(2) = (  1.000000  1.000000  1.000000 )  
               b(3) = ( -1.000000  1.000000 -1.000000 )  


     PseudoPot. # 1 for Fr read from file:
     /home/lorenzo/pseudos/Fr/Fr.pz-spdn-rrkjus_psl.1.0.0.UPF
     MD5 check sum: 5665a43a3d1ea02b0b7dc7a0ae9ace04
     Pseudo is Ultrasoft + core correction, Zval = 19.0
     Generated using "atomic" code by A. Dal Corso v.6.2.2
     Using radial grid of 1287 points,  6 beta functions with: 
                l(1) =   0
                l(2) =   0
                l(3) =   1
                l(4) =   1
                l(5) =   2
                l(6) =   2
     Q(r) pseudized with 0 coefficients 


     atomic species   valence    mass     pseudopotential
        Fr            19.00   223.00000     Fr( 1.00)

     48 Sym. Ops., with inversion, found



   Cartesian axes

     site n.     atom                  positions (alat units)
         1           Fr  tau(   1) = (   0.0000000   0.0000000   0.0000000  )

     number of k points=    56  gaussian smearing, width (Ry)=  0.0100
                       cart. coord. in units 2pi/alat
        k(    1) = (   0.0000000   0.0000000   0.0000000), wk =   0.0015026
        k(    2) = (  -0.0909091   0.0909091  -0.0909091), wk =   0.0120210
        k(    3) = (  -0.1818182   0.1818182  -0.1818182), wk =   0.0120210
        k(    4) = (  -0.2727273   0.2727273  -0.2727273), wk =   0.0120210
        k(    5) = (  -0.3636364   0.3636364  -0.3636364), wk =   0.0120210
        k(    6) = (  -0.4545455   0.4545455  -0.4545455), wk =   0.0120210
        k(    7) = (   0.0000000   0.1818182   0.0000000), wk =   0.0090158
        k(    8) = (  -0.0909091   0.2727273  -0.0909091), wk =   0.0360631
        k(    9) = (  -0.1818182   0.3636364  -0.1818182), wk =   0.0360631
        k(   10) = (  -0.2727273   0.4545455  -0.2727273), wk =   0.0360631
        k(   11) = (  -0.3636364   0.5454545  -0.3636364), wk =   0.0360631
        k(   12) = (   0.5454545  -0.3636364   0.5454545), wk =   0.0360631
        k(   13) = (   0.4545455  -0.2727273   0.4545455), wk =   0.0360631
        k(   14) = (   0.3636364  -0.1818182   0.3636364), wk =   0.0360631
        k(   15) = (   0.2727273  -0.0909091   0.2727273), wk =   0.0360631
        k(   16) = (   0.1818182  -0.0000000   0.1818182), wk =   0.0180316
        k(   17) = (   0.0000000   0.3636364   0.0000000), wk =   0.0090158
        k(   18) = (  -0.0909091   0.4545455  -0.0909091), wk =   0.0360631
        k(   19) = (  -0.1818182   0.5454545  -0.1818182), wk =   0.0360631
        k(   20) = (  -0.2727273   0.6363636  -0.2727273), wk =   0.0360631
        k(   21) = (   0.6363636  -0.2727273   0.6363636), wk =   0.0360631
        k(   22) = (   0.5454545  -0.1818182   0.5454545), wk =   0.0360631
        k(   23) = (   0.4545455  -0.0909091   0.4545455), wk =   0.0360631
        k(   24) = (   0.3636364   0.0000000   0.3636364), wk =   0.0180316
        k(   25) = (   0.0000000   0.5454545   0.0000000), wk =   0.0090158
        k(   26) = (  -0.0909091   0.6363636  -0.0909091), wk =   0.0360631
        k(   27) = (  -0.1818182   0.7272727  -0.1818182), wk =   0.0360631
        k(   28) = (   0.7272727  -0.1818182   0.7272727), wk =   0.0360631
        k(   29) = (   0.6363636  -0.0909091   0.6363636), wk =   0.0360631
        k(   30) = (   0.5454545   0.0000000   0.5454545), wk =   0.0180316
        k(   31) = (   0.0000000   0.7272727   0.0000000), wk =   0.0090158
        k(   32) = (  -0.0909091   0.8181818  -0.0909091), wk =   0.0360631
        k(   33) = (   0.8181818  -0.0909091   0.8181818), wk =   0.0360631
        k(   34) = (   0.7272727   0.0000000   0.7272727), wk =   0.0180316
        k(   35) = (   0.0000000   0.9090909   0.0000000), wk =   0.0090158
        k(   36) = (   0.9090909  -0.0000000   0.9090909), wk =   0.0180316
        k(   37) = (  -0.1818182   0.3636364   0.0000000), wk =   0.0360631
        k(   38) = (  -0.2727273   0.4545455  -0.0909091), wk =   0.0721262
        k(   39) = (  -0.3636364   0.5454545  -0.1818182), wk =   0.0721262
        k(   40) = (   0.5454545  -0.3636364   0.7272727), wk =   0.0721262
        k(   41) = (  -0.1818182   0.5454545   0.0000000), wk =   0.0360631
        k(   42) = (  -0.2727273   0.6363636  -0.0909091), wk =   0.0721262
        k(   43) = (   0.6363636  -0.2727273   0.8181818), wk =   0.0721262
        k(   44) = (   0.5454545  -0.1818182   0.7272727), wk =   0.0721262
        k(   45) = (   0.4545455  -0.0909091   0.6363636), wk =   0.0721262
        k(   46) = (   0.3636364   0.0000000   0.5454545), wk =   0.0360631
        k(   47) = (  -0.1818182   0.7272727   0.0000000), wk =   0.0360631
        k(   48) = (   0.7272727  -0.1818182   0.9090909), wk =   0.0721262
        k(   49) = (   0.6363636  -0.0909091   0.8181818), wk =   0.0721262
        k(   50) = (   0.5454545   0.0000000   0.7272727), wk =   0.0360631
        k(   51) = (   0.8181818  -0.0909091   1.0000000), wk =   0.0360631
        k(   52) = (   0.7272727   0.0000000   0.9090909), wk =   0.0360631
        k(   53) = (   0.6363636  -0.2727273   1.0000000), wk =   0.0360631
        k(   54) = (   0.5454545  -0.1818182   0.9090909), wk =   0.0721262
        k(   55) = (   0.6363636  -0.0909091   1.0000000), wk =   0.0360631
        k(   56) = (   0.5454545   0.0000000   0.9090909), wk =   0.0360631

     Dense  grid:     3287 G-vectors     FFT dimensions: (  24,  24,  24)

     Estimated max dynamical RAM per process >       4.67 MB

     Estimated total dynamical RAM >      23.33 MB

     Check: negative/imaginary core charge=   -0.000013    0.000000

     Initial potential from superposition of free atoms

     starting charge   18.97647, renormalised to   19.00000
     Starting wfcs are   10 randomized atomic wfcs +    4 random wfcs

     total cpu time spent up to now is        1.2 secs

     Self-consistent Calculation

     iteration #  1     ecut=    45.00 Ry     beta= 0.70
     Davidson diagonalization with overlap
     ethr =  1.00E-02,  avg # of iterations =  4.6

     Threshold (ethr) on eigenvalues was too large:
     Diagonalizing with lowered threshold

     Davidson diagonalization with overlap
     ethr =  9.82E-05,  avg # of iterations =  1.9

     total cpu time spent up to now is        2.4 secs

     total energy              =    -282.44030998 Ry
     Harris-Foulkes estimate   =    -282.45351434 Ry
     estimated scf accuracy    <       0.01869611 Ry

     iteration #  2     ecut=    45.00 Ry     beta= 0.70
     Davidson diagonalization with overlap
     ethr =  9.84E-05,  avg # of iterations =  2.0

     total cpu time spent up to now is        2.8 secs

     total energy              =    -282.44393284 Ry
     Harris-Foulkes estimate   =    -282.44453909 Ry
     estimated scf accuracy    <       0.00079503 Ry

     iteration #  3     ecut=    45.00 Ry     beta= 0.70
     Davidson diagonalization with overlap
     ethr =  4.18E-06,  avg # of iterations =  2.4

     total cpu time spent up to now is        3.4 secs

     total energy              =    -282.44410712 Ry
     Harris-Foulkes estimate   =    -282.44412515 Ry
     estimated scf accuracy    <       0.00003170 Ry

     iteration #  4     ecut=    45.00 Ry     beta= 0.70
     Davidson diagonalization with overlap
     ethr =  1.67E-07,  avg # of iterations =  2.0

     total cpu time spent up to now is        3.9 secs

     total energy              =    -282.44411137 Ry
     Harris-Foulkes estimate   =    -282.44411139 Ry
     estimated scf accuracy    <       0.00000013 Ry

     iteration #  5     ecut=    45.00 Ry     beta= 0.70
     Davidson diagonalization with overlap
     ethr =  6.83E-10,  avg # of iterations =  2.2

     total cpu time spent up to now is        4.4 secs

     End of self-consistent calculation

          k = 0.0000 0.0000 0.0000 (   411 PWs)   bands (ev):

    -9.5035  -9.5035  -9.5035  -9.1682  -9.1682   9.0973  46.8844  46.8844
    46.8844  48.0990  53.8482  53.8482  53.8482  57.5312

          k =-0.0909 0.0909-0.0909 (   405 PWs)   bands (ev):

    -9.4896  -9.4708  -9.4708  -9.1603  -9.1603   9.4281  43.3192  46.3921
    46.3921  47.9767  54.6669  54.6669  55.6488  57.4161

          k =-0.1818 0.1818-0.1818 (   396 PWs)   bands (ev):

    -9.4886  -9.4166  -9.4166  -9.1175  -9.1175  10.4224  37.6709  45.3203
    45.3203  48.0155  54.5030  55.3117  55.3117  56.6753

          k =-0.2727 0.2727-0.2727 (   395 PWs)   bands (ev):

    -9.4851  -9.3956  -9.3956  -9.0421  -9.0421  12.0723  32.2086  44.1718
    44.1718  48.0274  52.7978  53.5696  53.5696  59.3199

          k =-0.3636 0.3636-0.3636 (   407 PWs)   bands (ev):

    -9.4936  -9.4179  -9.4179  -8.9592  -8.9592  14.2998  27.3452  43.2388
    43.2388  47.9558  51.6395  52.3850  52.3850  62.2490

          k =-0.4545 0.4545-0.4545 (   407 PWs)   bands (ev):

    -9.4798  -9.4438  -9.4438  -8.8873  -8.8873  16.6286  23.6781  42.7180
    42.7180  47.8637  51.1298  51.8012  51.8012  64.7102

          k = 0.0000 0.1818 0.0000 (   399 PWs)   bands (ev):

    -9.5275  -9.4341  -9.4341  -9.1702  -9.1364   9.5383  44.7863  44.7863
    45.1872  47.1286  54.0042  55.5414  56.2124  56.2124

          k =-0.0909 0.2727-0.0909 (   398 PWs)   bands (ev):

    -9.5268  -9.3821  -9.3759  -9.1889  -9.1030  10.3113  39.7034  43.2771
    44.8250  48.0041  51.3874  55.4287  57.7935  58.0438

          k =-0.1818 0.3636-0.1818 (   400 PWs)   bands (ev):

    -9.5208  -9.3657  -9.3519  -9.1506  -9.0208  11.7442  34.1734  42.1233
    43.6425  47.9274  51.6589  55.3472  56.4103  56.7061

          k =-0.2727 0.4545-0.2727 (   405 PWs)   bands (ev):

    -9.5070  -9.3913  -9.3635  -9.0633  -8.9312  13.7910  29.1196  41.4650
    42.2016  46.9423  53.1217  54.5913  54.7540  57.5522

          k =-0.3636 0.5455-0.3636 (   409 PWs)   bands (ev):

    -9.4940  -9.4194  -9.3890  -8.9612  -8.8863  16.1900  24.9686  40.8616
    41.3986  46.5709  53.1774  53.5072  54.1829  60.7649

          k = 0.5455-0.3636 0.5455 (   405 PWs)   bands (ev):

    -9.4705  -9.4305  -9.3976  -8.9102  -8.8915  17.3124  23.4093  39.9492
    41.9828  46.7921  52.3731  52.7296  54.9699  63.9677

          k = 0.4545-0.2727 0.4545 (   407 PWs)   bands (ev):

    -9.4705  -9.4249  -9.3904  -8.9748  -8.9185  15.3907  26.2171  39.6030
    43.2000  47.5506  51.7544  52.4030  56.1077  61.4092

          k = 0.3636-0.1818 0.3636 (   405 PWs)   bands (ev):

    -9.4799  -9.3979  -9.3715  -9.0881  -8.9816  13.0463  30.7436  39.8460
    44.9039  48.7244  51.3862  52.5645  57.5842  58.1688

          k = 0.2727-0.0909 0.2727 (   392 PWs)   bands (ev):

    -9.4771  -9.3813  -9.3699  -9.1545  -9.0548  11.1943  35.9731  40.6508
    46.6464  49.4634  51.8756  53.3456  55.5103  57.2180

          k = 0.1818-0.0000 0.1818 (   395 PWs)   bands (ev):

    -9.4861  -9.4297  -9.4200  -9.1582  -9.1177   9.9801  41.1589  42.3006
    47.3578  48.7999  53.8460  54.1654  54.9942  56.3002

          k = 0.0000 0.3636 0.0000 (   399 PWs)   bands (ev):

    -9.5942  -9.2905  -9.2905  -9.2532  -9.0719  10.8632  41.4534  41.4541
    41.4541  45.5835  48.4658  59.2247  59.6246  59.6246

          k =-0.0909 0.4545-0.0909 (   401 PWs)   bands (ev):

    -9.6076  -9.3109  -9.2336  -9.1991  -9.0066  12.0755  36.3175  40.1077
    40.8743  45.8247  47.7747  59.1384  59.6891  60.4222

          k =-0.1818 0.5455-0.1818 (   403 PWs)   bands (ev):

    -9.5899  -9.3502  -9.2304  -9.1221  -8.9123  13.9158  31.2919  38.9723
    39.3675  45.2034  50.8926  58.0496  58.2409  59.4200

          k =-0.2727 0.6364-0.2727 (   407 PWs)   bands (ev):

    -9.5543  -9.3653  -9.2524  -9.0562  -8.8719  16.2196  26.9488  37.1133
    39.3139  44.9965  54.8848  56.5484  56.8893  59.4070

          k = 0.6364-0.2727 0.6364 (   402 PWs)   bands (ev):

    -9.5119  -9.3425  -9.2731  -9.0139  -8.8831  18.0397  24.3331  35.7117
    39.9869  45.2988  55.4223  55.4508  59.4426  60.1734

          k = 0.5455-0.1818 0.5455 (   406 PWs)   bands (ev):

    -9.4767  -9.3641  -9.2812  -8.9833  -8.9786  16.9513  25.8818  34.9206
    41.3683  46.0919  54.4260  54.7700  60.7257  61.2973

          k = 0.4545-0.0909 0.4545 (   406 PWs)   bands (ev):

    -9.4326  -9.4181  -9.2651  -9.1103  -8.9733  14.6268  29.8656  34.8418
    43.3456  47.4152  53.3442  54.5018  57.6736  59.1283

          k = 0.3636 0.0000 0.3636 (   397 PWs)   bands (ev):

    -9.4502  -9.3919  -9.2700  -9.1946  -9.0050  12.6155  34.0925  36.0608
    45.5548  49.2635  51.7258  54.2035  55.1292  57.4753

          k = 0.0000 0.5455 0.0000 (   415 PWs)   bands (ev):

    -9.6861  -9.3806  -9.1189  -9.1189  -9.0050  13.0661  36.3233  38.5446
    38.5446  44.3289  45.0234  62.6159  62.6159  63.9486

          k =-0.0909 0.6364-0.0909 (   411 PWs)   bands (ev):

    -9.6962  -9.4173  -9.0801  -9.0446  -8.9156  14.6903  32.7004  36.4857
    37.6130  44.0624  46.1286  61.6110  62.3960  64.8428

          k =-0.1818 0.7273-0.1818 (   413 PWs)   bands (ev):

    -9.6594  -9.4089  -9.1015  -9.0195  -8.8651  16.8248  28.8992  33.9402
    37.4033  43.8686  49.8241  59.9078  60.8447  64.8985

          k = 0.7273-0.1818 0.7273 (   409 PWs)   bands (ev):

    -9.5959  -9.3313  -9.1220  -9.0587  -8.8786  18.8757  26.0743  31.9213
    37.9549  44.1118  54.2405  58.6078  59.3678  65.2485

          k = 0.6364-0.0909 0.6364 (   404 PWs)   bands (ev):

    -9.5397  -9.2349  -9.1396  -9.1032  -8.9660  18.7441  26.4578  30.6437
    39.2387  44.7742  57.7109  58.0547  58.8636  62.1416

          k = 0.5455 0.0000 0.5455 (   407 PWs)   bands (ev):

    -9.4836  -9.3151  -9.1595  -9.0963  -9.0275  16.6898  29.1843  30.7989
    41.1370  45.8844  56.1600  56.9690  58.5603  59.7359

          k = 0.0000 0.7273 0.0000 (   416 PWs)   bands (ev):

    -9.7692  -9.4745  -8.9422  -8.9422  -8.9327  16.0946  30.7529  36.4610
    36.4610  43.3325  43.5005  64.2986  66.1303  66.1303

          k =-0.0909 0.8182-0.0909 (   412 PWs)   bands (ev):

    -9.7656  -9.4934  -8.9515  -8.9034  -8.8472  18.0144  28.1335  34.1394
    36.0359  43.1631  45.2633  62.9381  65.4922  68.8345

          k = 0.8182-0.0909 0.8182 (   411 PWs)   bands (ev):

    -9.6917  -9.4450  -8.9816  -8.9421  -8.8626  19.9358  26.3827  30.9472
    36.3873  43.3216  49.2581  61.4349  63.8588  67.6916

          k = 0.7273 0.0000 0.7273 (   403 PWs)   bands (ev):

    -9.6110  -9.3091  -9.0500  -9.0154  -8.9235  20.2110  26.9660  28.5152
    37.4930  43.8502  53.9677  59.9238  61.7833  64.1634

          k = 0.0000 0.9091 0.0000 (   404 PWs)   bands (ev):

    -9.8028  -9.5286  -8.8629  -8.8284  -8.8284  19.6197  25.8392  35.3768
    35.3768  42.6343  43.1240  64.1107  69.9468  69.9479

          k = 0.9091-0.0000 0.9091 (   412 PWs)   bands (ev):

    -9.7851  -9.5203  -8.9027  -8.8513  -8.8244  20.6672  24.9141  33.4705
    35.4969  42.8935  44.9931  63.3304  68.1035  69.5047

          k =-0.1818 0.3636 0.0000 (   400 PWs)   bands (ev):

    -9.5353  -9.3490  -9.3028  -9.2189  -9.0480  11.3043  37.5313  39.1687
    44.8644  48.2405  49.5102  56.0127  56.6623  59.0139

          k =-0.2727 0.4545-0.0909 (   405 PWs)   bands (ev):

    -9.5188  -9.3678  -9.2753  -9.1708  -8.9797  12.9429  32.7918  37.6487
    43.0634  48.0234  51.2271  54.4867  56.8741  60.6829

          k =-0.3636 0.5455-0.1818 (   405 PWs)   bands (ev):

    -9.4859  -9.4018  -9.2900  -9.0636  -8.9178  15.1348  28.1174  37.1560
    41.1516  47.4144  52.2491  55.6631  57.2979  59.3849

          k = 0.5455-0.3636 0.7273 (   407 PWs)   bands (ev):

    -9.4586  -9.4340  -9.2933  -8.9955  -8.8946  17.3801  24.5957  37.1122
    39.9151  47.0913  51.8683  57.0628  58.1092  60.2929

          k =-0.1818 0.5455 0.0000 (   411 PWs)   bands (ev):

    -9.6236  -9.3675  -9.1912  -9.1292  -8.9592  13.4940  34.1533  36.5113
    39.7304  46.8360  47.0017  57.8015  61.0951  63.9162

          k =-0.2727 0.6364-0.0909 (   407 PWs)   bands (ev):

    -9.5857  -9.3854  -9.1886  -9.0537  -8.9052  15.4914  30.2158  34.9303
    37.9678  46.5653  50.3434  56.0272  61.6311  63.1419

          k = 0.6364-0.2727 0.8182 (   408 PWs)   bands (ev):

    -9.5342  -9.3700  -9.1892  -9.0513  -8.8857  17.7560  26.5428  33.9318
    37.1539  46.6222  53.7292  55.4711  61.2841  62.4520

          k = 0.5455-0.1818 0.7273 (   403 PWs)   bands (ev):

    -9.4871  -9.3504  -9.1561  -9.0864  -8.9054  18.7212  25.2688  33.0095
    37.6284  47.1222  53.3699  59.2110  60.2942  60.7405

          k = 0.4545-0.0909 0.6364 (   407 PWs)   bands (ev):

    -9.4477  -9.3991  -9.1949  -9.0570  -8.9660  16.9688  27.8293  32.5640
    39.0164  48.0577  52.6946  56.4580  59.5088  62.7245

          k = 0.3636 0.0000 0.5455 (   406 PWs)   bands (ev):

    -9.4709  -9.4022  -9.2144  -9.1304  -8.9606  14.7441  31.3254  33.4407
    40.9984  49.1708  51.3371  54.1709  58.6190  61.4621

          k =-0.1818 0.7273 0.0000 (   412 PWs)   bands (ev):

    -9.6973  -9.4498  -9.0638  -8.9427  -8.8959  16.4718  30.3275  34.6012
    35.8048  45.6445  45.8249  59.9281  65.8708  66.0837

          k = 0.7273-0.1818 0.9091 (   409 PWs)   bands (ev):

    -9.6402  -9.4258  -9.0816  -8.9518  -8.8649  18.5956  27.8410  32.0035
    35.1461  45.7572  49.5903  58.2293  64.2975  66.3345

          k = 0.6364-0.0909 0.8182 (   404 PWs)   bands (ev):

    -9.5663  -9.3186  -9.1299  -9.0274  -8.8788  19.9860  26.6342  29.7959
    35.7204  46.2159  54.1499  56.8839  61.1642  63.9244

          k = 0.5455 0.0000 0.7273 (   401 PWs)   bands (ev):

    -9.5039  -9.2582  -9.1831  -9.0597  -8.9450  18.9753  28.1327  28.9047
    37.0804  47.0842  55.3352  57.7294  59.0321  62.0676

          k = 0.8182-0.0909 1.0000 (   410 PWs)   bands (ev):

    -9.7490  -9.4961  -8.9474  -8.8847  -8.8282  19.8259  26.1833  33.5985
    34.1247  45.0296  45.3094  61.8031  66.4067  68.7924

          k = 0.7273 0.0000 0.9091 (   409 PWs)   bands (ev):

    -9.6591  -9.4408  -9.0043  -8.9596  -8.8345  20.7425  25.9483  30.7404
    34.4478  45.4999  49.3265  59.8926  63.3634  66.7277

          k = 0.6364-0.2727 1.0000 (   410 PWs)   bands (ev):

    -9.5163  -9.4120  -9.1934  -8.9625  -8.9509  17.5269  29.1197  31.5743
    35.8827  49.7779  50.2422  54.6007  63.8734  63.8922

          k = 0.5455-0.1818 0.9091 (   405 PWs)   bands (ev):

    -9.4481  -9.3822  -9.2014  -9.0397  -8.8770  19.4601  27.0375  30.6509
    34.5554  49.8186  52.6109  55.4969  59.7082  65.1121

          k = 0.6364-0.0909 1.0000 (   408 PWs)   bands (ev):

    -9.5428  -9.4139  -9.1371  -8.9918  -8.8310  20.3003  27.1552  30.6017
    32.7243  49.6662  49.8706  56.5501  60.7854  68.6237

          k = 0.5455 0.0000 0.9091 (   404 PWs)   bands (ev):

    -9.4493  -9.3291  -9.2629  -9.0328  -8.8306  20.6787  27.9133  28.6384
    32.8636  50.2946  54.3729  54.7016  57.0786  67.6921

     the Fermi energy is    46.6225 ev

!    total energy              =    -282.44411141 Ry
     Harris-Foulkes estimate   =    -282.44411141 Ry
     estimated scf accuracy    <          4.9E-09 Ry

     The total energy is the sum of the following terms:

     one-electron contribution =      -4.40962652 Ry
     hartree contribution      =      28.18162962 Ry
     xc contribution           =     -63.88239898 Ry
     ewald contribution        =    -242.33311996 Ry
     smearing contrib. (-TS)   =      -0.00059557 Ry

     convergence has been achieved in   5 iterations

     Forces acting on atoms (cartesian axes, Ry/au):

     atom    1 type  1   force =     0.00000000    0.00000000    0.00000000

     Total force =     0.000000     Total SCF correction =     0.000000


     Computing stress (Cartesian axis) and pressure

          total   stress  (Ry/bohr**3)                   (kbar)     P= 6437.93
   0.04376417  -0.00000000   0.00000000       6437.93     -0.00      0.00
  -0.00000000   0.04376417  -0.00000000         -0.00   6437.93     -0.00
   0.00000000  -0.00000000   0.04376417          0.00     -0.00   6437.93


     Writing output data file Fr.save/

     init_run     :      0.26s CPU      0.27s WALL (       1 calls)
     electrons    :      3.01s CPU      3.22s WALL (       1 calls)
     forces       :      0.03s CPU      0.03s WALL (       1 calls)
     stress       :      0.10s CPU      0.10s WALL (       1 calls)

     Called by init_run:
     wfcinit      :      0.12s CPU      0.13s WALL (       1 calls)
     potinit      :      0.00s CPU      0.00s WALL (       1 calls)
     hinit0       :      0.13s CPU      0.13s WALL (       1 calls)

     Called by electrons:
     c_bands      :      2.58s CPU      2.76s WALL (       6 calls)
     sum_band     :      0.40s CPU      0.43s WALL (       6 calls)
     v_of_rho     :      0.00s CPU      0.00s WALL (       6 calls)
     newd         :      0.02s CPU      0.02s WALL (       6 calls)
     mix_rho      :      0.00s CPU      0.00s WALL (       6 calls)

     Called by c_bands:
     init_us_2    :      0.05s CPU      0.05s WALL (     840 calls)
     cegterg      :      2.51s CPU      2.68s WALL (     336 calls)

     Called by sum_band:
     sum_band:bec :      0.00s CPU      0.00s WALL (     336 calls)
     addusdens    :      0.02s CPU      0.02s WALL (       6 calls)

     Called by *egterg:
     h_psi        :      1.74s CPU      1.87s WALL (    1236 calls)
     s_psi        :      0.05s CPU      0.05s WALL (    1236 calls)
     g_psi        :      0.00s CPU      0.01s WALL (     844 calls)
     cdiaghg      :      0.49s CPU      0.52s WALL (    1124 calls)

     Called by h_psi:
     h_psi:pot    :      1.73s CPU      1.86s WALL (    1236 calls)
     h_psi:calbec :      0.07s CPU      0.08s WALL (    1236 calls)
     vloc_psi     :      1.60s CPU      1.72s WALL (    1236 calls)
     add_vuspsi   :      0.05s CPU      0.05s WALL (    1236 calls)

     General routines
     calbec       :      0.12s CPU      0.13s WALL (    1852 calls)
     fft          :      0.00s CPU      0.00s WALL (      34 calls)
     ffts         :      0.00s CPU      0.00s WALL (       6 calls)
     fftw         :      1.77s CPU      1.91s WALL (   30328 calls)

     Parallel routines
     fft_scatt_xy :      0.17s CPU      0.18s WALL (   30368 calls)
     fft_scatt_yz :      0.51s CPU      0.54s WALL (   30368 calls)

     PWSCF        :     4.35s CPU         4.64s WALL


   This run was terminated on:  22:33:56   7Apr2024            

=------------------------------------------------------------------------------=
   JOB DONE.
=------------------------------------------------------------------------------=
