
     Program PWSCF v.6.3MaX starts on  7Apr2024 at 22:41:47 

     This program is part of the open-source Quantum ESPRESSO suite
     for quantum simulation of materials; please cite
         "P. Giannozzi et al., J. Phys.:Condens. Matter 21 395502 (2009);
         "P. Giannozzi et al., J. Phys.:Condens. Matter 29 465901 (2017);
          URL http://www.quantum-espresso.org", 
     in publications or presentations arising from this work. More details at
     http://www.quantum-espresso.org/quote

     Parallel version (MPI), running on     5 processors

     MPI processes distributed on     1 nodes
     R & G space division:  proc/nbgrp/npool/nimage =       5
     Waiting for input...
     Reading input from standard input

     Current dimensions of program PWSCF are:
     Max number of different atomic species (ntypx) = 10
     Max number of k-points (npk) =  40000
     Max angular momentum in pseudopotentials (lmaxx) =  3
               file Fr.pbe-spdn-kjpaw_psl.1.0.0.UPF: wavefunction(s)  6P renormalized

     Subspace diagonalization in iterative solution of the eigenvalue problem:
     a serial algorithm will be used


     Parallelization info
     --------------------
     sticks:   dense  smooth     PW     G-vecs:    dense   smooth      PW
     Min          75      75     24                 1003     1003     173
     Max          76      76     25                 1007     1007     174
     Sum         379     379    121                 5029     5029     869



     bravais-lattice index     =            2
     lattice parameter (alat)  =       6.8300  a.u.
     unit-cell volume          =      79.6530 (a.u.)^3
     number of atoms/cell      =            1
     number of atomic types    =            1
     number of electrons       =        19.00
     number of Kohn-Sham states=           14
     kinetic-energy cutoff     =      60.0000  Ry
     charge density cutoff     =     240.0000  Ry
     convergence threshold     =      1.0E-08
     mixing beta               =       0.7000
     number of iterations used =            8  plain     mixing
     Exchange-correlation      = SLA PW PBX PBC ( 1  4  3  4 0 0)

     celldm(1)=   6.830000  celldm(2)=   0.000000  celldm(3)=   0.000000
     celldm(4)=   0.000000  celldm(5)=   0.000000  celldm(6)=   0.000000

     crystal axes: (cart. coord. in units of alat)
               a(1) = (  -0.500000   0.000000   0.500000 )  
               a(2) = (   0.000000   0.500000   0.500000 )  
               a(3) = (  -0.500000   0.500000   0.000000 )  

     reciprocal axes: (cart. coord. in units 2 pi/alat)
               b(1) = ( -1.000000 -1.000000  1.000000 )  
               b(2) = (  1.000000  1.000000  1.000000 )  
               b(3) = ( -1.000000  1.000000 -1.000000 )  


     PseudoPot. # 1 for Fr read from file:
     /home/lorenzo/pseudos/Fr/Fr.pbe-spdn-kjpaw_psl.1.0.0.UPF
     MD5 check sum: 362a188b966a64328b94f1ef5f32e8c4
     Pseudo is Projector augmented-wave + core cor, Zval = 19.0
     Generated using "atomic" code by A. Dal Corso v.6.2.2
     Shape of augmentation charge: PSQ
     Using radial grid of 1287 points,  6 beta functions with: 
                l(1) =   0
                l(2) =   0
                l(3) =   1
                l(4) =   1
                l(5) =   2
                l(6) =   2
     Q(r) pseudized with 0 coefficients 


     atomic species   valence    mass     pseudopotential
        Fr            19.00   223.00000     Fr( 1.00)

     48 Sym. Ops., with inversion, found



   Cartesian axes

     site n.     atom                  positions (alat units)
         1           Fr  tau(   1) = (   0.0000000   0.0000000   0.0000000  )

     number of k points=     4  gaussian smearing, width (Ry)=  0.0100
                       cart. coord. in units 2pi/alat
        k(    1) = (   0.0000000   0.0000000   0.0000000), wk =   0.0740741
        k(    2) = (  -0.3333333   0.3333333  -0.3333333), wk =   0.5925926
        k(    3) = (   0.0000000   0.6666667   0.0000000), wk =   0.4444444
        k(    4) = (   0.6666667  -0.0000000   0.6666667), wk =   0.8888889

     Dense  grid:     5029 G-vectors     FFT dimensions: (  24,  24,  24)

     Estimated max dynamical RAM per process >       5.23 MB

     Estimated total dynamical RAM >      26.13 MB

     Check: negative/imaginary core charge=   -0.000002    0.000000

     Initial potential from superposition of free atoms

     starting charge   18.97009, renormalised to   19.00000
     Starting wfcs are   10 randomized atomic wfcs +    4 random wfcs
     Checking if some PAW data can be deallocated... 

     total cpu time spent up to now is        1.5 secs

     Self-consistent Calculation

     iteration #  1     ecut=    60.00 Ry     beta= 0.70
     Davidson diagonalization with overlap
     ethr =  1.00E-02,  avg # of iterations =  4.2

     Threshold (ethr) on eigenvalues was too large:
     Diagonalizing with lowered threshold

     Davidson diagonalization with overlap
     ethr =  6.90E-05,  avg # of iterations =  1.8

     total cpu time spent up to now is        1.9 secs

     total energy              =   -1069.87649200 Ry
     Harris-Foulkes estimate   =   -1069.88477066 Ry
     estimated scf accuracy    <       0.01287391 Ry

     iteration #  2     ecut=    60.00 Ry     beta= 0.70
     Davidson diagonalization with overlap
     ethr =  6.78E-05,  avg # of iterations =  2.0

     total cpu time spent up to now is        2.0 secs

     total energy              =   -1069.87823938 Ry
     Harris-Foulkes estimate   =   -1069.87842423 Ry
     estimated scf accuracy    <       0.00044135 Ry

     iteration #  3     ecut=    60.00 Ry     beta= 0.70
     Davidson diagonalization with overlap
     ethr =  2.32E-06,  avg # of iterations =  2.5

     total cpu time spent up to now is        2.2 secs

     total energy              =   -1069.87827222 Ry
     Harris-Foulkes estimate   =   -1069.87827604 Ry
     estimated scf accuracy    <       0.00001968 Ry

     iteration #  4     ecut=    60.00 Ry     beta= 0.70
     Davidson diagonalization with overlap
     ethr =  1.04E-07,  avg # of iterations =  2.2

     total cpu time spent up to now is        2.3 secs

     total energy              =   -1069.87827639 Ry
     Harris-Foulkes estimate   =   -1069.87827610 Ry
     estimated scf accuracy    <       0.00000024 Ry

     iteration #  5     ecut=    60.00 Ry     beta= 0.70
     Davidson diagonalization with overlap
     ethr =  1.28E-09,  avg # of iterations =  2.0

     total cpu time spent up to now is        2.5 secs

     total energy              =   -1069.87827645 Ry
     Harris-Foulkes estimate   =   -1069.87827643 Ry
     estimated scf accuracy    <       0.00000002 Ry

     iteration #  6     ecut=    60.00 Ry     beta= 0.70
     Davidson diagonalization with overlap
     ethr =  9.19E-11,  avg # of iterations =  2.0

     total cpu time spent up to now is        2.7 secs

     End of self-consistent calculation

          k = 0.0000 0.0000 0.0000 (   609 PWs)   bands (ev):

    -9.1216  -9.1216  -9.1216  -8.7818  -8.7818   9.4969  47.2983  47.2983
    47.2983  48.3243  53.8942  53.8942  53.8942  57.7801

          k =-0.3333 0.3333-0.3333 (   613 PWs)   bands (ev):

    -9.1079  -9.0421  -9.0421  -8.6053  -8.6053  13.9198  29.2014  43.8988
    43.8988  48.1824  52.1960  52.7830  52.7830  61.4948

          k = 0.0000 0.6667 0.0000 (   624 PWs)   bands (ev):

    -9.3685  -9.0693  -8.6076  -8.6076  -8.5708  15.4192  32.9992  37.3855
    37.3855  43.8228  43.9051  64.6353  65.1612  65.1612

          k = 0.6667-0.0000 0.6667 (   634 PWs)   bands (ev):

    -9.1942  -8.8319  -8.7599  -8.6940  -8.5925  19.8626  28.3259  28.3483
    38.8912  44.5237  57.4500  59.0184  60.0298  62.6587

     the Fermi energy is    44.4930 ev

!    total energy              =   -1069.87827645 Ry
     Harris-Foulkes estimate   =   -1069.87827645 Ry
     estimated scf accuracy    <          6.1E-10 Ry

     total all-electron energy =    -48515.488588 Ry

     The total energy is the sum of the following terms:

     one-electron contribution =       1.50965303 Ry
     hartree contribution      =      28.28162903 Ry
     xc contribution           =     -64.60708716 Ry
     ewald contribution        =    -242.33311991 Ry
     one-center paw contrib.   =    -792.72696805 Ry
     smearing contrib. (-TS)   =      -0.00238339 Ry

     convergence has been achieved in   6 iterations

     Forces acting on atoms (cartesian axes, Ry/au):

     atom    1 type  1   force =     0.00000000    0.00000000    0.00000000

     Total force =     0.000000     Total SCF correction =     0.000000


     Computing stress (Cartesian axis) and pressure

          total   stress  (Ry/bohr**3)                   (kbar)     P= 7402.67
   0.05032230  -0.00000000   0.00000000       7402.67     -0.00      0.00
  -0.00000000   0.05032230   0.00000000         -0.00   7402.67      0.00
   0.00000000  -0.00000000   0.05032230          0.00     -0.00   7402.67


     Writing output data file Fr.save/

     init_run     :      0.29s CPU      0.31s WALL (       1 calls)
     electrons    :      1.03s CPU      1.13s WALL (       1 calls)
     forces       :      0.02s CPU      0.02s WALL (       1 calls)
     stress       :      0.06s CPU      0.06s WALL (       1 calls)

     Called by init_run:
     wfcinit      :      0.01s CPU      0.01s WALL (       1 calls)
     potinit      :      0.10s CPU      0.11s WALL (       1 calls)
     hinit0       :      0.15s CPU      0.16s WALL (       1 calls)

     Called by electrons:
     c_bands      :      0.27s CPU      0.29s WALL (       7 calls)
     sum_band     :      0.09s CPU      0.09s WALL (       7 calls)
     v_of_rho     :      0.02s CPU      0.02s WALL (       7 calls)
     newd         :      0.04s CPU      0.04s WALL (       7 calls)
     PAW_pot      :      0.71s CPU      0.80s WALL (       7 calls)
     mix_rho      :      0.00s CPU      0.00s WALL (       7 calls)

     Called by c_bands:
     init_us_2    :      0.01s CPU      0.01s WALL (      68 calls)
     cegterg      :      0.26s CPU      0.28s WALL (      28 calls)

     Called by sum_band:
     sum_band:bec :      0.00s CPU      0.00s WALL (      28 calls)
     addusdens    :      0.04s CPU      0.04s WALL (       7 calls)

     Called by *egterg:
     h_psi        :      0.18s CPU      0.19s WALL (      99 calls)
     s_psi        :      0.01s CPU      0.01s WALL (      99 calls)
     g_psi        :      0.00s CPU      0.00s WALL (      67 calls)
     cdiaghg      :      0.04s CPU      0.05s WALL (      91 calls)

     Called by h_psi:
     h_psi:pot    :      0.18s CPU      0.19s WALL (      99 calls)
     h_psi:calbec :      0.01s CPU      0.01s WALL (      99 calls)
     vloc_psi     :      0.16s CPU      0.18s WALL (      99 calls)
     add_vuspsi   :      0.01s CPU      0.01s WALL (      99 calls)

     General routines
     calbec       :      0.01s CPU      0.01s WALL (     147 calls)
     fft          :      0.01s CPU      0.01s WALL (     104 calls)
     ffts         :      0.00s CPU      0.00s WALL (       7 calls)
     fftw         :      0.18s CPU      0.19s WALL (    2446 calls)

     Parallel routines
     fft_scatt_xy :      0.02s CPU      0.02s WALL (    2557 calls)
     fft_scatt_yz :      0.05s CPU      0.06s WALL (    2557 calls)

     PWSCF        :     2.61s CPU         2.77s WALL


   This run was terminated on:  22:41:50   7Apr2024            

=------------------------------------------------------------------------------=
   JOB DONE.
=------------------------------------------------------------------------------=
