
     Program PWSCF v.6.3MaX starts on  7Apr2024 at 22:58:51 

     This program is part of the open-source Quantum ESPRESSO suite
     for quantum simulation of materials; please cite
         "P. Giannozzi et al., J. Phys.:Condens. Matter 21 395502 (2009);
         "P. Giannozzi et al., J. Phys.:Condens. Matter 29 465901 (2017);
          URL http://www.quantum-espresso.org", 
     in publications or presentations arising from this work. More details at
     http://www.quantum-espresso.org/quote

     Parallel version (MPI), running on     5 processors

     MPI processes distributed on     1 nodes
     R & G space division:  proc/nbgrp/npool/nimage =       5
     Waiting for input...
     Reading input from standard input

     Current dimensions of program PWSCF are:
     Max number of different atomic species (ntypx) = 10
     Max number of k-points (npk) =  40000
     Max angular momentum in pseudopotentials (lmaxx) =  3

     Subspace diagonalization in iterative solution of the eigenvalue problem:
     a serial algorithm will be used


     Parallelization info
     --------------------
     sticks:   dense  smooth     PW     G-vecs:    dense   smooth      PW
     Min         109     109     32                 1678     1678     290
     Max         110     110     33                 1680     1680     293
     Sum         547     547    163                 8393     8393    1459



     bravais-lattice index     =            2
     lattice parameter (alat)  =       6.8300  a.u.
     unit-cell volume          =      79.6530 (a.u.)^3
     number of atoms/cell      =            1
     number of atomic types    =            1
     number of electrons       =        19.00
     number of Kohn-Sham states=           14
     kinetic-energy cutoff     =      85.0000  Ry
     charge density cutoff     =     340.0000  Ry
     convergence threshold     =      1.0E-08
     mixing beta               =       0.7000
     number of iterations used =            8  plain     mixing
     Exchange-correlation      = PBE ( 1  4  3  4 0 0)

     celldm(1)=   6.830000  celldm(2)=   0.000000  celldm(3)=   0.000000
     celldm(4)=   0.000000  celldm(5)=   0.000000  celldm(6)=   0.000000

     crystal axes: (cart. coord. in units of alat)
               a(1) = (  -0.500000   0.000000   0.500000 )  
               a(2) = (   0.000000   0.500000   0.500000 )  
               a(3) = (  -0.500000   0.500000   0.000000 )  

     reciprocal axes: (cart. coord. in units 2 pi/alat)
               b(1) = ( -1.000000 -1.000000  1.000000 )  
               b(2) = (  1.000000  1.000000  1.000000 )  
               b(3) = ( -1.000000  1.000000 -1.000000 )  


     PseudoPot. # 1 for Fr read from file:
     /home/lorenzo/pseudos/Fr/Fr.pbe-spdn-rrkjus_psl.1.0.0.UPF
     MD5 check sum: 07cabfa18982bd6b5b9d8ae5689d9732
     Pseudo is Ultrasoft + core correction, Zval = 19.0
     Generated using "atomic" code by A. Dal Corso v.6.2.2
     Using radial grid of 1287 points,  6 beta functions with: 
                l(1) =   0
                l(2) =   0
                l(3) =   1
                l(4) =   1
                l(5) =   2
                l(6) =   2
     Q(r) pseudized with 0 coefficients 


     atomic species   valence    mass     pseudopotential
        Fr            19.00   223.00000     Fr( 1.00)

     48 Sym. Ops., with inversion, found



   Cartesian axes

     site n.     atom                  positions (alat units)
         1           Fr  tau(   1) = (   0.0000000   0.0000000   0.0000000  )

     number of k points=    35  gaussian smearing, width (Ry)=  0.0100
                       cart. coord. in units 2pi/alat
        k(    1) = (   0.0000000   0.0000000   0.0000000), wk =   0.0027435
        k(    2) = (  -0.1111111   0.1111111  -0.1111111), wk =   0.0219479
        k(    3) = (  -0.2222222   0.2222222  -0.2222222), wk =   0.0219479
        k(    4) = (  -0.3333333   0.3333333  -0.3333333), wk =   0.0219479
        k(    5) = (  -0.4444444   0.4444444  -0.4444444), wk =   0.0219479
        k(    6) = (   0.0000000   0.2222222   0.0000000), wk =   0.0164609
        k(    7) = (  -0.1111111   0.3333333  -0.1111111), wk =   0.0658436
        k(    8) = (  -0.2222222   0.4444444  -0.2222222), wk =   0.0658436
        k(    9) = (  -0.3333333   0.5555556  -0.3333333), wk =   0.0658436
        k(   10) = (   0.5555556  -0.3333333   0.5555556), wk =   0.0658436
        k(   11) = (   0.4444444  -0.2222222   0.4444444), wk =   0.0658436
        k(   12) = (   0.3333333  -0.1111111   0.3333333), wk =   0.0658436
        k(   13) = (   0.2222222  -0.0000000   0.2222222), wk =   0.0329218
        k(   14) = (   0.0000000   0.4444444   0.0000000), wk =   0.0164609
        k(   15) = (  -0.1111111   0.5555556  -0.1111111), wk =   0.0658436
        k(   16) = (  -0.2222222   0.6666667  -0.2222222), wk =   0.0658436
        k(   17) = (   0.6666667  -0.2222222   0.6666667), wk =   0.0658436
        k(   18) = (   0.5555556  -0.1111111   0.5555556), wk =   0.0658436
        k(   19) = (   0.4444444   0.0000000   0.4444444), wk =   0.0329218
        k(   20) = (   0.0000000   0.6666667   0.0000000), wk =   0.0164609
        k(   21) = (  -0.1111111   0.7777778  -0.1111111), wk =   0.0658436
        k(   22) = (   0.7777778  -0.1111111   0.7777778), wk =   0.0658436
        k(   23) = (   0.6666667  -0.0000000   0.6666667), wk =   0.0329218
        k(   24) = (   0.0000000   0.8888889   0.0000000), wk =   0.0164609
        k(   25) = (   0.8888889   0.0000000   0.8888889), wk =   0.0329218
        k(   26) = (  -0.2222222   0.4444444   0.0000000), wk =   0.0658436
        k(   27) = (  -0.3333333   0.5555556  -0.1111111), wk =   0.1316872
        k(   28) = (   0.5555556  -0.3333333   0.7777778), wk =   0.1316872
        k(   29) = (  -0.2222222   0.6666667   0.0000000), wk =   0.0658436
        k(   30) = (   0.6666667  -0.2222222   0.8888889), wk =   0.1316872
        k(   31) = (   0.5555556  -0.1111111   0.7777778), wk =   0.1316872
        k(   32) = (   0.4444444   0.0000000   0.6666667), wk =   0.0658436
        k(   33) = (   0.7777778  -0.1111111   1.0000000), wk =   0.0658436
        k(   34) = (   0.6666667  -0.0000000   0.8888889), wk =   0.0658436
        k(   35) = (   0.5555556  -0.1111111   1.0000000), wk =   0.0658436

     Dense  grid:     8393 G-vectors     FFT dimensions: (  30,  30,  30)

     Estimated max dynamical RAM per process >       9.50 MB

     Estimated total dynamical RAM >      47.48 MB

     Initial potential from superposition of free atoms

     starting charge   18.97009, renormalised to   19.00000
     Starting wfcs are   10 randomized atomic wfcs +    4 random wfcs

     total cpu time spent up to now is        1.4 secs

     Self-consistent Calculation

     iteration #  1     ecut=    85.00 Ry     beta= 0.70
     Davidson diagonalization with overlap
     ethr =  1.00E-02,  avg # of iterations =  4.7

     Threshold (ethr) on eigenvalues was too large:
     Diagonalizing with lowered threshold

     Davidson diagonalization with overlap
     ethr =  1.00E-04,  avg # of iterations =  1.8

     total cpu time spent up to now is        2.8 secs

     total energy              =    -282.84334881 Ry
     Harris-Foulkes estimate   =    -282.85521051 Ry
     estimated scf accuracy    <       0.01888909 Ry

     iteration #  2     ecut=    85.00 Ry     beta= 0.70
     Davidson diagonalization with overlap
     ethr =  9.94E-05,  avg # of iterations =  2.0

     total cpu time spent up to now is        3.3 secs

     total energy              =    -282.84623271 Ry
     Harris-Foulkes estimate   =    -282.84666241 Ry
     estimated scf accuracy    <       0.00064496 Ry

     iteration #  3     ecut=    85.00 Ry     beta= 0.70
     Davidson diagonalization with overlap
     ethr =  3.39E-06,  avg # of iterations =  2.6

     total cpu time spent up to now is        3.9 secs

     total energy              =    -282.84632827 Ry
     Harris-Foulkes estimate   =    -282.84634490 Ry
     estimated scf accuracy    <       0.00003692 Ry

     iteration #  4     ecut=    85.00 Ry     beta= 0.70
     Davidson diagonalization with overlap
     ethr =  1.94E-07,  avg # of iterations =  1.6

     total cpu time spent up to now is        4.3 secs

     total energy              =    -282.84633146 Ry
     Harris-Foulkes estimate   =    -282.84633148 Ry
     estimated scf accuracy    <       0.00000012 Ry

     iteration #  5     ecut=    85.00 Ry     beta= 0.70
     Davidson diagonalization with overlap
     ethr =  6.21E-10,  avg # of iterations =  2.5

     total cpu time spent up to now is        5.0 secs

     End of self-consistent calculation

          k = 0.0000 0.0000 0.0000 (  1067 PWs)   bands (ev):

    -9.2995  -9.2995  -9.2995  -8.9559  -8.9559   9.4672  47.2836  47.2836
    47.2836  48.3059  53.8639  53.8639  53.8639  57.8238

          k =-0.1111 0.1111-0.1111 (  1028 PWs)   bands (ev):

    -9.2949  -9.2621  -9.2621  -8.9543  -8.9543   9.9623  42.4072  46.5505
    46.5505  48.1934  55.0796  55.0796  55.8553  57.1694

          k =-0.2222 0.2222-0.2222 (  1041 PWs)   bands (ev):

    -9.2871  -9.2101  -9.2101  -8.9066  -8.9066  11.4498  35.4990  45.1497
    45.1497  48.2260  53.9490  54.5887  54.5887  57.9066

          k =-0.3333 0.3333-0.3333 (  1059 PWs)   bands (ev):

    -9.2841  -9.2182  -9.2182  -8.7820  -8.7820  13.8861  29.1864  43.8742
    43.8742  48.1863  52.1723  52.7720  52.7720  61.4769

          k =-0.4444 0.4444-0.4444 (  1044 PWs)   bands (ev):

    -9.2852  -9.2413  -9.2413  -8.6810  -8.6810  16.8182  24.2625  43.1241
    43.1241  48.0827  51.3292  51.8854  51.8854  64.8214

          k = 0.0000 0.2222 0.0000 (  1038 PWs)   bands (ev):

    -9.3381  -9.2219  -9.2219  -8.9956  -8.9231  10.1271  44.3750  44.3750
    44.8995  46.9249  52.8489  56.3214  57.1164  57.1164

          k =-0.1111 0.3333-0.1111 (  1041 PWs)   bands (ev):

    -9.3494  -9.1580  -9.1492  -9.0075  -8.8707  11.2841  38.0121  42.5703
    44.1896  48.0059  50.3781  56.1068  58.2275  58.4843

          k =-0.2222 0.4444-0.2222 (  1054 PWs)   bands (ev):

    -9.3267  -9.1731  -9.1386  -8.9122  -8.7590  13.4121  31.5180  41.4715
    42.4152  46.9099  53.0470  55.7433  56.1002  56.8881

          k =-0.3333 0.5556-0.3333 (  1054 PWs)   bands (ev):

    -9.3019  -9.2027  -9.1654  -8.7891  -8.6706  16.2839  26.0636  40.5499
    41.2614  46.3428  54.1758  54.3350  55.2408  59.4446

          k = 0.5556-0.3333 0.5556 (  1060 PWs)   bands (ev):

    -9.2765  -9.2209  -9.1813  -8.7153  -8.6854  17.8224  23.8794  39.2684
    42.0507  46.6806  53.0221  53.2366  56.2974  63.7954

          k = 0.4444-0.2222 0.4444 (  1051 PWs)   bands (ev):

    -9.2523  -9.2276  -9.1699  -8.8053  -8.7264  15.2805  27.7365  38.8583
    43.8126  47.8384  52.1654  52.8054  57.8086  60.3973

          k = 0.3333-0.1111 0.3333 (  1050 PWs)   bands (ev):

    -9.2770  -9.1951  -9.1541  -8.9541  -8.8084  12.5986  33.6121  39.3580
    46.2111  49.6732  51.4668  53.0709  56.5054  58.1641

          k = 0.2222-0.0000 0.2222 (  1037 PWs)   bands (ev):

    -9.2989  -9.2137  -9.2026  -8.9889  -8.9001  10.7885  39.8312  41.1182
    47.8093  49.5381  53.0300  54.3135  54.3186  56.5758

          k = 0.0000 0.4444 0.0000 (  1054 PWs)   bands (ev):

    -9.4353  -9.1041  -9.0216  -9.0216  -8.8397  12.1099  39.7287  40.3892
    40.3892  45.0665  46.8095  61.1705  61.1705  61.3571

          k =-0.1111 0.5556-0.1111 (  1047 PWs)   bands (ev):

    -9.4497  -9.1624  -8.9651  -8.9124  -8.7479  13.9122  34.1038  38.6166
    39.0403  44.9074  47.7361  60.3771  60.6941  62.1844

          k =-0.2222 0.6667-0.2222 (  1050 PWs)   bands (ev):

    -9.4025  -9.1621  -8.9860  -8.8600  -8.6596  16.5477  28.6633  36.0267
    38.7116  44.5674  52.3896  58.3401  58.8815  62.0034

          k = 0.6667-0.2222 0.6667 (  1065 PWs)   bands (ev):

    -9.3478  -9.1031  -9.0129  -8.8536  -8.6803  18.9162  25.2113  34.0590
    39.4887  44.9162  56.8716  57.0792  57.9680  62.7795

          k = 0.5556-0.1111 0.5556 (  1058 PWs)   bands (ev):

    -9.2892  -9.1173  -9.0192  -8.8138  -8.8112  17.4345  27.3898  33.0686
    41.3275  45.9697  55.7843  56.0618  60.4384  61.0318

          k = 0.4444 0.0000 0.4444 (  1061 PWs)   bands (ev):

    -9.2289  -9.2073  -9.0019  -8.9953  -8.7706  14.6822  31.9107  33.8250
    43.9543  47.7567  53.7636  55.8971  55.9855  58.5553

          k = 0.0000 0.6667 0.0000 (  1030 PWs)   bands (ev):

    -9.5449  -9.2398  -8.7864  -8.7864  -8.7441  15.3854  32.9656  37.3714
    37.3714  43.7925  43.9273  64.6137  65.1625  65.1625

          k =-0.1111 0.7778-0.1111 (  1054 PWs)   bands (ev):

    -9.5381  -9.2686  -8.7851  -8.7289  -8.6521  17.7172  29.4348  34.2602
    36.7423  43.4799  46.4023  62.4441  64.3280  68.7529

          k = 0.7778-0.1111 0.7778 (  1054 PWs)   bands (ev):

    -9.4560  -9.1908  -8.8165  -8.7870  -8.6630  20.1674  26.8860  30.6681
    37.2594  43.6993  51.5555  60.6322  62.3796  66.9159

          k = 0.6667-0.0000 0.6667 (  1063 PWs)   bands (ev):

    -9.3688  -9.0042  -8.9361  -8.8664  -8.7707  19.8135  28.3183  28.3322
    38.8737  44.5221  57.4389  58.9992  60.0171  62.6462

          k = 0.0000 0.8889 0.0000 (  1054 PWs)   bands (ev):

    -9.6161  -9.3349  -8.6815  -8.6283  -8.6283  19.6646  26.6242  35.7683
    35.7683  42.8302  43.1691  64.4012  69.8605  69.8605

          k = 0.8889 0.0000 0.8889 (  1051 PWs)   bands (ev):

    -9.5729  -9.3147  -8.7009  -8.6525  -8.6257  21.1459  25.3214  33.1087
    35.9474  43.0636  45.9750  63.2669  67.6748  69.2575

          k =-0.2222 0.4444 0.0000 (  1050 PWs)   bands (ev):

    -9.3572  -9.1499  -9.0311  -9.0272  -8.7953  12.7645  35.6108  37.4682
    43.3697  48.6642  49.0425  55.7088  58.0677  60.7260

          k =-0.3333 0.5556-0.1111 (  1055 PWs)   bands (ev):

    -9.3083  -9.1896  -9.0423  -8.8995  -8.7254  15.1591  30.2268  35.9945
    40.8494  48.1025  52.1322  54.6868  58.5268  61.9324

          k = 0.5556-0.3333 0.7778 (  1057 PWs)   bands (ev):

    -9.2648  -9.2192  -9.0360  -8.8285  -8.6902  17.9627  25.5945  35.8214
    39.0846  47.6966  52.1554  58.7869  59.0468  60.3539

          k =-0.2222 0.6667 0.0000 (  1054 PWs)   bands (ev):

    -9.4470  -9.2055  -8.9330  -8.7913  -8.7048  15.9853  31.6827  34.7457
    37.1664  47.1191  47.1245  58.0491  64.0415  66.2606

          k = 0.6667-0.2222 0.8889 (  1059 PWs)   bands (ev):

    -9.3686  -9.1841  -8.9542  -8.7877  -8.6732  18.6582  27.9876  32.5543
    35.7895  47.1318  51.9631  56.0932  63.7049  64.9222

          k = 0.5556-0.1111 0.7778 (  1055 PWs)   bands (ev):

    -9.3008  -9.1109  -8.9635  -8.8784  -8.6925  19.8754  26.5774  31.0353
    36.3794  47.7987  54.4294  57.8806  59.3154  63.0799

          k = 0.4444 0.0000 0.6667 (  1054 PWs)   bands (ev):

    -9.2424  -9.1954  -8.9909  -8.8002  -8.7945  17.6520  29.3778  31.1095
    38.2633  49.0015  52.9304  55.2753  61.3568  63.0663

          k = 0.7778-0.1111 1.0000 (  1055 PWs)   bands (ev):

    -9.5063  -9.2791  -8.7862  -8.6964  -8.6289  20.0231  27.0377  33.2905
    34.1129  46.2393  46.3179  60.7448  65.7612  68.8007

          k = 0.6667-0.0000 0.8889 (  1055 PWs)   bands (ev):

    -9.3944  -9.1933  -8.8782  -8.7912  -8.6320  21.1751  26.8441  29.9357
    34.5331  46.7881  51.6666  58.4221  61.4269  66.6100

          k = 0.5556-0.1111 1.0000 (  1054 PWs)   bands (ev):

    -9.2197  -9.1988  -9.0340  -8.8207  -8.6304  20.7730  28.0926  29.6652
    33.0920  51.8527  52.0280  54.7376  58.7449  68.2718

     the Fermi energy is    46.9429 ev

!    total energy              =    -282.84633150 Ry
     Harris-Foulkes estimate   =    -282.84633151 Ry
     estimated scf accuracy    <          6.2E-09 Ry

     The total energy is the sum of the following terms:

     one-electron contribution =      -4.08378316 Ry
     hartree contribution      =      28.15996411 Ry
     xc contribution           =     -64.58897850 Ry
     ewald contribution        =    -242.33311988 Ry
     smearing contrib. (-TS)   =      -0.00041408 Ry

     convergence has been achieved in   5 iterations

     Forces acting on atoms (cartesian axes, Ry/au):

     atom    1 type  1   force =     0.00000000    0.00000000    0.00000000

     Total force =     0.000000     Total SCF correction =     0.000000


     Computing stress (Cartesian axis) and pressure

          total   stress  (Ry/bohr**3)                   (kbar)     P= 7226.49
   0.04912467   0.00000000   0.00000000       7226.49      0.00      0.00
   0.00000000   0.04912467  -0.00000000          0.00   7226.49     -0.00
   0.00000000  -0.00000000   0.04912467          0.00     -0.00   7226.49


     Writing output data file Fr.save/

     init_run     :      0.37s CPU      0.39s WALL (       1 calls)
     electrons    :      3.45s CPU      3.59s WALL (       1 calls)
     forces       :      0.05s CPU      0.05s WALL (       1 calls)
     stress       :      0.16s CPU      0.16s WALL (       1 calls)

     Called by init_run:
     wfcinit      :      0.15s CPU      0.17s WALL (       1 calls)
     potinit      :      0.01s CPU      0.01s WALL (       1 calls)
     hinit0       :      0.19s CPU      0.19s WALL (       1 calls)

     Called by electrons:
     c_bands      :      2.81s CPU      2.92s WALL (       6 calls)
     sum_band     :      0.55s CPU      0.57s WALL (       6 calls)
     v_of_rho     :      0.04s CPU      0.04s WALL (       6 calls)
     newd         :      0.05s CPU      0.06s WALL (       6 calls)
     mix_rho      :      0.00s CPU      0.00s WALL (       6 calls)

     Called by c_bands:
     init_us_2    :      0.07s CPU      0.07s WALL (     525 calls)
     cegterg      :      2.72s CPU      2.82s WALL (     210 calls)

     Called by sum_band:
     sum_band:bec :      0.00s CPU      0.00s WALL (     210 calls)
     addusdens    :      0.05s CPU      0.06s WALL (       6 calls)

     Called by *egterg:
     h_psi        :      2.04s CPU      2.13s WALL (     776 calls)
     s_psi        :      0.06s CPU      0.07s WALL (     776 calls)
     g_psi        :      0.01s CPU      0.01s WALL (     531 calls)
     cdiaghg      :      0.33s CPU      0.34s WALL (     706 calls)

     Called by h_psi:
     h_psi:pot    :      2.03s CPU      2.12s WALL (     776 calls)
     h_psi:calbec :      0.09s CPU      0.09s WALL (     776 calls)
     vloc_psi     :      1.87s CPU      1.95s WALL (     776 calls)
     add_vuspsi   :      0.07s CPU      0.07s WALL (     776 calls)

     General routines
     calbec       :      0.15s CPU      0.15s WALL (    1161 calls)
     fft          :      0.04s CPU      0.04s WALL (      93 calls)
     ffts         :      0.00s CPU      0.00s WALL (       6 calls)
     fftw         :      2.11s CPU      2.21s WALL (   18658 calls)

     Parallel routines
     fft_scatt_xy :      0.18s CPU      0.19s WALL (   18757 calls)
     fft_scatt_yz :      0.57s CPU      0.60s WALL (   18757 calls)

     PWSCF        :     5.05s CPU         5.26s WALL


   This run was terminated on:  22:58:56   7Apr2024            

=------------------------------------------------------------------------------=
   JOB DONE.
=------------------------------------------------------------------------------=
