
     Program PWSCF v.6.3MaX starts on  7Apr2024 at 22:53:43 

     This program is part of the open-source Quantum ESPRESSO suite
     for quantum simulation of materials; please cite
         "P. Giannozzi et al., J. Phys.:Condens. Matter 21 395502 (2009);
         "P. Giannozzi et al., J. Phys.:Condens. Matter 29 465901 (2017);
          URL http://www.quantum-espresso.org", 
     in publications or presentations arising from this work. More details at
     http://www.quantum-espresso.org/quote

     Parallel version (MPI), running on     5 processors

     MPI processes distributed on     1 nodes
     R & G space division:  proc/nbgrp/npool/nimage =       5
     Waiting for input...
     Reading input from standard input

     Current dimensions of program PWSCF are:
     Max number of different atomic species (ntypx) = 10
     Max number of k-points (npk) =  40000
     Max angular momentum in pseudopotentials (lmaxx) =  3

     Subspace diagonalization in iterative solution of the eigenvalue problem:
     a serial algorithm will be used


     Parallelization info
     --------------------
     sticks:   dense  smooth     PW     G-vecs:    dense   smooth      PW
     Min         102     102     30                 1545     1545     248
     Max         103     103     31                 1546     1546     251
     Sum         511     511    151                 7727     7727    1243



     bravais-lattice index     =            2
     lattice parameter (alat)  =       6.8300  a.u.
     unit-cell volume          =      79.6530 (a.u.)^3
     number of atoms/cell      =            1
     number of atomic types    =            1
     number of electrons       =        19.00
     number of Kohn-Sham states=           14
     kinetic-energy cutoff     =      80.0000  Ry
     charge density cutoff     =     320.0000  Ry
     convergence threshold     =      1.0E-08
     mixing beta               =       0.7000
     number of iterations used =            8  plain     mixing
     Exchange-correlation      = PBE ( 1  4  3  4 0 0)

     celldm(1)=   6.830000  celldm(2)=   0.000000  celldm(3)=   0.000000
     celldm(4)=   0.000000  celldm(5)=   0.000000  celldm(6)=   0.000000

     crystal axes: (cart. coord. in units of alat)
               a(1) = (  -0.500000   0.000000   0.500000 )  
               a(2) = (   0.000000   0.500000   0.500000 )  
               a(3) = (  -0.500000   0.500000   0.000000 )  

     reciprocal axes: (cart. coord. in units 2 pi/alat)
               b(1) = ( -1.000000 -1.000000  1.000000 )  
               b(2) = (  1.000000  1.000000  1.000000 )  
               b(3) = ( -1.000000  1.000000 -1.000000 )  


     PseudoPot. # 1 for Fr read from file:
     /home/lorenzo/pseudos/Fr/Fr.pbe-spdn-rrkjus_psl.1.0.0.UPF
     MD5 check sum: 07cabfa18982bd6b5b9d8ae5689d9732
     Pseudo is Ultrasoft + core correction, Zval = 19.0
     Generated using "atomic" code by A. Dal Corso v.6.2.2
     Using radial grid of 1287 points,  6 beta functions with: 
                l(1) =   0
                l(2) =   0
                l(3) =   1
                l(4) =   1
                l(5) =   2
                l(6) =   2
     Q(r) pseudized with 0 coefficients 


     atomic species   valence    mass     pseudopotential
        Fr            19.00   223.00000     Fr( 1.00)

     48 Sym. Ops., with inversion, found



   Cartesian axes

     site n.     atom                  positions (alat units)
         1           Fr  tau(   1) = (   0.0000000   0.0000000   0.0000000  )

     number of k points=     3  gaussian smearing, width (Ry)=  0.0100
                       cart. coord. in units 2pi/alat
        k(    1) = (   0.0000000   0.0000000   0.0000000), wk =   0.2500000
        k(    2) = (   0.5000000  -0.5000000   0.5000000), wk =   1.0000000
        k(    3) = (   0.0000000  -1.0000000   0.0000000), wk =   0.7500000

     Dense  grid:     7727 G-vectors     FFT dimensions: (  27,  27,  27)

     Estimated max dynamical RAM per process >       7.46 MB

     Estimated total dynamical RAM >      37.31 MB

     Initial potential from superposition of free atoms

     starting charge   18.97009, renormalised to   19.00000
     Starting wfcs are   10 randomized atomic wfcs +    4 random wfcs

     total cpu time spent up to now is        1.1 secs

     Self-consistent Calculation

     iteration #  1     ecut=    80.00 Ry     beta= 0.70
     Davidson diagonalization with overlap
     ethr =  1.00E-02,  avg # of iterations =  5.0

     Threshold (ethr) on eigenvalues was too large:
     Diagonalizing with lowered threshold

     Davidson diagonalization with overlap
     ethr =  5.01E-05,  avg # of iterations =  2.0

     total cpu time spent up to now is        1.3 secs

     total energy              =    -282.48128083 Ry
     Harris-Foulkes estimate   =    -282.48695684 Ry
     estimated scf accuracy    <       0.00951481 Ry

     iteration #  2     ecut=    80.00 Ry     beta= 0.70
     Davidson diagonalization with overlap
     ethr =  5.01E-05,  avg # of iterations =  2.3

     total cpu time spent up to now is        1.3 secs

     total energy              =    -282.48251732 Ry
     Harris-Foulkes estimate   =    -282.48269744 Ry
     estimated scf accuracy    <       0.00039050 Ry

     iteration #  3     ecut=    80.00 Ry     beta= 0.70
     Davidson diagonalization with overlap
     ethr =  2.06E-06,  avg # of iterations =  2.3

     total cpu time spent up to now is        1.4 secs

     total energy              =    -282.48256547 Ry
     Harris-Foulkes estimate   =    -282.48256978 Ry
     estimated scf accuracy    <       0.00002248 Ry

     iteration #  4     ecut=    80.00 Ry     beta= 0.70
     Davidson diagonalization with overlap
     ethr =  1.18E-07,  avg # of iterations =  2.3

     total cpu time spent up to now is        1.4 secs

     total energy              =    -282.48256739 Ry
     Harris-Foulkes estimate   =    -282.48256735 Ry
     estimated scf accuracy    <       0.00000023 Ry

     iteration #  5     ecut=    80.00 Ry     beta= 0.70
     Davidson diagonalization with overlap
     ethr =  1.20E-09,  avg # of iterations =  2.3

     total cpu time spent up to now is        1.5 secs

     End of self-consistent calculation

          k = 0.0000 0.0000 0.0000 (   941 PWs)   bands (ev):

    -9.0563  -9.0563  -9.0563  -8.7140  -8.7140   9.5278  47.3596  47.3596
    47.3596  48.3145  53.8929  53.8929  53.8929  57.7844

          k = 0.5000-0.5000 0.5000 (   960 PWs)   bands (ev):

    -9.0440  -9.0040  -9.0040  -8.4192  -8.4192  17.6496  23.2955  43.1001
    43.1001  48.0282  51.2988  51.7893  51.7893  65.5292

          k = 0.0000-1.0000 0.0000 (   982 PWs)   bands (ev):

    -9.3872  -9.1124  -8.4285  -8.3564  -8.3564  21.2045  24.9624  35.6116
    35.6116  42.6904  43.1192  64.3971  70.3811  71.3715

     the Fermi energy is    47.3182 ev

!    total energy              =    -282.48256741 Ry
     Harris-Foulkes estimate   =    -282.48256742 Ry
     estimated scf accuracy    <          2.2E-09 Ry

     The total energy is the sum of the following terms:

     one-electron contribution =      -3.90888342 Ry
     hartree contribution      =      28.38227375 Ry
     xc contribution           =     -64.62090958 Ry
     ewald contribution        =    -242.33311988 Ry
     smearing contrib. (-TS)   =      -0.00192828 Ry

     convergence has been achieved in   5 iterations

     Forces acting on atoms (cartesian axes, Ry/au):

     atom    1 type  1   force =     0.00000000    0.00000000    0.00000000

     Total force =     0.000000     Total SCF correction =     0.000000


     Computing stress (Cartesian axis) and pressure

          total   stress  (Ry/bohr**3)                   (kbar)     P= 7960.24
   0.05411264  -0.00000000  -0.00000000       7960.24     -0.00     -0.00
  -0.00000000   0.05411264   0.00000000         -0.00   7960.24      0.00
  -0.00000000   0.00000000   0.05411264         -0.00      0.00   7960.24


     Writing output data file Fr.save/

     init_run     :      0.23s CPU      0.23s WALL (       1 calls)
     electrons    :      0.36s CPU      0.38s WALL (       1 calls)
     forces       :      0.02s CPU      0.02s WALL (       1 calls)
     stress       :      0.08s CPU      0.08s WALL (       1 calls)

     Called by init_run:
     wfcinit      :      0.01s CPU      0.01s WALL (       1 calls)
     potinit      :      0.01s CPU      0.01s WALL (       1 calls)
     hinit0       :      0.19s CPU      0.19s WALL (       1 calls)

     Called by electrons:
     c_bands      :      0.21s CPU      0.22s WALL (       6 calls)
     sum_band     :      0.09s CPU      0.09s WALL (       6 calls)
     v_of_rho     :      0.02s CPU      0.03s WALL (       6 calls)
     newd         :      0.05s CPU      0.05s WALL (       6 calls)
     mix_rho      :      0.00s CPU      0.00s WALL (       6 calls)

     Called by c_bands:
     init_us_2    :      0.01s CPU      0.01s WALL (      45 calls)
     cegterg      :      0.20s CPU      0.22s WALL (      18 calls)

     Called by sum_band:
     sum_band:bec :      0.00s CPU      0.00s WALL (      18 calls)
     addusdens    :      0.04s CPU      0.05s WALL (       6 calls)

     Called by *egterg:
     h_psi        :      0.15s CPU      0.16s WALL (      70 calls)
     s_psi        :      0.01s CPU      0.01s WALL (      70 calls)
     g_psi        :      0.00s CPU      0.00s WALL (      49 calls)
     cdiaghg      :      0.03s CPU      0.03s WALL (      64 calls)

     Called by h_psi:
     h_psi:pot    :      0.15s CPU      0.16s WALL (      70 calls)
     h_psi:calbec :      0.01s CPU      0.01s WALL (      70 calls)
     vloc_psi     :      0.14s CPU      0.14s WALL (      70 calls)
     add_vuspsi   :      0.01s CPU      0.01s WALL (      70 calls)

     General routines
     calbec       :      0.01s CPU      0.01s WALL (     103 calls)
     fft          :      0.02s CPU      0.02s WALL (      93 calls)
     ffts         :      0.00s CPU      0.00s WALL (       6 calls)
     fftw         :      0.15s CPU      0.16s WALL (    1582 calls)

     Parallel routines
     fft_scatt_xy :      0.02s CPU      0.02s WALL (    1681 calls)
     fft_scatt_yz :      0.04s CPU      0.04s WALL (    1681 calls)

     PWSCF        :     1.57s CPU         1.64s WALL


   This run was terminated on:  22:53:44   7Apr2024            

=------------------------------------------------------------------------------=
   JOB DONE.
=------------------------------------------------------------------------------=
