
     Program PWSCF v.6.3MaX starts on  7Apr2024 at 22:57:22 

     This program is part of the open-source Quantum ESPRESSO suite
     for quantum simulation of materials; please cite
         "P. Giannozzi et al., J. Phys.:Condens. Matter 21 395502 (2009);
         "P. Giannozzi et al., J. Phys.:Condens. Matter 29 465901 (2017);
          URL http://www.quantum-espresso.org", 
     in publications or presentations arising from this work. More details at
     http://www.quantum-espresso.org/quote

     Parallel version (MPI), running on     5 processors

     MPI processes distributed on     1 nodes
     R & G space division:  proc/nbgrp/npool/nimage =       5
     Waiting for input...
     Reading input from standard input

     Current dimensions of program PWSCF are:
     Max number of different atomic species (ntypx) = 10
     Max number of k-points (npk) =  40000
     Max angular momentum in pseudopotentials (lmaxx) =  3

     Subspace diagonalization in iterative solution of the eigenvalue problem:
     a serial algorithm will be used


     Parallelization info
     --------------------
     sticks:   dense  smooth     PW     G-vecs:    dense   smooth      PW
     Min         109     109     32                 1678     1678     290
     Max         110     110     33                 1680     1680     293
     Sum         547     547    163                 8393     8393    1459



     bravais-lattice index     =            2
     lattice parameter (alat)  =       6.8300  a.u.
     unit-cell volume          =      79.6530 (a.u.)^3
     number of atoms/cell      =            1
     number of atomic types    =            1
     number of electrons       =        19.00
     number of Kohn-Sham states=           14
     kinetic-energy cutoff     =      85.0000  Ry
     charge density cutoff     =     340.0000  Ry
     convergence threshold     =      1.0E-08
     mixing beta               =       0.7000
     number of iterations used =            8  plain     mixing
     Exchange-correlation      = PBE ( 1  4  3  4 0 0)

     celldm(1)=   6.830000  celldm(2)=   0.000000  celldm(3)=   0.000000
     celldm(4)=   0.000000  celldm(5)=   0.000000  celldm(6)=   0.000000

     crystal axes: (cart. coord. in units of alat)
               a(1) = (  -0.500000   0.000000   0.500000 )  
               a(2) = (   0.000000   0.500000   0.500000 )  
               a(3) = (  -0.500000   0.500000   0.000000 )  

     reciprocal axes: (cart. coord. in units 2 pi/alat)
               b(1) = ( -1.000000 -1.000000  1.000000 )  
               b(2) = (  1.000000  1.000000  1.000000 )  
               b(3) = ( -1.000000  1.000000 -1.000000 )  


     PseudoPot. # 1 for Fr read from file:
     /home/lorenzo/pseudos/Fr/Fr.pbe-spdn-rrkjus_psl.1.0.0.UPF
     MD5 check sum: 07cabfa18982bd6b5b9d8ae5689d9732
     Pseudo is Ultrasoft + core correction, Zval = 19.0
     Generated using "atomic" code by A. Dal Corso v.6.2.2
     Using radial grid of 1287 points,  6 beta functions with: 
                l(1) =   0
                l(2) =   0
                l(3) =   1
                l(4) =   1
                l(5) =   2
                l(6) =   2
     Q(r) pseudized with 0 coefficients 


     atomic species   valence    mass     pseudopotential
        Fr            19.00   223.00000     Fr( 1.00)

     48 Sym. Ops., with inversion, found



   Cartesian axes

     site n.     atom                  positions (alat units)
         1           Fr  tau(   1) = (   0.0000000   0.0000000   0.0000000  )

     number of k points=     8  gaussian smearing, width (Ry)=  0.0100
                       cart. coord. in units 2pi/alat
        k(    1) = (   0.0000000   0.0000000   0.0000000), wk =   0.0312500
        k(    2) = (  -0.2500000   0.2500000  -0.2500000), wk =   0.2500000
        k(    3) = (   0.5000000  -0.5000000   0.5000000), wk =   0.1250000
        k(    4) = (   0.0000000   0.5000000   0.0000000), wk =   0.1875000
        k(    5) = (   0.7500000  -0.2500000   0.7500000), wk =   0.7500000
        k(    6) = (   0.5000000   0.0000000   0.5000000), wk =   0.3750000
        k(    7) = (   0.0000000  -1.0000000   0.0000000), wk =   0.0937500
        k(    8) = (  -0.5000000  -1.0000000   0.0000000), wk =   0.1875000

     Dense  grid:     8393 G-vectors     FFT dimensions: (  30,  30,  30)

     Estimated max dynamical RAM per process >       8.28 MB

     Estimated total dynamical RAM >      41.42 MB

     Initial potential from superposition of free atoms

     starting charge   18.97009, renormalised to   19.00000
     Starting wfcs are   10 randomized atomic wfcs +    4 random wfcs

     total cpu time spent up to now is        1.1 secs

     Self-consistent Calculation

     iteration #  1     ecut=    85.00 Ry     beta= 0.70
     Davidson diagonalization with overlap
     ethr =  1.00E-02,  avg # of iterations =  4.5

     Threshold (ethr) on eigenvalues was too large:
     Diagonalizing with lowered threshold

     Davidson diagonalization with overlap
     ethr =  7.48E-05,  avg # of iterations =  2.1

     total cpu time spent up to now is        1.5 secs

     total energy              =    -282.86759236 Ry
     Harris-Foulkes estimate   =    -282.87619289 Ry
     estimated scf accuracy    <       0.01395439 Ry

     iteration #  2     ecut=    85.00 Ry     beta= 0.70
     Davidson diagonalization with overlap
     ethr =  7.34E-05,  avg # of iterations =  2.0

     total cpu time spent up to now is        1.6 secs

     total energy              =    -282.86947724 Ry
     Harris-Foulkes estimate   =    -282.86978083 Ry
     estimated scf accuracy    <       0.00051133 Ry

     iteration #  3     ecut=    85.00 Ry     beta= 0.70
     Davidson diagonalization with overlap
     ethr =  2.69E-06,  avg # of iterations =  2.6

     total cpu time spent up to now is        1.8 secs

     total energy              =    -282.86953475 Ry
     Harris-Foulkes estimate   =    -282.86954740 Ry
     estimated scf accuracy    <       0.00003017 Ry

     iteration #  4     ecut=    85.00 Ry     beta= 0.70
     Davidson diagonalization with overlap
     ethr =  1.59E-07,  avg # of iterations =  1.8

     total cpu time spent up to now is        1.9 secs

     total energy              =    -282.86953723 Ry
     Harris-Foulkes estimate   =    -282.86953724 Ry
     estimated scf accuracy    <       0.00000010 Ry

     iteration #  5     ecut=    85.00 Ry     beta= 0.70
     Davidson diagonalization with overlap
     ethr =  5.18E-10,  avg # of iterations =  2.4

     total cpu time spent up to now is        2.1 secs

     End of self-consistent calculation

          k = 0.0000 0.0000 0.0000 (  1067 PWs)   bands (ev):

    -9.1846  -9.1846  -9.1846  -8.8556  -8.8556   9.4980  47.2944  47.2944
    47.2944  48.3683  53.8943  53.8943  53.8943  57.7342

          k =-0.2500 0.2500-0.2500 (  1053 PWs)   bands (ev):

    -9.1709  -9.0961  -9.0961  -8.7752  -8.7752  12.0075  33.8595  44.8334
    44.8334  48.2474  53.4412  54.0473  54.0473  58.7696

          k = 0.5000-0.5000 0.5000 (  1056 PWs)   bands (ev):

    -9.1711  -9.1388  -9.1388  -8.5569  -8.5569  17.6007  23.2833  43.0674
    43.0674  48.0322  51.2930  51.7682  51.7682  65.4939

          k = 0.0000 0.5000 0.0000 (  1062 PWs)   bands (ev):

    -9.3493  -9.0391  -8.8457  -8.8457  -8.7144  12.8442  38.1548  39.5411
    39.5411  44.7376  45.7824  62.0823  62.0823  62.8882

          k = 0.7500-0.2500 0.7500 (  1053 PWs)   bands (ev):

    -9.2920  -9.0452  -8.8425  -8.7307  -8.5405  18.2032  27.1375  33.9027
    38.3893  44.3019  53.4673  58.5621  59.2451  63.9916

          k = 0.5000 0.0000 0.5000 (  1049 PWs)   bands (ev):

    -9.1502  -9.0397  -8.8764  -8.8250  -8.6809  16.0197  30.4857  32.2888
    42.5999  46.7440  55.1906  56.5459  57.4170  59.3218

          k = 0.0000-1.0000 0.0000 (  1034 PWs)   bands (ev):

    -9.5119  -9.2513  -8.5716  -8.4888  -8.4888  21.1413  24.9618  35.5840
    35.5840  42.6429  43.1424  64.4030  70.3654  71.3329

          k =-0.5000-1.0000 0.0000 (  1048 PWs)   bands (ev):

    -9.0804  -9.0204  -9.0204  -8.7313  -8.4887  21.4696  28.7050  28.7050
    32.1084  53.3294  53.5060  53.5060  56.5021  70.1899

     the Fermi energy is    44.9826 ev

!    total energy              =    -282.86953726 Ry
     Harris-Foulkes estimate   =    -282.86953726 Ry
     estimated scf accuracy    <          2.7E-09 Ry

     The total energy is the sum of the following terms:

     one-electron contribution =      -4.19080497 Ry
     hartree contribution      =      28.25990819 Ry
     xc contribution           =     -64.60507623 Ry
     ewald contribution        =    -242.33311988 Ry
     smearing contrib. (-TS)   =      -0.00044436 Ry

     convergence has been achieved in   5 iterations

     Forces acting on atoms (cartesian axes, Ry/au):

     atom    1 type  1   force =     0.00000000    0.00000000    0.00000000

     Total force =     0.000000     Total SCF correction =     0.000000


     Computing stress (Cartesian axis) and pressure

          total   stress  (Ry/bohr**3)                   (kbar)     P= 7333.99
   0.04985546   0.00000000  -0.00000000       7333.99      0.00     -0.00
   0.00000000   0.04985546  -0.00000000          0.00   7333.99     -0.00
  -0.00000000  -0.00000000   0.04985546         -0.00     -0.00   7333.99


     Writing output data file Fr.save/

     init_run     :      0.25s CPU      0.26s WALL (       1 calls)
     electrons    :      0.89s CPU      0.94s WALL (       1 calls)
     forces       :      0.03s CPU      0.03s WALL (       1 calls)
     stress       :      0.10s CPU      0.10s WALL (       1 calls)

     Called by init_run:
     wfcinit      :      0.05s CPU      0.05s WALL (       1 calls)
     potinit      :      0.01s CPU      0.01s WALL (       1 calls)
     hinit0       :      0.18s CPU      0.18s WALL (       1 calls)

     Called by electrons:
     c_bands      :      0.65s CPU      0.69s WALL (       6 calls)
     sum_band     :      0.17s CPU      0.18s WALL (       6 calls)
     v_of_rho     :      0.03s CPU      0.03s WALL (       6 calls)
     newd         :      0.05s CPU      0.05s WALL (       6 calls)
     mix_rho      :      0.00s CPU      0.00s WALL (       6 calls)

     Called by c_bands:
     init_us_2    :      0.02s CPU      0.02s WALL (     120 calls)
     cegterg      :      0.63s CPU      0.66s WALL (      48 calls)

     Called by sum_band:
     sum_band:bec :      0.00s CPU      0.00s WALL (      48 calls)
     addusdens    :      0.05s CPU      0.05s WALL (       6 calls)

     Called by *egterg:
     h_psi        :      0.48s CPU      0.51s WALL (     179 calls)
     s_psi        :      0.02s CPU      0.02s WALL (     179 calls)
     g_psi        :      0.00s CPU      0.00s WALL (     123 calls)
     cdiaghg      :      0.07s CPU      0.08s WALL (     163 calls)

     Called by h_psi:
     h_psi:pot    :      0.48s CPU      0.51s WALL (     179 calls)
     h_psi:calbec :      0.02s CPU      0.02s WALL (     179 calls)
     vloc_psi     :      0.44s CPU      0.47s WALL (     179 calls)
     add_vuspsi   :      0.01s CPU      0.02s WALL (     179 calls)

     General routines
     calbec       :      0.04s CPU      0.04s WALL (     267 calls)
     fft          :      0.02s CPU      0.02s WALL (      93 calls)
     ffts         :      0.00s CPU      0.00s WALL (       6 calls)
     fftw         :      0.49s CPU      0.52s WALL (    4220 calls)

     Parallel routines
     fft_scatt_xy :      0.04s CPU      0.05s WALL (    4319 calls)
     fft_scatt_yz :      0.15s CPU      0.16s WALL (    4319 calls)

     PWSCF        :     2.17s CPU         2.27s WALL


   This run was terminated on:  22:57:24   7Apr2024            

=------------------------------------------------------------------------------=
   JOB DONE.
=------------------------------------------------------------------------------=
