
     Program PWSCF v.6.3MaX starts on  7Apr2024 at 22:27:56 

     This program is part of the open-source Quantum ESPRESSO suite
     for quantum simulation of materials; please cite
         "P. Giannozzi et al., J. Phys.:Condens. Matter 21 395502 (2009);
         "P. Giannozzi et al., J. Phys.:Condens. Matter 29 465901 (2017);
          URL http://www.quantum-espresso.org", 
     in publications or presentations arising from this work. More details at
     http://www.quantum-espresso.org/quote

     Parallel version (MPI), running on     5 processors

     MPI processes distributed on     1 nodes
     R & G space division:  proc/nbgrp/npool/nimage =       5
     Waiting for input...
     Reading input from standard input

     Current dimensions of program PWSCF are:
     Max number of different atomic species (ntypx) = 10
     Max number of k-points (npk) =  40000
     Max angular momentum in pseudopotentials (lmaxx) =  3

     Subspace diagonalization in iterative solution of the eigenvalue problem:
     a serial algorithm will be used


     Parallelization info
     --------------------
     sticks:   dense  smooth     PW     G-vecs:    dense   smooth      PW
     Min          39      39     12                  361      361      67
     Max          40      40     13                  363      363      70
     Sum         199     199     61                 1807     1807     339



     bravais-lattice index     =            2
     lattice parameter (alat)  =       6.8300  a.u.
     unit-cell volume          =      79.6530 (a.u.)^3
     number of atoms/cell      =            1
     number of atomic types    =            1
     number of electrons       =        19.00
     number of Kohn-Sham states=           14
     kinetic-energy cutoff     =      30.0000  Ry
     charge density cutoff     =     120.0000  Ry
     convergence threshold     =      1.0E-08
     mixing beta               =       0.7000
     number of iterations used =            8  plain     mixing
     Exchange-correlation      = LDA ( 1  1  0  0 0 0)

     celldm(1)=   6.830000  celldm(2)=   0.000000  celldm(3)=   0.000000
     celldm(4)=   0.000000  celldm(5)=   0.000000  celldm(6)=   0.000000

     crystal axes: (cart. coord. in units of alat)
               a(1) = (  -0.500000   0.000000   0.500000 )  
               a(2) = (   0.000000   0.500000   0.500000 )  
               a(3) = (  -0.500000   0.500000   0.000000 )  

     reciprocal axes: (cart. coord. in units 2 pi/alat)
               b(1) = ( -1.000000 -1.000000  1.000000 )  
               b(2) = (  1.000000  1.000000  1.000000 )  
               b(3) = ( -1.000000  1.000000 -1.000000 )  


     PseudoPot. # 1 for Fr read from file:
     /home/lorenzo/pseudos/Fr/Fr.pz-spdn-rrkjus_psl.1.0.0.UPF
     MD5 check sum: 5665a43a3d1ea02b0b7dc7a0ae9ace04
     Pseudo is Ultrasoft + core correction, Zval = 19.0
     Generated using "atomic" code by A. Dal Corso v.6.2.2
     Using radial grid of 1287 points,  6 beta functions with: 
                l(1) =   0
                l(2) =   0
                l(3) =   1
                l(4) =   1
                l(5) =   2
                l(6) =   2
     Q(r) pseudized with 0 coefficients 


     atomic species   valence    mass     pseudopotential
        Fr            19.00   223.00000     Fr( 1.00)

     48 Sym. Ops., with inversion, found



   Cartesian axes

     site n.     atom                  positions (alat units)
         1           Fr  tau(   1) = (   0.0000000   0.0000000   0.0000000  )

     number of k points=    10  gaussian smearing, width (Ry)=  0.0100
                       cart. coord. in units 2pi/alat
        k(    1) = (   0.0000000   0.0000000   0.0000000), wk =   0.0160000
        k(    2) = (  -0.2000000   0.2000000  -0.2000000), wk =   0.1280000
        k(    3) = (  -0.4000000   0.4000000  -0.4000000), wk =   0.1280000
        k(    4) = (   0.0000000   0.4000000   0.0000000), wk =   0.0960000
        k(    5) = (  -0.2000000   0.6000000  -0.2000000), wk =   0.3840000
        k(    6) = (   0.6000000  -0.2000000   0.6000000), wk =   0.3840000
        k(    7) = (   0.4000000   0.0000000   0.4000000), wk =   0.1920000
        k(    8) = (   0.0000000   0.8000000   0.0000000), wk =   0.0960000
        k(    9) = (   0.8000000   0.0000000   0.8000000), wk =   0.1920000
        k(   10) = (   0.6000000  -0.2000000   1.0000000), wk =   0.3840000

     Dense  grid:     1807 G-vectors     FFT dimensions: (  18,  18,  18)

     Estimated max dynamical RAM per process >       2.43 MB

     Estimated total dynamical RAM >      12.13 MB

     Check: negative/imaginary core charge=   -0.000065    0.000000

     Initial potential from superposition of free atoms

     starting charge   18.97647, renormalised to   19.00000
     Starting wfcs are   10 randomized atomic wfcs +    4 random wfcs

     total cpu time spent up to now is        1.1 secs

     Self-consistent Calculation

     iteration #  1     ecut=    30.00 Ry     beta= 0.70
     Davidson diagonalization with overlap
     ethr =  1.00E-02,  avg # of iterations =  5.2

     total cpu time spent up to now is        1.2 secs

     total energy              =    -280.68092203 Ry
     Harris-Foulkes estimate   =    -280.85368432 Ry
     estimated scf accuracy    <       0.21855941 Ry

     iteration #  2     ecut=    30.00 Ry     beta= 0.70
     Davidson diagonalization with overlap
     ethr =  1.15E-03,  avg # of iterations =  2.0

     total cpu time spent up to now is        1.3 secs

     total energy              =    -280.73141669 Ry
     Harris-Foulkes estimate   =    -280.73888007 Ry
     estimated scf accuracy    <       0.01135309 Ry

     iteration #  3     ecut=    30.00 Ry     beta= 0.70
     Davidson diagonalization with overlap
     ethr =  5.98E-05,  avg # of iterations =  2.1

     total cpu time spent up to now is        1.3 secs

     total energy              =    -280.73335955 Ry
     Harris-Foulkes estimate   =    -280.73358433 Ry
     estimated scf accuracy    <       0.00046263 Ry

     iteration #  4     ecut=    30.00 Ry     beta= 0.70
     Davidson diagonalization with overlap
     ethr =  2.43E-06,  avg # of iterations =  1.9

     total cpu time spent up to now is        1.4 secs

     total energy              =    -280.73338448 Ry
     Harris-Foulkes estimate   =    -280.73338455 Ry
     estimated scf accuracy    <       0.00000191 Ry

     iteration #  5     ecut=    30.00 Ry     beta= 0.70
     Davidson diagonalization with overlap
     ethr =  1.00E-08,  avg # of iterations =  3.0

     total cpu time spent up to now is        1.5 secs

     total energy              =    -280.73338533 Ry
     Harris-Foulkes estimate   =    -280.73338541 Ry
     estimated scf accuracy    <       0.00000014 Ry

     iteration #  6     ecut=    30.00 Ry     beta= 0.70
     Davidson diagonalization with overlap
     ethr =  7.39E-10,  avg # of iterations =  2.0

     total cpu time spent up to now is        1.5 secs

     End of self-consistent calculation

          k = 0.0000 0.0000 0.0000 (   229 PWs)   bands (ev):

    -9.3243  -9.3243  -9.3243  -9.0600  -9.0600   8.9744  46.5503  46.5503
    46.5503  48.3178  55.3821  55.3821  55.3821  57.3521

          k =-0.2000 0.2000-0.2000 (   220 PWs)   bands (ev):

    -9.3696  -9.2105  -9.2105  -8.7474  -8.7474  10.5667  36.5299  44.9165
    44.9165  48.3848  54.2751  55.7868  55.7868  58.2268

          k =-0.4000 0.4000-0.4000 (   226 PWs)   bands (ev):

    -9.7627  -9.3786  -9.3786  -9.0724  -9.0724  15.1071  25.6210  42.7199
    42.7199  48.1900  51.8248  53.3205  53.3205  63.7011

          k = 0.0000 0.4000 0.0000 (   222 PWs)   bands (ev):

    -9.4601  -9.3571  -9.2634  -9.2634  -8.5593  11.0949  40.1228  40.7792
    40.7792  46.1674  48.2260  60.4979  60.4979  60.9681

          k =-0.2000 0.6000-0.2000 (   219 PWs)   bands (ev):

    -9.5909  -9.1147  -9.0395  -8.9605  -8.7053  14.7189  29.8015  37.5341
    38.7866  45.5360  52.0046  58.8597  58.9218  61.0003

          k = 0.6000-0.2000 0.6000 (   223 PWs)   bands (ev):

    -9.4254  -9.3753  -9.2323  -9.1526  -8.8427  17.7774  24.9171  34.2763
    40.1890  46.1288  56.0097  56.6247  60.7915  62.9467

          k = 0.4000 0.0000 0.4000 (   214 PWs)   bands (ev):

    -9.0173  -8.9506  -8.9414  -8.7626  -8.7480  13.1859  32.7433  35.1317
    44.5231  49.0200  52.7921  55.6747  56.5955  58.4750

          k = 0.0000 0.8000 0.0000 (   218 PWs)   bands (ev):

    -9.8099  -9.2209  -8.8560  -8.8560  -8.5162  17.2969  28.4721  35.7856
    35.7856  43.7064  44.4033  64.5832  67.8634  67.8635

          k = 0.8000 0.0000 0.8000 (   224 PWs)   bands (ev):

    -9.6925  -9.2908  -9.2117  -9.1752  -9.1522  20.2922  25.9014  30.2025
    36.3543  44.1762  50.7873  61.7777  64.6167  66.3063

          k = 0.6000-0.2000 1.0000 (   220 PWs)   bands (ev):

    -9.2746  -9.2398  -9.1812  -8.9812  -8.9003  18.6781  28.1302  30.5780
    34.5846  50.7631  51.7741  55.3163  61.9253  66.0384

     the Fermi energy is    46.1569 ev

!    total energy              =    -280.73338534 Ry
     Harris-Foulkes estimate   =    -280.73338534 Ry
     estimated scf accuracy    <          5.2E-09 Ry

     The total energy is the sum of the following terms:

     one-electron contribution =      -1.65784779 Ry
     hartree contribution      =      26.57021308 Ry
     xc contribution           =     -63.31132360 Ry
     ewald contribution        =    -242.33311990 Ry
     smearing contrib. (-TS)   =      -0.00130713 Ry

     convergence has been achieved in   6 iterations

     Forces acting on atoms (cartesian axes, Ry/au):

     atom    1 type  1   force =     0.00000000    0.00000000    0.00000000

     Total force =     0.000000     Total SCF correction =     0.000000


     Computing stress (Cartesian axis) and pressure

          total   stress  (Ry/bohr**3)                   (kbar)     P=-5618.12
  -0.03819124  -0.00000000  -0.00000000      -5618.12     -0.00     -0.00
  -0.00000000  -0.03819124   0.00000000         -0.00  -5618.12      0.00
  -0.00000000   0.00000000  -0.03819124         -0.00      0.00  -5618.12


     Writing output data file Fr.save/

     init_run     :      0.14s CPU      0.15s WALL (       1 calls)
     electrons    :      0.44s CPU      0.48s WALL (       1 calls)
     forces       :      0.01s CPU      0.01s WALL (       1 calls)
     stress       :      0.03s CPU      0.03s WALL (       1 calls)

     Called by init_run:
     wfcinit      :      0.03s CPU      0.03s WALL (       1 calls)
     potinit      :      0.01s CPU      0.01s WALL (       1 calls)
     hinit0       :      0.10s CPU      0.11s WALL (       1 calls)

     Called by electrons:
     c_bands      :      0.37s CPU      0.40s WALL (       6 calls)
     sum_band     :      0.06s CPU      0.06s WALL (       6 calls)
     v_of_rho     :      0.00s CPU      0.00s WALL (       7 calls)
     newd         :      0.01s CPU      0.01s WALL (       7 calls)
     mix_rho      :      0.00s CPU      0.00s WALL (       6 calls)

     Called by c_bands:
     init_us_2    :      0.01s CPU      0.01s WALL (     150 calls)
     cegterg      :      0.36s CPU      0.39s WALL (      60 calls)

     Called by sum_band:
     sum_band:bec :      0.00s CPU      0.00s WALL (      60 calls)
     addusdens    :      0.01s CPU      0.01s WALL (       6 calls)

     Called by *egterg:
     h_psi        :      0.22s CPU      0.24s WALL (     232 calls)
     s_psi        :      0.01s CPU      0.01s WALL (     232 calls)
     g_psi        :      0.00s CPU      0.00s WALL (     162 calls)
     cdiaghg      :      0.11s CPU      0.12s WALL (     222 calls)

     Called by h_psi:
     h_psi:pot    :      0.22s CPU      0.24s WALL (     232 calls)
     h_psi:calbec :      0.01s CPU      0.01s WALL (     232 calls)
     vloc_psi     :      0.20s CPU      0.22s WALL (     232 calls)
     add_vuspsi   :      0.01s CPU      0.01s WALL (     232 calls)

     General routines
     calbec       :      0.02s CPU      0.02s WALL (     342 calls)
     fft          :      0.01s CPU      0.01s WALL (      37 calls)
     ffts         :      0.00s CPU      0.00s WALL (       6 calls)
     fftw         :      0.23s CPU      0.24s WALL (    5554 calls)

     Parallel routines
     fft_scatt_xy :      0.02s CPU      0.02s WALL (    5597 calls)
     fft_scatt_yz :      0.09s CPU      0.10s WALL (    5597 calls)

     PWSCF        :     1.56s CPU         1.64s WALL


   This run was terminated on:  22:27:57   7Apr2024            

=------------------------------------------------------------------------------=
   JOB DONE.
=------------------------------------------------------------------------------=
