
     Program PWSCF v.6.3MaX starts on  7Apr2024 at 23: 0:48 

     This program is part of the open-source Quantum ESPRESSO suite
     for quantum simulation of materials; please cite
         "P. Giannozzi et al., J. Phys.:Condens. Matter 21 395502 (2009);
         "P. Giannozzi et al., J. Phys.:Condens. Matter 29 465901 (2017);
          URL http://www.quantum-espresso.org", 
     in publications or presentations arising from this work. More details at
     http://www.quantum-espresso.org/quote

     Parallel version (MPI), running on     5 processors

     MPI processes distributed on     1 nodes
     R & G space division:  proc/nbgrp/npool/nimage =       5
     Waiting for input...
     Reading input from standard input

     Current dimensions of program PWSCF are:
     Max number of different atomic species (ntypx) = 10
     Max number of k-points (npk) =  40000
     Max angular momentum in pseudopotentials (lmaxx) =  3

     Subspace diagonalization in iterative solution of the eigenvalue problem:
     a serial algorithm will be used


     Parallelization info
     --------------------
     sticks:   dense  smooth     PW     G-vecs:    dense   smooth      PW
     Min         116     116     32                 1850     1850     290
     Max         117     117     33                 1853     1853     293
     Sum         583     583    163                 9257     9257    1459



     bravais-lattice index     =            2
     lattice parameter (alat)  =       6.8300  a.u.
     unit-cell volume          =      79.6530 (a.u.)^3
     number of atoms/cell      =            1
     number of atomic types    =            1
     number of electrons       =        19.00
     number of Kohn-Sham states=           14
     kinetic-energy cutoff     =      90.0000  Ry
     charge density cutoff     =     360.0000  Ry
     convergence threshold     =      1.0E-08
     mixing beta               =       0.7000
     number of iterations used =            8  plain     mixing
     Exchange-correlation      = LDA ( 1  1  0  0 0 0)

     celldm(1)=   6.830000  celldm(2)=   0.000000  celldm(3)=   0.000000
     celldm(4)=   0.000000  celldm(5)=   0.000000  celldm(6)=   0.000000

     crystal axes: (cart. coord. in units of alat)
               a(1) = (  -0.500000   0.000000   0.500000 )  
               a(2) = (   0.000000   0.500000   0.500000 )  
               a(3) = (  -0.500000   0.500000   0.000000 )  

     reciprocal axes: (cart. coord. in units 2 pi/alat)
               b(1) = ( -1.000000 -1.000000  1.000000 )  
               b(2) = (  1.000000  1.000000  1.000000 )  
               b(3) = ( -1.000000  1.000000 -1.000000 )  


     PseudoPot. # 1 for Fr read from file:
     /home/lorenzo/pseudos/Fr/Fr.pz-spdn-rrkjus_psl.1.0.0.UPF
     MD5 check sum: 5665a43a3d1ea02b0b7dc7a0ae9ace04
     Pseudo is Ultrasoft + core correction, Zval = 19.0
     Generated using "atomic" code by A. Dal Corso v.6.2.2
     Using radial grid of 1287 points,  6 beta functions with: 
                l(1) =   0
                l(2) =   0
                l(3) =   1
                l(4) =   1
                l(5) =   2
                l(6) =   2
     Q(r) pseudized with 0 coefficients 


     atomic species   valence    mass     pseudopotential
        Fr            19.00   223.00000     Fr( 1.00)

     48 Sym. Ops., with inversion, found



   Cartesian axes

     site n.     atom                  positions (alat units)
         1           Fr  tau(   1) = (   0.0000000   0.0000000   0.0000000  )

     number of k points=     4  gaussian smearing, width (Ry)=  0.0100
                       cart. coord. in units 2pi/alat
        k(    1) = (   0.0000000   0.0000000   0.0000000), wk =   0.0740741
        k(    2) = (  -0.3333333   0.3333333  -0.3333333), wk =   0.5925926
        k(    3) = (   0.0000000   0.6666667   0.0000000), wk =   0.4444444
        k(    4) = (   0.6666667  -0.0000000   0.6666667), wk =   0.8888889

     Dense  grid:     9257 G-vectors     FFT dimensions: (  30,  30,  30)

     Estimated max dynamical RAM per process >       8.79 MB

     Estimated total dynamical RAM >      43.93 MB

     Initial potential from superposition of free atoms

     starting charge   18.97647, renormalised to   19.00000
     Starting wfcs are   10 randomized atomic wfcs +    4 random wfcs

     total cpu time spent up to now is        1.1 secs

     Self-consistent Calculation

     iteration #  1     ecut=    90.00 Ry     beta= 0.70
     Davidson diagonalization with overlap
     ethr =  1.00E-02,  avg # of iterations =  4.2

     Threshold (ethr) on eigenvalues was too large:
     Diagonalizing with lowered threshold

     Davidson diagonalization with overlap
     ethr =  6.48E-05,  avg # of iterations =  1.8

     total cpu time spent up to now is        1.4 secs

     total energy              =    -282.42180515 Ry
     Harris-Foulkes estimate   =    -282.43020405 Ry
     estimated scf accuracy    <       0.01220355 Ry

     iteration #  2     ecut=    90.00 Ry     beta= 0.70
     Davidson diagonalization with overlap
     ethr =  6.42E-05,  avg # of iterations =  2.0

     total cpu time spent up to now is        1.5 secs

     total energy              =    -282.42365481 Ry
     Harris-Foulkes estimate   =    -282.42395124 Ry
     estimated scf accuracy    <       0.00044258 Ry

     iteration #  3     ecut=    90.00 Ry     beta= 0.70
     Davidson diagonalization with overlap
     ethr =  2.33E-06,  avg # of iterations =  2.5

     total cpu time spent up to now is        1.5 secs

     total energy              =    -282.42371051 Ry
     Harris-Foulkes estimate   =    -282.42372266 Ry
     estimated scf accuracy    <       0.00002367 Ry

     iteration #  4     ecut=    90.00 Ry     beta= 0.70
     Davidson diagonalization with overlap
     ethr =  1.25E-07,  avg # of iterations =  2.0

     total cpu time spent up to now is        1.6 secs

     total energy              =    -282.42371296 Ry
     Harris-Foulkes estimate   =    -282.42371301 Ry
     estimated scf accuracy    <       0.00000015 Ry

     iteration #  5     ecut=    90.00 Ry     beta= 0.70
     Davidson diagonalization with overlap
     ethr =  7.71E-10,  avg # of iterations =  2.0

     total cpu time spent up to now is        1.7 secs

     End of self-consistent calculation

          k = 0.0000 0.0000 0.0000 (  1139 PWs)   bands (ev):

    -9.3871  -9.3871  -9.3871  -9.0435  -9.0435   9.1263  46.9224  46.9224
    46.9224  48.0988  53.6913  53.6913  53.6913  57.4957

          k =-0.3333 0.3333-0.3333 (  1149 PWs)   bands (ev):

    -9.3723  -9.3068  -9.3068  -8.8659  -8.8659  13.5387  28.8912  43.5464
    43.5464  47.9518  51.9187  52.5669  52.5669  61.2109

          k = 0.0000 0.6667 0.0000 (  1150 PWs)   bands (ev):

    -9.6357  -9.3321  -8.8679  -8.8679  -8.8294  15.0359  32.6291  37.0728
    37.0728  43.6328  43.6770  64.3618  64.8830  64.8830

          k = 0.6667-0.0000 0.6667 (  1141 PWs)   bands (ev):

    -9.4593  -9.0919  -9.0197  -8.9534  -8.8520  19.4204  28.0357  28.0751
    38.5730  44.3039  57.1771  58.7734  59.7677  62.3579

     the Fermi energy is    44.2733 ev

!    total energy              =    -282.42371299 Ry
     Harris-Foulkes estimate   =    -282.42371299 Ry
     estimated scf accuracy    <          2.5E-09 Ry

     The total energy is the sum of the following terms:

     one-electron contribution =      -4.49659352 Ry
     hartree contribution      =      28.32569217 Ry
     xc contribution           =     -63.91730836 Ry
     ewald contribution        =    -242.33311988 Ry
     smearing contrib. (-TS)   =      -0.00238339 Ry

     convergence has been achieved in   5 iterations

     Forces acting on atoms (cartesian axes, Ry/au):

     atom    1 type  1   force =     0.00000000    0.00000000    0.00000000

     Total force =     0.000000     Total SCF correction =     0.000000


     Computing stress (Cartesian axis) and pressure

          total   stress  (Ry/bohr**3)                   (kbar)     P= 7256.64
   0.04932962   0.00000000   0.00000000       7256.64      0.00      0.00
   0.00000000   0.04932962   0.00000000          0.00   7256.64      0.00
  -0.00000000  -0.00000000   0.04932962         -0.00     -0.00   7256.64


     Writing output data file Fr.save/

     init_run     :      0.24s CPU      0.25s WALL (       1 calls)
     electrons    :      0.55s CPU      0.58s WALL (       1 calls)
     forces       :      0.03s CPU      0.03s WALL (       1 calls)
     stress       :      0.08s CPU      0.08s WALL (       1 calls)

     Called by init_run:
     wfcinit      :      0.03s CPU      0.03s WALL (       1 calls)
     potinit      :      0.01s CPU      0.01s WALL (       1 calls)
     hinit0       :      0.18s CPU      0.19s WALL (       1 calls)

     Called by electrons:
     c_bands      :      0.37s CPU      0.39s WALL (       6 calls)
     sum_band     :      0.13s CPU      0.13s WALL (       6 calls)
     v_of_rho     :      0.01s CPU      0.01s WALL (       6 calls)
     newd         :      0.06s CPU      0.06s WALL (       6 calls)
     mix_rho      :      0.00s CPU      0.00s WALL (       6 calls)

     Called by c_bands:
     init_us_2    :      0.01s CPU      0.01s WALL (      60 calls)
     cegterg      :      0.36s CPU      0.37s WALL (      24 calls)

     Called by sum_band:
     sum_band:bec :      0.00s CPU      0.00s WALL (      24 calls)
     addusdens    :      0.06s CPU      0.06s WALL (       6 calls)

     Called by *egterg:
     h_psi        :      0.27s CPU      0.28s WALL (      86 calls)
     s_psi        :      0.01s CPU      0.01s WALL (      86 calls)
     g_psi        :      0.00s CPU      0.00s WALL (      58 calls)
     cdiaghg      :      0.04s CPU      0.04s WALL (      78 calls)

     Called by h_psi:
     h_psi:pot    :      0.27s CPU      0.28s WALL (      86 calls)
     h_psi:calbec :      0.01s CPU      0.01s WALL (      86 calls)
     vloc_psi     :      0.24s CPU      0.26s WALL (      86 calls)
     add_vuspsi   :      0.01s CPU      0.01s WALL (      86 calls)

     General routines
     calbec       :      0.02s CPU      0.02s WALL (     130 calls)
     fft          :      0.01s CPU      0.01s WALL (      34 calls)
     ffts         :      0.00s CPU      0.00s WALL (       6 calls)
     fftw         :      0.27s CPU      0.28s WALL (    2128 calls)

     Parallel routines
     fft_scatt_xy :      0.02s CPU      0.03s WALL (    2168 calls)
     fft_scatt_yz :      0.06s CPU      0.06s WALL (    2168 calls)

     PWSCF        :     1.80s CPU         1.87s WALL


   This run was terminated on:  23: 0:50   7Apr2024            

=------------------------------------------------------------------------------=
   JOB DONE.
=------------------------------------------------------------------------------=
