
     Program PWSCF v.6.3MaX starts on  7Apr2024 at 22:16:48 

     This program is part of the open-source Quantum ESPRESSO suite
     for quantum simulation of materials; please cite
         "P. Giannozzi et al., J. Phys.:Condens. Matter 21 395502 (2009);
         "P. Giannozzi et al., J. Phys.:Condens. Matter 29 465901 (2017);
          URL http://www.quantum-espresso.org", 
     in publications or presentations arising from this work. More details at
     http://www.quantum-espresso.org/quote

     Parallel version (MPI), running on     5 processors

     MPI processes distributed on     1 nodes
     R & G space division:  proc/nbgrp/npool/nimage =       5
     Waiting for input...
     Reading input from standard input

     Current dimensions of program PWSCF are:
     Max number of different atomic species (ntypx) = 10
     Max number of k-points (npk) =  40000
     Max angular momentum in pseudopotentials (lmaxx) =  3

     Subspace diagonalization in iterative solution of the eigenvalue problem:
     a serial algorithm will be used


     Parallelization info
     --------------------
     sticks:   dense  smooth     PW     G-vecs:    dense   smooth      PW
     Min         129     129     39                 2168     2168     365
     Max         130     130     40                 2171     2171     368
     Sum         649     649    199                10849    10849    1837



     bravais-lattice index     =            2
     lattice parameter (alat)  =       6.8300  a.u.
     unit-cell volume          =      79.6530 (a.u.)^3
     number of atoms/cell      =            1
     number of atomic types    =            1
     number of electrons       =        19.00
     number of Kohn-Sham states=           14
     kinetic-energy cutoff     =     100.0000  Ry
     charge density cutoff     =     400.0000  Ry
     convergence threshold     =      1.0E-08
     mixing beta               =       0.7000
     number of iterations used =            8  plain     mixing
     Exchange-correlation      = PBE ( 1  4  3  4 0 0)

     celldm(1)=   6.830000  celldm(2)=   0.000000  celldm(3)=   0.000000
     celldm(4)=   0.000000  celldm(5)=   0.000000  celldm(6)=   0.000000

     crystal axes: (cart. coord. in units of alat)
               a(1) = (  -0.500000   0.000000   0.500000 )  
               a(2) = (   0.000000   0.500000   0.500000 )  
               a(3) = (  -0.500000   0.500000   0.000000 )  

     reciprocal axes: (cart. coord. in units 2 pi/alat)
               b(1) = ( -1.000000 -1.000000  1.000000 )  
               b(2) = (  1.000000  1.000000  1.000000 )  
               b(3) = ( -1.000000  1.000000 -1.000000 )  


     PseudoPot. # 1 for Fr read from file:
     /home/lorenzo/pseudos/Fr/Fr.pbe-spdn-rrkjus_psl.1.0.0.UPF
     MD5 check sum: 07cabfa18982bd6b5b9d8ae5689d9732
     Pseudo is Ultrasoft + core correction, Zval = 19.0
     Generated using "atomic" code by A. Dal Corso v.6.2.2
     Using radial grid of 1287 points,  6 beta functions with: 
                l(1) =   0
                l(2) =   0
                l(3) =   1
                l(4) =   1
                l(5) =   2
                l(6) =   2
     Q(r) pseudized with 0 coefficients 


     atomic species   valence    mass     pseudopotential
        Fr            19.00   223.00000     Fr( 1.00)

     48 Sym. Ops., with inversion, found



   Cartesian axes

     site n.     atom                  positions (alat units)
         1           Fr  tau(   1) = (   0.0000000   0.0000000   0.0000000  )

     number of k points=    10  gaussian smearing, width (Ry)=  0.0100
                       cart. coord. in units 2pi/alat
        k(    1) = (   0.0000000   0.0000000   0.0000000), wk =   0.0160000
        k(    2) = (  -0.2000000   0.2000000  -0.2000000), wk =   0.1280000
        k(    3) = (  -0.4000000   0.4000000  -0.4000000), wk =   0.1280000
        k(    4) = (   0.0000000   0.4000000   0.0000000), wk =   0.0960000
        k(    5) = (  -0.2000000   0.6000000  -0.2000000), wk =   0.3840000
        k(    6) = (   0.6000000  -0.2000000   0.6000000), wk =   0.3840000
        k(    7) = (   0.4000000   0.0000000   0.4000000), wk =   0.1920000
        k(    8) = (   0.0000000   0.8000000   0.0000000), wk =   0.0960000
        k(    9) = (   0.8000000   0.0000000   0.8000000), wk =   0.1920000
        k(   10) = (   0.6000000  -0.2000000   1.0000000), wk =   0.3840000

     Dense  grid:    10849 G-vectors     FFT dimensions: (  32,  32,  32)

     Estimated max dynamical RAM per process >      10.50 MB

     Estimated total dynamical RAM >      52.52 MB

     Initial potential from superposition of free atoms

     starting charge   18.97009, renormalised to   19.00000
     Starting wfcs are   10 randomized atomic wfcs +    4 random wfcs

     total cpu time spent up to now is        1.2 secs

     Self-consistent Calculation

     iteration #  1     ecut=   100.00 Ry     beta= 0.70
     Davidson diagonalization with overlap
     ethr =  1.00E-02,  avg # of iterations =  4.8

     Threshold (ethr) on eigenvalues was too large:
     Diagonalizing with lowered threshold

     Davidson diagonalization with overlap
     ethr =  1.15E-04,  avg # of iterations =  1.8

     total cpu time spent up to now is        1.7 secs

     total energy              =    -282.87242285 Ry
     Harris-Foulkes estimate   =    -282.88568874 Ry
     estimated scf accuracy    <       0.02153202 Ry

     iteration #  2     ecut=   100.00 Ry     beta= 0.70
     Davidson diagonalization with overlap
     ethr =  1.13E-04,  avg # of iterations =  2.0

     total cpu time spent up to now is        1.8 secs

     total energy              =    -282.87663478 Ry
     Harris-Foulkes estimate   =    -282.87760082 Ry
     estimated scf accuracy    <       0.00136024 Ry

     iteration #  3     ecut=   100.00 Ry     beta= 0.70
     Davidson diagonalization with overlap
     ethr =  7.16E-06,  avg # of iterations =  2.1

     total cpu time spent up to now is        2.0 secs

     total energy              =    -282.87692699 Ry
     Harris-Foulkes estimate   =    -282.87693941 Ry
     estimated scf accuracy    <       0.00003319 Ry

     iteration #  4     ecut=   100.00 Ry     beta= 0.70
     Davidson diagonalization with overlap
     ethr =  1.75E-07,  avg # of iterations =  1.8

     total cpu time spent up to now is        2.2 secs

     total energy              =    -282.87693053 Ry
     Harris-Foulkes estimate   =    -282.87693057 Ry
     estimated scf accuracy    <       0.00000048 Ry

     iteration #  5     ecut=   100.00 Ry     beta= 0.70
     Davidson diagonalization with overlap
     ethr =  2.52E-09,  avg # of iterations =  2.0

     total cpu time spent up to now is        2.4 secs

     total energy              =    -282.87693062 Ry
     Harris-Foulkes estimate   =    -282.87693063 Ry
     estimated scf accuracy    <       0.00000003 Ry

     iteration #  6     ecut=   100.00 Ry     beta= 0.70
     Davidson diagonalization with overlap
     ethr =  1.35E-10,  avg # of iterations =  2.0

     total cpu time spent up to now is        2.6 secs

     End of self-consistent calculation

          k = 0.0000 0.0000 0.0000 (  1363 PWs)   bands (ev):

    -9.2487  -9.2487  -9.2487  -8.9098  -8.9098   9.4806  47.2902  47.2902
    47.2902  48.3281  53.8751  53.8751  53.8751  57.7899

          k =-0.2000 0.2000-0.2000 (  1345 PWs)   bands (ev):

    -9.2376  -9.1657  -9.1657  -8.8769  -8.8769  11.0872  36.8643  45.4493
    45.4493  48.2341  54.3916  55.0592  55.0593  57.2683

          k =-0.4000 0.4000-0.4000 (  1362 PWs)   bands (ev):

    -9.2341  -9.1856  -9.1856  -8.6629  -8.6629  15.6933  25.9721  43.3603
    43.3603  48.1138  51.5767  52.1275  52.1275  63.6436

          k = 0.0000 0.4000 0.0000 (  1343 PWs)   bands (ev):

    -9.3624  -9.0327  -9.0166  -9.0166  -8.8126  11.6218  40.9643  41.1409
    41.1409  45.4178  47.7238  60.2424  60.4361  60.4361

          k =-0.2000 0.6000-0.2000 (  1345 PWs)   bands (ev):

    -9.3475  -9.1140  -8.9662  -8.8363  -8.6377  15.2914  30.2166  37.8306
    39.1917  44.9140  51.6388  58.2406  58.6510  60.6075

          k = 0.6000-0.2000 0.6000 (  1350 PWs)   bands (ev):

    -9.2608  -9.0734  -9.0086  -8.7621  -8.6742  18.4598  25.1871  34.5918
    40.6461  45.5742  55.7077  55.7112  60.8515  62.5047

          k = 0.4000 0.0000 0.4000 (  1344 PWs)   bands (ev):

    -9.1889  -9.1612  -8.9983  -8.9579  -8.7288  13.7338  33.2531  35.1766
    45.0841  48.6485  52.7499  54.9886  55.4813  58.0311

          k = 0.0000 0.8000 0.0000 (  1347 PWs)   bands (ev):

    -9.5446  -9.2615  -8.6537  -8.6237  -8.6237  17.9100  29.0061  36.2328
    36.2328  43.0946  43.3604  64.4768  67.9614  67.9615

          k = 0.8000 0.0000 0.8000 (  1348 PWs)   bands (ev):

    -9.4356  -9.1824  -8.7108  -8.6946  -8.6164  21.1279  26.1998  30.3418
    36.8028  43.4593  50.2881  61.5704  64.5287  66.5293

          k = 0.6000-0.2000 1.0000 (  1336 PWs)   bands (ev):

    -9.2250  -9.1603  -8.9459  -8.7378  -8.6293  19.3854  28.5605  30.7721
    34.6207  50.7606  51.0686  54.7202  61.9051  65.9544

     the Fermi energy is    45.5845 ev

!    total energy              =    -282.87693062 Ry
     Harris-Foulkes estimate   =    -282.87693062 Ry
     estimated scf accuracy    <          2.3E-10 Ry

     The total energy is the sum of the following terms:

     one-electron contribution =      -4.15133452 Ry
     hartree contribution      =      28.20500070 Ry
     xc contribution           =     -64.59607056 Ry
     ewald contribution        =    -242.33311988 Ry
     smearing contrib. (-TS)   =      -0.00140636 Ry

     convergence has been achieved in   6 iterations

     Forces acting on atoms (cartesian axes, Ry/au):

     atom    1 type  1   force =     0.00000000    0.00000000    0.00000000

     Total force =     0.000000     Total SCF correction =     0.000000


     Computing stress (Cartesian axis) and pressure

          total   stress  (Ry/bohr**3)                   (kbar)     P= 7254.04
   0.04931199   0.00000000   0.00000000       7254.04      0.00      0.00
   0.00000000   0.04931199   0.00000000          0.00   7254.04      0.00
   0.00000000  -0.00000000   0.04931199          0.00     -0.00   7254.04


     Writing output data file Fr.save/

     init_run     :      0.30s CPU      0.30s WALL (       1 calls)
     electrons    :      1.36s CPU      1.44s WALL (       1 calls)
     forces       :      0.06s CPU      0.06s WALL (       1 calls)
     stress       :      0.14s CPU      0.14s WALL (       1 calls)

     Called by init_run:
     wfcinit      :      0.06s CPU      0.06s WALL (       1 calls)
     potinit      :      0.01s CPU      0.01s WALL (       1 calls)
     hinit0       :      0.20s CPU      0.20s WALL (       1 calls)

     Called by electrons:
     c_bands      :      1.01s CPU      1.08s WALL (       7 calls)
     sum_band     :      0.24s CPU      0.26s WALL (       7 calls)
     v_of_rho     :      0.04s CPU      0.04s WALL (       7 calls)
     newd         :      0.07s CPU      0.07s WALL (       7 calls)
     mix_rho      :      0.00s CPU      0.00s WALL (       7 calls)

     Called by c_bands:
     init_us_2    :      0.03s CPU      0.03s WALL (     170 calls)
     cegterg      :      0.97s CPU      1.03s WALL (      70 calls)

     Called by sum_band:
     sum_band:bec :      0.00s CPU      0.00s WALL (      70 calls)
     addusdens    :      0.08s CPU      0.08s WALL (       7 calls)

     Called by *egterg:
     h_psi        :      0.73s CPU      0.79s WALL (     245 calls)
     s_psi        :      0.03s CPU      0.03s WALL (     245 calls)
     g_psi        :      0.00s CPU      0.00s WALL (     165 calls)
     cdiaghg      :      0.10s CPU      0.10s WALL (     225 calls)

     Called by h_psi:
     h_psi:pot    :      0.73s CPU      0.78s WALL (     245 calls)
     h_psi:calbec :      0.04s CPU      0.04s WALL (     245 calls)
     vloc_psi     :      0.66s CPU      0.71s WALL (     245 calls)
     add_vuspsi   :      0.03s CPU      0.03s WALL (     245 calls)

     General routines
     calbec       :      0.08s CPU      0.08s WALL (     365 calls)
     fft          :      0.02s CPU      0.02s WALL (     104 calls)
     ffts         :      0.00s CPU      0.00s WALL (       7 calls)
     fftw         :      0.73s CPU      0.79s WALL (    6110 calls)

     Parallel routines
     fft_scatt_xy :      0.08s CPU      0.08s WALL (    6221 calls)
     fft_scatt_yz :      0.24s CPU      0.25s WALL (    6221 calls)

     PWSCF        :     2.73s CPU         2.87s WALL


   This run was terminated on:  22:16:50   7Apr2024            

=------------------------------------------------------------------------------=
   JOB DONE.
=------------------------------------------------------------------------------=
