
     Program PWSCF v.6.3MaX starts on  7Apr2024 at 22:38:34 

     This program is part of the open-source Quantum ESPRESSO suite
     for quantum simulation of materials; please cite
         "P. Giannozzi et al., J. Phys.:Condens. Matter 21 395502 (2009);
         "P. Giannozzi et al., J. Phys.:Condens. Matter 29 465901 (2017);
          URL http://www.quantum-espresso.org", 
     in publications or presentations arising from this work. More details at
     http://www.quantum-espresso.org/quote

     Parallel version (MPI), running on     5 processors

     MPI processes distributed on     1 nodes
     R & G space division:  proc/nbgrp/npool/nimage =       5
     Waiting for input...
     Reading input from standard input

     Current dimensions of program PWSCF are:
     Max number of different atomic species (ntypx) = 10
     Max number of k-points (npk) =  40000
     Max angular momentum in pseudopotentials (lmaxx) =  3

     Subspace diagonalization in iterative solution of the eigenvalue problem:
     a serial algorithm will be used


     Parallelization info
     --------------------
     sticks:   dense  smooth     PW     G-vecs:    dense   smooth      PW
     Min          72      72     24                  876      876     173
     Max          73      73     25                  877      877     174
     Sum         361     361    121                 4381     4381     869



     bravais-lattice index     =            2
     lattice parameter (alat)  =       6.8300  a.u.
     unit-cell volume          =      79.6530 (a.u.)^3
     number of atoms/cell      =            1
     number of atomic types    =            1
     number of electrons       =        19.00
     number of Kohn-Sham states=           14
     kinetic-energy cutoff     =      55.0000  Ry
     charge density cutoff     =     220.0000  Ry
     convergence threshold     =      1.0E-08
     mixing beta               =       0.7000
     number of iterations used =            8  plain     mixing
     Exchange-correlation      = PBE ( 1  4  3  4 0 0)

     celldm(1)=   6.830000  celldm(2)=   0.000000  celldm(3)=   0.000000
     celldm(4)=   0.000000  celldm(5)=   0.000000  celldm(6)=   0.000000

     crystal axes: (cart. coord. in units of alat)
               a(1) = (  -0.500000   0.000000   0.500000 )  
               a(2) = (   0.000000   0.500000   0.500000 )  
               a(3) = (  -0.500000   0.500000   0.000000 )  

     reciprocal axes: (cart. coord. in units 2 pi/alat)
               b(1) = ( -1.000000 -1.000000  1.000000 )  
               b(2) = (  1.000000  1.000000  1.000000 )  
               b(3) = ( -1.000000  1.000000 -1.000000 )  


     PseudoPot. # 1 for Fr read from file:
     /home/lorenzo/pseudos/Fr/Fr.pbe-spdn-rrkjus_psl.1.0.0.UPF
     MD5 check sum: 07cabfa18982bd6b5b9d8ae5689d9732
     Pseudo is Ultrasoft + core correction, Zval = 19.0
     Generated using "atomic" code by A. Dal Corso v.6.2.2
     Using radial grid of 1287 points,  6 beta functions with: 
                l(1) =   0
                l(2) =   0
                l(3) =   1
                l(4) =   1
                l(5) =   2
                l(6) =   2
     Q(r) pseudized with 0 coefficients 


     atomic species   valence    mass     pseudopotential
        Fr            19.00   223.00000     Fr( 1.00)

     48 Sym. Ops., with inversion, found



   Cartesian axes

     site n.     atom                  positions (alat units)
         1           Fr  tau(   1) = (   0.0000000   0.0000000   0.0000000  )

     number of k points=    56  gaussian smearing, width (Ry)=  0.0100
                       cart. coord. in units 2pi/alat
        k(    1) = (   0.0000000   0.0000000   0.0000000), wk =   0.0015026
        k(    2) = (  -0.0909091   0.0909091  -0.0909091), wk =   0.0120210
        k(    3) = (  -0.1818182   0.1818182  -0.1818182), wk =   0.0120210
        k(    4) = (  -0.2727273   0.2727273  -0.2727273), wk =   0.0120210
        k(    5) = (  -0.3636364   0.3636364  -0.3636364), wk =   0.0120210
        k(    6) = (  -0.4545455   0.4545455  -0.4545455), wk =   0.0120210
        k(    7) = (   0.0000000   0.1818182   0.0000000), wk =   0.0090158
        k(    8) = (  -0.0909091   0.2727273  -0.0909091), wk =   0.0360631
        k(    9) = (  -0.1818182   0.3636364  -0.1818182), wk =   0.0360631
        k(   10) = (  -0.2727273   0.4545455  -0.2727273), wk =   0.0360631
        k(   11) = (  -0.3636364   0.5454545  -0.3636364), wk =   0.0360631
        k(   12) = (   0.5454545  -0.3636364   0.5454545), wk =   0.0360631
        k(   13) = (   0.4545455  -0.2727273   0.4545455), wk =   0.0360631
        k(   14) = (   0.3636364  -0.1818182   0.3636364), wk =   0.0360631
        k(   15) = (   0.2727273  -0.0909091   0.2727273), wk =   0.0360631
        k(   16) = (   0.1818182  -0.0000000   0.1818182), wk =   0.0180316
        k(   17) = (   0.0000000   0.3636364   0.0000000), wk =   0.0090158
        k(   18) = (  -0.0909091   0.4545455  -0.0909091), wk =   0.0360631
        k(   19) = (  -0.1818182   0.5454545  -0.1818182), wk =   0.0360631
        k(   20) = (  -0.2727273   0.6363636  -0.2727273), wk =   0.0360631
        k(   21) = (   0.6363636  -0.2727273   0.6363636), wk =   0.0360631
        k(   22) = (   0.5454545  -0.1818182   0.5454545), wk =   0.0360631
        k(   23) = (   0.4545455  -0.0909091   0.4545455), wk =   0.0360631
        k(   24) = (   0.3636364   0.0000000   0.3636364), wk =   0.0180316
        k(   25) = (   0.0000000   0.5454545   0.0000000), wk =   0.0090158
        k(   26) = (  -0.0909091   0.6363636  -0.0909091), wk =   0.0360631
        k(   27) = (  -0.1818182   0.7272727  -0.1818182), wk =   0.0360631
        k(   28) = (   0.7272727  -0.1818182   0.7272727), wk =   0.0360631
        k(   29) = (   0.6363636  -0.0909091   0.6363636), wk =   0.0360631
        k(   30) = (   0.5454545   0.0000000   0.5454545), wk =   0.0180316
        k(   31) = (   0.0000000   0.7272727   0.0000000), wk =   0.0090158
        k(   32) = (  -0.0909091   0.8181818  -0.0909091), wk =   0.0360631
        k(   33) = (   0.8181818  -0.0909091   0.8181818), wk =   0.0360631
        k(   34) = (   0.7272727   0.0000000   0.7272727), wk =   0.0180316
        k(   35) = (   0.0000000   0.9090909   0.0000000), wk =   0.0090158
        k(   36) = (   0.9090909  -0.0000000   0.9090909), wk =   0.0180316
        k(   37) = (  -0.1818182   0.3636364   0.0000000), wk =   0.0360631
        k(   38) = (  -0.2727273   0.4545455  -0.0909091), wk =   0.0721262
        k(   39) = (  -0.3636364   0.5454545  -0.1818182), wk =   0.0721262
        k(   40) = (   0.5454545  -0.3636364   0.7272727), wk =   0.0721262
        k(   41) = (  -0.1818182   0.5454545   0.0000000), wk =   0.0360631
        k(   42) = (  -0.2727273   0.6363636  -0.0909091), wk =   0.0721262
        k(   43) = (   0.6363636  -0.2727273   0.8181818), wk =   0.0721262
        k(   44) = (   0.5454545  -0.1818182   0.7272727), wk =   0.0721262
        k(   45) = (   0.4545455  -0.0909091   0.6363636), wk =   0.0721262
        k(   46) = (   0.3636364   0.0000000   0.5454545), wk =   0.0360631
        k(   47) = (  -0.1818182   0.7272727   0.0000000), wk =   0.0360631
        k(   48) = (   0.7272727  -0.1818182   0.9090909), wk =   0.0721262
        k(   49) = (   0.6363636  -0.0909091   0.8181818), wk =   0.0721262
        k(   50) = (   0.5454545   0.0000000   0.7272727), wk =   0.0360631
        k(   51) = (   0.8181818  -0.0909091   1.0000000), wk =   0.0360631
        k(   52) = (   0.7272727   0.0000000   0.9090909), wk =   0.0360631
        k(   53) = (   0.6363636  -0.2727273   1.0000000), wk =   0.0360631
        k(   54) = (   0.5454545  -0.1818182   0.9090909), wk =   0.0721262
        k(   55) = (   0.6363636  -0.0909091   1.0000000), wk =   0.0360631
        k(   56) = (   0.5454545   0.0000000   0.9090909), wk =   0.0360631

     Dense  grid:     4381 G-vectors     FFT dimensions: (  24,  24,  24)

     Estimated max dynamical RAM per process >       5.90 MB

     Estimated total dynamical RAM >      29.52 MB

     Check: negative/imaginary core charge=   -0.000002    0.000000

     Initial potential from superposition of free atoms

     starting charge   18.97009, renormalised to   19.00000
     Starting wfcs are   10 randomized atomic wfcs +    4 random wfcs

     total cpu time spent up to now is        1.3 secs

     Self-consistent Calculation

     iteration #  1     ecut=    55.00 Ry     beta= 0.70
     Davidson diagonalization with overlap
     ethr =  1.00E-02,  avg # of iterations =  4.7

     Threshold (ethr) on eigenvalues was too large:
     Diagonalizing with lowered threshold

     Davidson diagonalization with overlap
     ethr =  1.00E-04,  avg # of iterations =  1.7

     total cpu time spent up to now is        2.5 secs

     total energy              =    -282.83290487 Ry
     Harris-Foulkes estimate   =    -282.84444665 Ry
     estimated scf accuracy    <       0.01884689 Ry

     iteration #  2     ecut=    55.00 Ry     beta= 0.70
     Davidson diagonalization with overlap
     ethr =  9.92E-05,  avg # of iterations =  2.0

     total cpu time spent up to now is        3.0 secs

     total energy              =    -282.83563384 Ry
     Harris-Foulkes estimate   =    -282.83607418 Ry
     estimated scf accuracy    <       0.00065404 Ry

     iteration #  3     ecut=    55.00 Ry     beta= 0.70
     Davidson diagonalization with overlap
     ethr =  3.44E-06,  avg # of iterations =  2.5

     total cpu time spent up to now is        3.6 secs

     total energy              =    -282.83573484 Ry
     Harris-Foulkes estimate   =    -282.83575169 Ry
     estimated scf accuracy    <       0.00003906 Ry

     iteration #  4     ecut=    55.00 Ry     beta= 0.70
     Davidson diagonalization with overlap
     ethr =  2.06E-07,  avg # of iterations =  1.7

     total cpu time spent up to now is        4.0 secs

     total energy              =    -282.83573874 Ry
     Harris-Foulkes estimate   =    -282.83573872 Ry
     estimated scf accuracy    <       0.00000014 Ry

     iteration #  5     ecut=    55.00 Ry     beta= 0.70
     Davidson diagonalization with overlap
     ethr =  7.11E-10,  avg # of iterations =  2.6

     total cpu time spent up to now is        4.7 secs

     End of self-consistent calculation

          k = 0.0000 0.0000 0.0000 (   537 PWs)   bands (ev):

    -9.2687  -9.2687  -9.2687  -8.9282  -8.9282   9.4734  47.2971  47.2971
    47.2971  48.3114  53.8876  53.8876  53.8876  57.8199

          k =-0.0909 0.0909-0.0909 (   537 PWs)   bands (ev):

    -9.2657  -9.2426  -9.2426  -8.9282  -8.9282   9.8048  43.6551  46.7825
    46.7825  48.1969  54.7254  54.7254  55.8051  57.6662

          k =-0.1818 0.1818-0.1818 (   552 PWs)   bands (ev):

    -9.2595  -9.1929  -9.1929  -8.9070  -8.9070  10.8009  37.9913  45.6880
    45.6880  48.2238  54.7631  55.4774  55.4774  56.7767

          k =-0.2727 0.2727-0.2727 (   555 PWs)   bands (ev):

    -9.2552  -9.1782  -9.1782  -8.8272  -8.8272  12.4547  32.5278  44.5415
    44.5415  48.2273  53.0423  53.6598  53.6598  59.4902

          k =-0.3636 0.3636-0.3636 (   550 PWs)   bands (ev):

    -9.2548  -9.1962  -9.1962  -8.7199  -8.7199  14.6918  27.6595  43.6198
    43.6198  48.1611  51.8663  52.4519  52.4519  62.4959

          k =-0.4545 0.4545-0.4545 (   556 PWs)   bands (ev):

    -9.2560  -9.2135  -9.2135  -8.6487  -8.6487  17.0454  23.9675  43.1061
    43.1061  48.0744  51.3144  51.8625  51.8625  65.0332

          k = 0.0000 0.1818 0.0000 (   540 PWs)   bands (ev):

    -9.2949  -9.2164  -9.2164  -8.9550  -8.9061   9.9151  45.1345  45.1345
    45.6059  47.2953  54.2186  55.6254  56.2969  56.2969

          k =-0.0909 0.2727-0.0909 (   551 PWs)   bands (ev):

    -9.3048  -9.1623  -9.1578  -8.9718  -8.8751  10.6896  40.0332  43.6108
    45.1686  48.2516  51.5613  55.5098  57.9801  58.2660

          k =-0.1818 0.3636-0.1818 (   551 PWs)   bands (ev):

    -9.2923  -9.1445  -9.1273  -8.9279  -8.8015  12.1258  34.4978  42.4610
    43.9885  48.1219  51.8840  55.4541  56.5720  56.9226

          k =-0.2727 0.4545-0.2727 (   545 PWs)   bands (ev):

    -9.2749  -9.1678  -9.1393  -8.8253  -8.7036  14.1800  29.4393  41.8115
    42.5611  47.0986  53.3501  54.7471  54.8757  57.7537

          k =-0.3636 0.5455-0.3636 (   553 PWs)   bands (ev):

    -9.2606  -9.1915  -9.1619  -8.7260  -8.6416  16.5984  25.2693  41.2164
    41.7560  46.7344  53.3940  53.6037  54.3142  61.0219

          k = 0.5455-0.3636 0.5455 (   557 PWs)   bands (ev):

    -9.2442  -9.2056  -9.1729  -8.6720  -8.6517  17.7413  23.6883  40.2919
    42.3513  46.9706  52.5468  52.8034  55.1186  64.2835

          k = 0.4545-0.2727 0.4545 (   549 PWs)   bands (ev):

    -9.2319  -9.2034  -9.1649  -8.7348  -8.6822  15.7905  26.5262  39.9358
    43.5824  47.7444  51.9389  52.4743  56.2739  61.6584

          k = 0.3636-0.1818 0.3636 (   552 PWs)   bands (ev):

    -9.2435  -9.1763  -9.1461  -8.8572  -8.7477  13.4321  31.0652  40.1658
    45.3030  48.9402  51.5775  52.6421  57.7741  58.3521

          k = 0.2727-0.0909 0.2727 (   554 PWs)   bands (ev):

    -9.2606  -9.1629  -9.1538  -8.9476  -8.8337  11.5745  36.2989  40.9500
    47.0713  49.7001  52.0885  53.4326  55.5945  57.3726

          k = 0.1818-0.0000 0.1818 (   547 PWs)   bands (ev):

    -9.2709  -9.2105  -9.1915  -8.9527  -8.8957  10.3578  41.5211  42.5725
    47.7974  49.0519  54.0626  54.1864  55.1491  56.4508

          k = 0.0000 0.3636 0.0000 (   556 PWs)   bands (ev):

    -9.3651  -9.0742  -9.0742  -9.0310  -8.8466  11.2426  41.7778  41.7778
    41.8912  45.7006  48.6182  59.3574  59.8343  59.8344

          k =-0.0909 0.4545-0.0909 (   553 PWs)   bands (ev):

    -9.3837  -9.0913  -9.0115  -8.9706  -8.7860  12.4577  36.6695  40.4344
    41.2229  45.9521  47.9549  59.3060  59.9003  60.6640

          k =-0.1818 0.5455-0.1818 (   548 PWs)   bands (ev):

    -9.3613  -9.1252  -9.0100  -8.8880  -8.6920  14.3045  31.6265  39.3017
    39.6988  45.3367  51.1035  58.2076  58.4424  59.6321

          k =-0.2727 0.6364-0.2727 (   551 PWs)   bands (ev):

    -9.3253  -9.1256  -9.0330  -8.8279  -8.6328  16.6239  27.2622  37.4385
    39.6499  45.1384  55.1164  56.6806  57.0926  59.6160

          k = 0.6364-0.2727 0.6364 (   550 PWs)   bands (ev):

    -9.2911  -9.1139  -9.0527  -8.7815  -8.6488  18.4757  24.6108  36.0289
    40.3284  45.4456  55.5666  55.6146  59.6881  60.3796

          k = 0.5455-0.1818 0.5455 (   546 PWs)   bands (ev):

    -9.2512  -9.1305  -9.0563  -8.7446  -8.7418  17.3658  26.1818  35.2328
    41.7178  46.2564  54.6305  54.8852  60.9796  61.5402

          k = 0.4545-0.0909 0.4545 (   547 PWs)   bands (ev):

    -9.2062  -9.1775  -9.0417  -8.8815  -8.7345  15.0198  30.1926  35.1435
    43.7083  47.5941  53.5717  54.6178  57.8573  59.3637

          k = 0.3636 0.0000 0.3636 (   546 PWs)   bands (ev):

    -9.2307  -9.1690  -9.0573  -8.9787  -8.7668  12.9996  34.4536  36.3210
    45.9485  49.4582  51.9679  54.3617  55.1850  57.6607

          k = 0.0000 0.5455 0.0000 (   560 PWs)   bands (ev):

    -9.4563  -9.1388  -8.8831  -8.8831  -8.7682  13.4510  36.7383  38.8732
    38.8732  44.4164  45.1901  62.8801  62.8801  64.1257

          k =-0.0909 0.6364-0.0909 (   549 PWs)   bands (ev):

    -9.4694  -9.1821  -8.8468  -8.8038  -8.6895  15.0812  33.0845  36.7819
    37.9437  44.1872  46.2962  61.8238  62.6392  65.0790

          k =-0.1818 0.7273-0.1818 (   550 PWs)   bands (ev):

    -9.4280  -9.1751  -8.8659  -8.7822  -8.6247  17.2303  29.2446  34.2313
    37.7366  44.0016  50.0140  60.1050  61.0791  65.1483

          k = 0.7273-0.1818 0.7273 (   548 PWs)   bands (ev):

    -9.3704  -9.0944  -8.8905  -8.8233  -8.6395  19.3164  26.3666  32.2196
    38.2894  44.2437  54.4509  58.7877  59.5964  65.5233

          k = 0.6364-0.0909 0.6364 (   545 PWs)   bands (ev):

    -9.3142  -9.0003  -8.9080  -8.8779  -8.7338  19.1851  26.7416  30.9423
    39.5754  44.9186  57.8777  58.2813  59.1033  62.3687

          k = 0.5455 0.0000 0.5455 (   546 PWs)   bands (ev):

    -9.2562  -9.0740  -8.9260  -8.8627  -8.7980  17.0986  29.5229  31.0739
    41.4803  46.0434  56.3974  57.1186  58.7735  59.9921

          k = 0.0000 0.7273 0.0000 (   548 PWs)   bands (ev):

    -9.5395  -9.2456  -8.7025  -8.7025  -8.6957  16.4915  31.1296  36.7930
    36.7930  43.5015  43.5721  64.5462  66.4073  66.4073

          k =-0.0909 0.8182-0.0909 (   549 PWs)   bands (ev):

    -9.5347  -9.2664  -8.7161  -8.6631  -8.6171  18.4271  28.4899  34.4309
    36.3691  43.2886  45.4150  63.1826  65.7524  69.1503

          k = 0.8182-0.0909 0.8182 (   545 PWs)   bands (ev):

    -9.4684  -9.2179  -8.7421  -8.7061  -8.6215  20.3891  26.6959  31.2157
    36.7213  43.4398  49.4400  61.6657  64.1069  67.9763

          k = 0.7273 0.0000 0.7273 (   542 PWs)   bands (ev):

    -9.3881  -9.0859  -8.8178  -8.7890  -8.6904  20.6844  27.2472  28.7855
    37.8262  43.9784  54.1682  60.1273  62.0170  64.4393

          k = 0.0000 0.9091 0.0000 (   544 PWs)   bands (ev):

    -9.5887  -9.3125  -8.6525  -8.5928  -8.5928  20.0550  26.1641  35.7105
    35.7105  42.7933  43.1593  64.3926  70.2493  70.2657

          k = 0.9091-0.0000 0.9091 (   550 PWs)   bands (ev):

    -9.5590  -9.2995  -8.6656  -8.6092  -8.5911  21.1422  25.2010  33.7659
    35.8308  43.0120  45.1356  63.5989  68.3711  69.8427

          k =-0.1818 0.3636 0.0000 (   552 PWs)   bands (ev):

    -9.3173  -9.1252  -9.0815  -8.9950  -8.8207  11.6848  37.8979  39.4373
    45.2587  48.4183  49.6926  56.2025  56.7716  59.1980

          k =-0.2727 0.4545-0.0909 (   549 PWs)   bands (ev):

    -9.2939  -9.1430  -9.0485  -8.9383  -8.7444  13.3281  33.1270  37.9513
    43.4054  48.2113  51.4595  54.6405  57.0132  60.9376

          k =-0.3636 0.5455-0.1818 (   552 PWs)   bands (ev):

    -9.2590  -9.1767  -9.0617  -8.8318  -8.6821  15.5311  28.4352  37.4761
    41.4693  47.6183  52.4038  55.8711  57.4614  59.5900

          k = 0.5455-0.3636 0.7273 (   552 PWs)   bands (ev):

    -9.2334  -9.2044  -9.0669  -8.7577  -8.6554  17.8041  24.8843  37.4435
    40.2210  47.3092  51.9876  57.2290  58.3009  60.5458

          k =-0.1818 0.5455 0.0000 (   547 PWs)   bands (ev):

    -9.3967  -9.1308  -8.9579  -8.8885  -8.7267  13.8806  34.5364  36.7959
    40.0456  46.9714  47.2190  58.0023  61.2860  64.1958

          k =-0.2727 0.6364-0.0909 (   545 PWs)   bands (ev):

    -9.3575  -9.1516  -8.9611  -8.8172  -8.6724  15.8879  30.5607  35.2387
    38.2561  46.7441  50.5467  56.1989  61.8265  63.4051

          k = 0.6364-0.2727 0.8182 (   548 PWs)   bands (ev):

    -9.3057  -9.1341  -8.9587  -8.8201  -8.6460  18.1774  26.8474  34.2516
    37.4379  46.8119  53.9206  55.6579  61.4850  62.7071

          k = 0.5455-0.1818 0.7273 (   551 PWs)   bands (ev):

    -9.2643  -9.1245  -8.9264  -8.8581  -8.6704  19.1658  25.5444  33.3226
    37.9153  47.3243  53.5150  59.4650  60.4877  60.9666

          k = 0.4545-0.0909 0.6364 (   548 PWs)   bands (ev):

    -9.2217  -9.1648  -8.9617  -8.8241  -8.7300  17.3804  28.1439  32.8677
    39.3093  48.2835  52.8470  56.6704  59.7079  63.0209

          k = 0.3636 0.0000 0.5455 (   548 PWs)   bands (ev):

    -9.2400  -9.1766  -8.9826  -8.8973  -8.7261  15.1373  31.6852  33.7130
    41.3020  49.4276  51.5063  54.3299  58.7957  61.7053

          k =-0.1818 0.7273 0.0000 (   547 PWs)   bands (ev):

    -9.4705  -9.2154  -8.8284  -8.7049  -8.6599  16.8726  30.7060  34.8931
    36.0909  45.8620  45.9349  60.1438  66.1090  66.3689

          k = 0.7273-0.1818 0.9091 (   550 PWs)   bands (ev):

    -9.4091  -9.1956  -8.8522  -8.7144  -8.6288  19.0213  28.1824  32.2815
    35.4333  45.9265  49.7784  58.4265  64.5787  66.5886

          k = 0.6364-0.0909 0.8182 (   542 PWs)   bands (ev):

    -9.3375  -9.0957  -8.9032  -8.7990  -8.6426  20.4522  26.9139  30.0801
    36.0108  46.3923  54.3548  57.0675  61.4179  64.1578

          k = 0.5455 0.0000 0.7273 (   549 PWs)   bands (ev):

    -9.2767  -9.0302  -8.9615  -8.8332  -8.7148  19.4169  28.4406  29.1810
    37.3706  47.2756  55.5071  57.9443  59.2645  62.2946

          k = 0.8182-0.0909 1.0000 (   554 PWs)   bands (ev):

    -9.5143  -9.2735  -8.7143  -8.6507  -8.5931  20.2705  26.5049  33.8961
    34.4145  45.2363  45.4182  62.0406  66.7126  69.0741

          k = 0.7273 0.0000 0.9091 (   540 PWs)   bands (ev):

    -9.4286  -9.2167  -8.7674  -8.7318  -8.5955  21.2259  26.2326  31.0111
    34.7396  45.6650  49.5121  60.1103  63.6366  66.9991

          k = 0.6364-0.2727 1.0000 (   553 PWs)   bands (ev):

    -9.2821  -9.1758  -8.9635  -8.7238  -8.7107  17.9414  29.4732  31.8517
    36.1527  50.0507  50.3937  54.7593  64.1049  64.1964

          k = 0.5455-0.1818 0.9091 (   550 PWs)   bands (ev):

    -9.2156  -9.1525  -8.9747  -8.8099  -8.6429  19.9115  27.3274  30.9536
    34.8176  50.0554  52.7642  55.6962  59.9533  65.3467

          k = 0.6364-0.0909 1.0000 (   549 PWs)   bands (ev):

    -9.3102  -9.1879  -8.9066  -8.7578  -8.5938  20.7672  27.4619  30.8815
    32.9795  49.8076  50.1225  56.7364  61.0470  68.9166

          k = 0.5455 0.0000 0.9091 (   535 PWs)   bands (ev):

    -9.2213  -9.1018  -9.0328  -8.8045  -8.5947  21.1640  28.1931  28.9175
    33.1220  50.4994  54.5980  54.8739  57.3065  67.9706

     the Fermi energy is    46.8320 ev

!    total energy              =    -282.83573880 Ry
     Harris-Foulkes estimate   =    -282.83573880 Ry
     estimated scf accuracy    <          7.8E-09 Ry

     The total energy is the sum of the following terms:

     one-electron contribution =      -4.07838327 Ry
     hartree contribution      =      28.16837416 Ry
     xc contribution           =     -64.59207793 Ry
     ewald contribution        =    -242.33311993 Ry
     smearing contrib. (-TS)   =      -0.00053183 Ry

     convergence has been achieved in   5 iterations

     Forces acting on atoms (cartesian axes, Ry/au):

     atom    1 type  1   force =     0.00000000    0.00000000    0.00000000

     Total force =     0.000000     Total SCF correction =     0.000000


     Computing stress (Cartesian axis) and pressure

          total   stress  (Ry/bohr**3)                   (kbar)     P= 7235.52
   0.04918607   0.00000000  -0.00000000       7235.52      0.00     -0.00
   0.00000000   0.04918607  -0.00000000          0.00   7235.52     -0.00
  -0.00000000  -0.00000000   0.04918607         -0.00     -0.00   7235.52


     Writing output data file Fr.save/

     init_run     :      0.32s CPU      0.33s WALL (       1 calls)
     electrons    :      3.26s CPU      3.47s WALL (       1 calls)
     forces       :      0.05s CPU      0.05s WALL (       1 calls)
     stress       :      0.15s CPU      0.15s WALL (       1 calls)

     Called by init_run:
     wfcinit      :      0.16s CPU      0.17s WALL (       1 calls)
     potinit      :      0.01s CPU      0.01s WALL (       1 calls)
     hinit0       :      0.14s CPU      0.14s WALL (       1 calls)

     Called by electrons:
     c_bands      :      2.79s CPU      2.98s WALL (       6 calls)
     sum_band     :      0.43s CPU      0.45s WALL (       6 calls)
     v_of_rho     :      0.02s CPU      0.02s WALL (       6 calls)
     newd         :      0.03s CPU      0.03s WALL (       6 calls)
     mix_rho      :      0.00s CPU      0.00s WALL (       6 calls)

     Called by c_bands:
     init_us_2    :      0.06s CPU      0.06s WALL (     840 calls)
     cegterg      :      2.70s CPU      2.88s WALL (     336 calls)

     Called by sum_band:
     sum_band:bec :      0.00s CPU      0.00s WALL (     336 calls)
     addusdens    :      0.02s CPU      0.03s WALL (       6 calls)

     Called by *egterg:
     h_psi        :      1.87s CPU      2.00s WALL (    1247 calls)
     s_psi        :      0.05s CPU      0.06s WALL (    1247 calls)
     g_psi        :      0.01s CPU      0.01s WALL (     855 calls)
     cdiaghg      :      0.51s CPU      0.54s WALL (    1135 calls)

     Called by h_psi:
     h_psi:pot    :      1.86s CPU      1.99s WALL (    1247 calls)
     h_psi:calbec :      0.09s CPU      0.10s WALL (    1247 calls)
     vloc_psi     :      1.70s CPU      1.82s WALL (    1247 calls)
     add_vuspsi   :      0.06s CPU      0.06s WALL (    1247 calls)

     General routines
     calbec       :      0.16s CPU      0.17s WALL (    1863 calls)
     fft          :      0.01s CPU      0.01s WALL (      93 calls)
     ffts         :      0.00s CPU      0.00s WALL (       6 calls)
     fftw         :      1.89s CPU      2.01s WALL (   29854 calls)

     Parallel routines
     fft_scatt_xy :      0.17s CPU      0.18s WALL (   29953 calls)
     fft_scatt_yz :      0.60s CPU      0.63s WALL (   29953 calls)

     PWSCF        :     4.78s CPU         5.11s WALL


   This run was terminated on:  22:38:39   7Apr2024            

=------------------------------------------------------------------------------=
   JOB DONE.
=------------------------------------------------------------------------------=
