
     Program PWSCF v.6.3MaX starts on  7Apr2024 at 22:16:29 

     This program is part of the open-source Quantum ESPRESSO suite
     for quantum simulation of materials; please cite
         "P. Giannozzi et al., J. Phys.:Condens. Matter 21 395502 (2009);
         "P. Giannozzi et al., J. Phys.:Condens. Matter 29 465901 (2017);
          URL http://www.quantum-espresso.org", 
     in publications or presentations arising from this work. More details at
     http://www.quantum-espresso.org/quote

     Parallel version (MPI), running on     5 processors

     MPI processes distributed on     1 nodes
     R & G space division:  proc/nbgrp/npool/nimage =       5
     Waiting for input...
     Reading input from standard input

     Current dimensions of program PWSCF are:
     Max number of different atomic species (ntypx) = 10
     Max number of k-points (npk) =  40000
     Max angular momentum in pseudopotentials (lmaxx) =  3
               file Fr.pbe-spdn-kjpaw_psl.1.0.0.UPF: wavefunction(s)  6P renormalized

     Subspace diagonalization in iterative solution of the eigenvalue problem:
     a serial algorithm will be used


     Parallelization info
     --------------------
     sticks:   dense  smooth     PW     G-vecs:    dense   smooth      PW
     Min         129     129     39                 2168     2168     361
     Max         130     130     40                 2171     2171     363
     Sum         649     649    199                10849    10849    1807



     bravais-lattice index     =            2
     lattice parameter (alat)  =       6.8300  a.u.
     unit-cell volume          =      79.6530 (a.u.)^3
     number of atoms/cell      =            1
     number of atomic types    =            1
     number of electrons       =        19.00
     number of Kohn-Sham states=           14
     kinetic-energy cutoff     =     100.0000  Ry
     charge density cutoff     =     400.0000  Ry
     convergence threshold     =      1.0E-08
     mixing beta               =       0.7000
     number of iterations used =            8  plain     mixing
     Exchange-correlation      = SLA PW PBX PBC ( 1  4  3  4 0 0)

     celldm(1)=   6.830000  celldm(2)=   0.000000  celldm(3)=   0.000000
     celldm(4)=   0.000000  celldm(5)=   0.000000  celldm(6)=   0.000000

     crystal axes: (cart. coord. in units of alat)
               a(1) = (  -0.500000   0.000000   0.500000 )  
               a(2) = (   0.000000   0.500000   0.500000 )  
               a(3) = (  -0.500000   0.500000   0.000000 )  

     reciprocal axes: (cart. coord. in units 2 pi/alat)
               b(1) = ( -1.000000 -1.000000  1.000000 )  
               b(2) = (  1.000000  1.000000  1.000000 )  
               b(3) = ( -1.000000  1.000000 -1.000000 )  


     PseudoPot. # 1 for Fr read from file:
     /home/lorenzo/pseudos/Fr/Fr.pbe-spdn-kjpaw_psl.1.0.0.UPF
     MD5 check sum: 362a188b966a64328b94f1ef5f32e8c4
     Pseudo is Projector augmented-wave + core cor, Zval = 19.0
     Generated using "atomic" code by A. Dal Corso v.6.2.2
     Shape of augmentation charge: PSQ
     Using radial grid of 1287 points,  6 beta functions with: 
                l(1) =   0
                l(2) =   0
                l(3) =   1
                l(4) =   1
                l(5) =   2
                l(6) =   2
     Q(r) pseudized with 0 coefficients 


     atomic species   valence    mass     pseudopotential
        Fr            19.00   223.00000     Fr( 1.00)

     48 Sym. Ops., with inversion, found



   Cartesian axes

     site n.     atom                  positions (alat units)
         1           Fr  tau(   1) = (   0.0000000   0.0000000   0.0000000  )

     number of k points=     8  gaussian smearing, width (Ry)=  0.0100
                       cart. coord. in units 2pi/alat
        k(    1) = (   0.0000000   0.0000000   0.0000000), wk =   0.0312500
        k(    2) = (  -0.2500000   0.2500000  -0.2500000), wk =   0.2500000
        k(    3) = (   0.5000000  -0.5000000   0.5000000), wk =   0.1250000
        k(    4) = (   0.0000000   0.5000000   0.0000000), wk =   0.1875000
        k(    5) = (   0.7500000  -0.2500000   0.7500000), wk =   0.7500000
        k(    6) = (   0.5000000   0.0000000   0.5000000), wk =   0.3750000
        k(    7) = (   0.0000000  -1.0000000   0.0000000), wk =   0.0937500
        k(    8) = (  -0.5000000  -1.0000000   0.0000000), wk =   0.1875000

     Dense  grid:    10849 G-vectors     FFT dimensions: (  32,  32,  32)

     Estimated max dynamical RAM per process >      10.39 MB

     Estimated total dynamical RAM >      51.95 MB

     Initial potential from superposition of free atoms

     starting charge   18.97009, renormalised to   19.00000
     Starting wfcs are   10 randomized atomic wfcs +    4 random wfcs
     Checking if some PAW data can be deallocated... 

     total cpu time spent up to now is        1.4 secs

     Self-consistent Calculation

     iteration #  1     ecut=   100.00 Ry     beta= 0.70
     Davidson diagonalization with overlap
     ethr =  1.00E-02,  avg # of iterations =  4.6

     Threshold (ethr) on eigenvalues was too large:
     Diagonalizing with lowered threshold

     Davidson diagonalization with overlap
     ethr =  7.47E-05,  avg # of iterations =  1.9

     total cpu time spent up to now is        1.9 secs

     total energy              =   -1069.98176121 Ry
     Harris-Foulkes estimate   =   -1069.99069939 Ry
     estimated scf accuracy    <       0.01392594 Ry

     iteration #  2     ecut=   100.00 Ry     beta= 0.70
     Davidson diagonalization with overlap
     ethr =  7.33E-05,  avg # of iterations =  2.0

     total cpu time spent up to now is        2.2 secs

     total energy              =   -1069.98361042 Ry
     Harris-Foulkes estimate   =   -1069.98383309 Ry
     estimated scf accuracy    <       0.00046742 Ry

     iteration #  3     ecut=   100.00 Ry     beta= 0.70
     Davidson diagonalization with overlap
     ethr =  2.46E-06,  avg # of iterations =  2.4

     total cpu time spent up to now is        2.5 secs

     total energy              =   -1069.98364650 Ry
     Harris-Foulkes estimate   =   -1069.98365264 Ry
     estimated scf accuracy    <       0.00001952 Ry

     iteration #  4     ecut=   100.00 Ry     beta= 0.70
     Davidson diagonalization with overlap
     ethr =  1.03E-07,  avg # of iterations =  2.1

     total cpu time spent up to now is        2.7 secs

     total energy              =   -1069.98365090 Ry
     Harris-Foulkes estimate   =   -1069.98365058 Ry
     estimated scf accuracy    <       0.00000023 Ry

     iteration #  5     ecut=   100.00 Ry     beta= 0.70
     Davidson diagonalization with overlap
     ethr =  1.20E-09,  avg # of iterations =  2.0

     total cpu time spent up to now is        3.0 secs

     total energy              =   -1069.98365097 Ry
     Harris-Foulkes estimate   =   -1069.98365093 Ry
     estimated scf accuracy    <       0.00000002 Ry

     iteration #  6     ecut=   100.00 Ry     beta= 0.70
     Davidson diagonalization with overlap
     ethr =  9.58E-11,  avg # of iterations =  2.0

     total cpu time spent up to now is        3.3 secs

     End of self-consistent calculation

          k = 0.0000 0.0000 0.0000 (  1363 PWs)   bands (ev):

    -9.1471  -9.1471  -9.1471  -8.8173  -8.8173   9.4936  47.2691  47.2691
    47.2691  48.3669  53.9008  53.9008  53.9008  57.7247

          k =-0.2500 0.2500-0.2500 (  1345 PWs)   bands (ev):

    -9.1334  -9.0584  -9.0584  -8.7369  -8.7369  12.0024  33.8475  44.8120
    44.8120  48.2459  53.4349  54.0483  54.0483  58.7674

          k = 0.5000-0.5000 0.5000 (  1350 PWs)   bands (ev):

    -9.1339  -9.1013  -9.1013  -8.5180  -8.5180  17.5955  23.2727  43.0454
    43.0454  48.0303  51.2910  51.7735  51.7735  65.4828

          k = 0.0000 0.5000 0.0000 (  1331 PWs)   bands (ev):

    -9.3121  -9.0014  -8.8074  -8.8074  -8.6758  12.8388  38.1357  39.5252
    39.5252  44.7415  45.7835  62.0802  62.0802  62.8899

          k = 0.7500-0.2500 0.7500 (  1340 PWs)   bands (ev):

    -9.2549  -9.0075  -8.8044  -8.6924  -8.5016  18.1966  27.1266  33.8912
    38.3731  44.3033  53.4620  58.5625  59.2412  63.9867

          k = 0.5000 0.0000 0.5000 (  1340 PWs)   bands (ev):

    -9.1127  -9.0019  -8.8384  -8.7866  -8.6425  16.0137  30.4737  32.2786
    42.5811  46.7433  55.1847  56.5498  57.4096  59.3181

          k = 0.0000-1.0000 0.0000 (  1362 PWs)   bands (ev):

    -9.4753  -9.2145  -8.5329  -8.4499  -8.4499  21.1343  24.9503  35.5683
    35.5683  42.6429  43.1477  64.4035  70.3583  71.3183

          k =-0.5000-1.0000 0.0000 (  1348 PWs)   bands (ev):

    -9.0430  -8.9827  -8.9827  -8.6930  -8.4498  21.4615  28.6942  28.6942
    32.1004  53.3132  53.5058  53.5058  56.5008  70.1857

     the Fermi energy is    44.9628 ev

!    total energy              =   -1069.98365097 Ry
     Harris-Foulkes estimate   =   -1069.98365097 Ry
     estimated scf accuracy    <          3.3E-10 Ry

     total all-electron energy =    -48515.593962 Ry

     The total energy is the sum of the following terms:

     one-electron contribution =       1.41146373 Ry
     hartree contribution      =      28.26522672 Ry
     xc contribution           =     -64.60558755 Ry
     ewald contribution        =    -242.33311988 Ry
     one-center paw contrib.   =    -792.72118370 Ry
     smearing contrib. (-TS)   =      -0.00045029 Ry

     convergence has been achieved in   6 iterations

     Forces acting on atoms (cartesian axes, Ry/au):

     atom    1 type  1   force =     0.00000000    0.00000000    0.00000000

     Total force =     0.000000     Total SCF correction =     0.000000


     Computing stress (Cartesian axis) and pressure

          total   stress  (Ry/bohr**3)                   (kbar)     P= 7332.47
   0.04984514   0.00000000  -0.00000000       7332.47      0.00     -0.00
   0.00000000   0.04984514  -0.00000000          0.00   7332.47     -0.00
  -0.00000000  -0.00000000   0.04984514         -0.00     -0.00   7332.47


     Writing output data file Fr.save/

     init_run     :      0.39s CPU      0.42s WALL (       1 calls)
     electrons    :      1.83s CPU      1.92s WALL (       1 calls)
     forces       :      0.05s CPU      0.06s WALL (       1 calls)
     stress       :      0.18s CPU      0.18s WALL (       1 calls)

     Called by init_run:
     wfcinit      :      0.06s CPU      0.06s WALL (       1 calls)
     potinit      :      0.11s CPU      0.12s WALL (       1 calls)
     hinit0       :      0.19s CPU      0.20s WALL (       1 calls)

     Called by electrons:
     c_bands      :      0.89s CPU      0.95s WALL (       7 calls)
     sum_band     :      0.22s CPU      0.24s WALL (       7 calls)
     v_of_rho     :      0.04s CPU      0.04s WALL (       7 calls)
     newd         :      0.07s CPU      0.08s WALL (       7 calls)
     PAW_pot      :      0.71s CPU      0.74s WALL (       7 calls)
     mix_rho      :      0.00s CPU      0.00s WALL (       7 calls)

     Called by c_bands:
     init_us_2    :      0.02s CPU      0.03s WALL (     136 calls)
     cegterg      :      0.85s CPU      0.91s WALL (      56 calls)

     Called by sum_band:
     sum_band:bec :      0.00s CPU      0.00s WALL (      56 calls)
     addusdens    :      0.07s CPU      0.07s WALL (       7 calls)

     Called by *egterg:
     h_psi        :      0.64s CPU      0.70s WALL (     200 calls)
     s_psi        :      0.02s CPU      0.02s WALL (     200 calls)
     g_psi        :      0.00s CPU      0.00s WALL (     136 calls)
     cdiaghg      :      0.09s CPU      0.09s WALL (     184 calls)

     Called by h_psi:
     h_psi:pot    :      0.64s CPU      0.69s WALL (     200 calls)
     h_psi:calbec :      0.03s CPU      0.04s WALL (     200 calls)
     vloc_psi     :      0.58s CPU      0.63s WALL (     200 calls)
     add_vuspsi   :      0.02s CPU      0.02s WALL (     200 calls)

     General routines
     calbec       :      0.05s CPU      0.06s WALL (     296 calls)
     fft          :      0.03s CPU      0.03s WALL (     104 calls)
     ffts         :      0.00s CPU      0.00s WALL (       7 calls)
     fftw         :      0.64s CPU      0.69s WALL (    4860 calls)

     Parallel routines
     fft_scatt_xy :      0.06s CPU      0.07s WALL (    4971 calls)
     fft_scatt_yz :      0.23s CPU      0.25s WALL (    4971 calls)

     PWSCF        :     3.41s CPU         3.58s WALL


   This run was terminated on:  22:16:33   7Apr2024            

=------------------------------------------------------------------------------=
   JOB DONE.
=------------------------------------------------------------------------------=
