
     Program PWSCF v.6.3MaX starts on  7Apr2024 at 22:49:35 

     This program is part of the open-source Quantum ESPRESSO suite
     for quantum simulation of materials; please cite
         "P. Giannozzi et al., J. Phys.:Condens. Matter 21 395502 (2009);
         "P. Giannozzi et al., J. Phys.:Condens. Matter 29 465901 (2017);
          URL http://www.quantum-espresso.org", 
     in publications or presentations arising from this work. More details at
     http://www.quantum-espresso.org/quote

     Parallel version (MPI), running on     5 processors

     MPI processes distributed on     1 nodes
     R & G space division:  proc/nbgrp/npool/nimage =       5
     Waiting for input...
     Reading input from standard input

     Current dimensions of program PWSCF are:
     Max number of different atomic species (ntypx) = 10
     Max number of k-points (npk) =  40000
     Max angular momentum in pseudopotentials (lmaxx) =  3

     Subspace diagonalization in iterative solution of the eigenvalue problem:
     a serial algorithm will be used


     Parallelization info
     --------------------
     sticks:   dense  smooth     PW     G-vecs:    dense   smooth      PW
     Min          95      95     30                 1375     1375     248
     Max          95      95     31                 1376     1376     251
     Sum         475     475    151                 6879     6879    1243



     bravais-lattice index     =            2
     lattice parameter (alat)  =       6.8300  a.u.
     unit-cell volume          =      79.6530 (a.u.)^3
     number of atoms/cell      =            1
     number of atomic types    =            1
     number of electrons       =        19.00
     number of Kohn-Sham states=           14
     kinetic-energy cutoff     =      75.0000  Ry
     charge density cutoff     =     300.0000  Ry
     convergence threshold     =      1.0E-08
     mixing beta               =       0.7000
     number of iterations used =            8  plain     mixing
     Exchange-correlation      = LDA ( 1  1  0  0 0 0)

     celldm(1)=   6.830000  celldm(2)=   0.000000  celldm(3)=   0.000000
     celldm(4)=   0.000000  celldm(5)=   0.000000  celldm(6)=   0.000000

     crystal axes: (cart. coord. in units of alat)
               a(1) = (  -0.500000   0.000000   0.500000 )  
               a(2) = (   0.000000   0.500000   0.500000 )  
               a(3) = (  -0.500000   0.500000   0.000000 )  

     reciprocal axes: (cart. coord. in units 2 pi/alat)
               b(1) = ( -1.000000 -1.000000  1.000000 )  
               b(2) = (  1.000000  1.000000  1.000000 )  
               b(3) = ( -1.000000  1.000000 -1.000000 )  


     PseudoPot. # 1 for Fr read from file:
     /home/lorenzo/pseudos/Fr/Fr.pz-spdn-rrkjus_psl.1.0.0.UPF
     MD5 check sum: 5665a43a3d1ea02b0b7dc7a0ae9ace04
     Pseudo is Ultrasoft + core correction, Zval = 19.0
     Generated using "atomic" code by A. Dal Corso v.6.2.2
     Using radial grid of 1287 points,  6 beta functions with: 
                l(1) =   0
                l(2) =   0
                l(3) =   1
                l(4) =   1
                l(5) =   2
                l(6) =   2
     Q(r) pseudized with 0 coefficients 


     atomic species   valence    mass     pseudopotential
        Fr            19.00   223.00000     Fr( 1.00)

     48 Sym. Ops., with inversion, found



   Cartesian axes

     site n.     atom                  positions (alat units)
         1           Fr  tau(   1) = (   0.0000000   0.0000000   0.0000000  )

     number of k points=    47  gaussian smearing, width (Ry)=  0.0100
                       cart. coord. in units 2pi/alat
        k(    1) = (   0.0000000   0.0000000   0.0000000), wk =   0.0020000
        k(    2) = (  -0.1000000   0.1000000  -0.1000000), wk =   0.0160000
        k(    3) = (  -0.2000000   0.2000000  -0.2000000), wk =   0.0160000
        k(    4) = (  -0.3000000   0.3000000  -0.3000000), wk =   0.0160000
        k(    5) = (  -0.4000000   0.4000000  -0.4000000), wk =   0.0160000
        k(    6) = (   0.5000000  -0.5000000   0.5000000), wk =   0.0080000
        k(    7) = (   0.0000000   0.2000000   0.0000000), wk =   0.0120000
        k(    8) = (  -0.1000000   0.3000000  -0.1000000), wk =   0.0480000
        k(    9) = (  -0.2000000   0.4000000  -0.2000000), wk =   0.0480000
        k(   10) = (  -0.3000000   0.5000000  -0.3000000), wk =   0.0480000
        k(   11) = (   0.6000000  -0.4000000   0.6000000), wk =   0.0480000
        k(   12) = (   0.5000000  -0.3000000   0.5000000), wk =   0.0480000
        k(   13) = (   0.4000000  -0.2000000   0.4000000), wk =   0.0480000
        k(   14) = (   0.3000000  -0.1000000   0.3000000), wk =   0.0480000
        k(   15) = (   0.2000000   0.0000000   0.2000000), wk =   0.0240000
        k(   16) = (   0.0000000   0.4000000   0.0000000), wk =   0.0120000
        k(   17) = (  -0.1000000   0.5000000  -0.1000000), wk =   0.0480000
        k(   18) = (  -0.2000000   0.6000000  -0.2000000), wk =   0.0480000
        k(   19) = (   0.7000000  -0.3000000   0.7000000), wk =   0.0480000
        k(   20) = (   0.6000000  -0.2000000   0.6000000), wk =   0.0480000
        k(   21) = (   0.5000000  -0.1000000   0.5000000), wk =   0.0480000
        k(   22) = (   0.4000000   0.0000000   0.4000000), wk =   0.0240000
        k(   23) = (   0.0000000   0.6000000   0.0000000), wk =   0.0120000
        k(   24) = (  -0.1000000   0.7000000  -0.1000000), wk =   0.0480000
        k(   25) = (   0.8000000  -0.2000000   0.8000000), wk =   0.0480000
        k(   26) = (   0.7000000  -0.1000000   0.7000000), wk =   0.0480000
        k(   27) = (   0.6000000  -0.0000000   0.6000000), wk =   0.0240000
        k(   28) = (   0.0000000   0.8000000   0.0000000), wk =   0.0120000
        k(   29) = (   0.9000000  -0.1000000   0.9000000), wk =   0.0480000
        k(   30) = (   0.8000000   0.0000000   0.8000000), wk =   0.0240000
        k(   31) = (   0.0000000  -1.0000000   0.0000000), wk =   0.0060000
        k(   32) = (  -0.2000000   0.4000000   0.0000000), wk =   0.0480000
        k(   33) = (  -0.3000000   0.5000000  -0.1000000), wk =   0.0960000
        k(   34) = (   0.6000000  -0.4000000   0.8000000), wk =   0.0960000
        k(   35) = (   0.5000000  -0.3000000   0.7000000), wk =   0.0480000
        k(   36) = (  -0.2000000   0.6000000   0.0000000), wk =   0.0480000
        k(   37) = (   0.7000000  -0.3000000   0.9000000), wk =   0.0960000
        k(   38) = (   0.6000000  -0.2000000   0.8000000), wk =   0.0960000
        k(   39) = (   0.5000000  -0.1000000   0.7000000), wk =   0.0960000
        k(   40) = (   0.4000000   0.0000000   0.6000000), wk =   0.0480000
        k(   41) = (   0.8000000  -0.2000000   1.0000000), wk =   0.0480000
        k(   42) = (   0.7000000  -0.1000000   0.9000000), wk =   0.0960000
        k(   43) = (   0.6000000   0.0000000   0.8000000), wk =   0.0480000
        k(   44) = (  -0.2000000  -1.0000000   0.0000000), wk =   0.0240000
        k(   45) = (   0.6000000  -0.2000000   1.0000000), wk =   0.0480000
        k(   46) = (   0.5000000  -0.1000000   0.9000000), wk =   0.0480000
        k(   47) = (  -0.4000000  -1.0000000   0.0000000), wk =   0.0240000

     Dense  grid:     6879 G-vectors     FFT dimensions: (  27,  27,  27)

     Estimated max dynamical RAM per process >       8.44 MB

     Estimated total dynamical RAM >      42.18 MB

     Initial potential from superposition of free atoms

     starting charge   18.97647, renormalised to   19.00000
     Starting wfcs are   10 randomized atomic wfcs +    4 random wfcs

     total cpu time spent up to now is        1.4 secs

     Self-consistent Calculation

     iteration #  1     ecut=    75.00 Ry     beta= 0.70
     Davidson diagonalization with overlap
     ethr =  1.00E-02,  avg # of iterations =  4.7

     Threshold (ethr) on eigenvalues was too large:
     Diagonalizing with lowered threshold

     Davidson diagonalization with overlap
     ethr =  9.05E-05,  avg # of iterations =  1.9

     total cpu time spent up to now is        3.2 secs

     total energy              =    -282.48682886 Ry
     Harris-Foulkes estimate   =    -282.49859119 Ry
     estimated scf accuracy    <       0.01708554 Ry

     iteration #  2     ecut=    75.00 Ry     beta= 0.70
     Davidson diagonalization with overlap
     ethr =  8.99E-05,  avg # of iterations =  2.0

     total cpu time spent up to now is        3.8 secs

     total energy              =    -282.48990554 Ry
     Harris-Foulkes estimate   =    -282.49039366 Ry
     estimated scf accuracy    <       0.00064761 Ry

     iteration #  3     ecut=    75.00 Ry     beta= 0.70
     Davidson diagonalization with overlap
     ethr =  3.41E-06,  avg # of iterations =  2.3

     total cpu time spent up to now is        4.5 secs

     total energy              =    -282.49002411 Ry
     Harris-Foulkes estimate   =    -282.49003921 Ry
     estimated scf accuracy    <       0.00002561 Ry

     iteration #  4     ecut=    75.00 Ry     beta= 0.70
     Davidson diagonalization with overlap
     ethr =  1.35E-07,  avg # of iterations =  2.0

     total cpu time spent up to now is        5.1 secs

     total energy              =    -282.49002704 Ry
     Harris-Foulkes estimate   =    -282.49002708 Ry
     estimated scf accuracy    <       0.00000011 Ry

     iteration #  5     ecut=    75.00 Ry     beta= 0.70
     Davidson diagonalization with overlap
     ethr =  6.00E-10,  avg # of iterations =  2.1

     total cpu time spent up to now is        5.7 secs

     End of self-consistent calculation

          k = 0.0000 0.0000 0.0000 (   893 PWs)   bands (ev):

    -9.4760  -9.4760  -9.4760  -9.1270  -9.1270   9.1001  46.8946  46.8946
    46.8946  48.0903  53.6765  53.6765  53.6765  57.5342

          k =-0.1000 0.1000-0.1000 (   887 PWs)   bands (ev):

    -9.4717  -9.4439  -9.4439  -9.1267  -9.1267   9.5005  42.7553  46.2984
    46.2984  47.9587  54.6567  54.6567  55.6251  57.1649

          k =-0.2000 0.2000-0.2000 (   887 PWs)   bands (ev):

    -9.4631  -9.3912  -9.3912  -9.0953  -9.0953  10.7038  36.5328  45.0741
    45.0741  47.9908  54.1264  54.8201  54.8201  57.0199

          k =-0.3000 0.3000-0.3000 (   875 PWs)   bands (ev):

    -9.4596  -9.3860  -9.3860  -8.9918  -8.9918  12.6906  30.6650  43.8550
    43.8550  47.9826  52.3443  53.0066  53.0066  60.0953

          k =-0.4000 0.4000-0.4000 (   869 PWs)   bands (ev):

    -9.4607  -9.4082  -9.4082  -8.8801  -8.8801  15.2873  25.6640  42.9780
    42.9780  47.8982  51.2897  51.9348  51.9348  63.3310

          k = 0.5000-0.5000 0.5000 (   862 PWs)   bands (ev):

    -9.4608  -9.4195  -9.4195  -8.8342  -8.8342  17.1333  23.0060  42.6587
    42.6587  47.8390  50.9645  51.5860  51.5860  65.1413

          k = 0.0000 0.2000 0.0000 (   889 PWs)   bands (ev):

    -9.5072  -9.4117  -9.4117  -9.1605  -9.0999   9.6338  44.4408  44.4408
    44.8938  46.9239  53.3442  55.7141  56.4274  56.4274

          k =-0.1000 0.3000-0.1000 (   889 PWs)   bands (ev):

    -9.5179  -9.3508  -9.3449  -9.1763  -9.0604  10.5695  38.7784  42.7912
    44.3950  47.9338  50.6975  55.5408  57.9118  58.1279

          k =-0.2000 0.4000-0.2000 (   876 PWs)   bands (ev):

    -9.5003  -9.3460  -9.3214  -9.1090  -8.9672  12.2986  32.7989  41.6427
    42.9639  47.3262  52.0504  55.3744  56.0984  56.5879

          k =-0.3000 0.5000-0.3000 (   872 PWs)   bands (ev):

    -9.4793  -9.3749  -9.3415  -8.9919  -8.8658  14.7235  27.5068  41.1500
    41.3122  46.4722  53.6992  54.3673  54.4231  58.1623

          k = 0.6000-0.4000 0.6000 (   865 PWs)   bands (ev):

    -9.4605  -9.3961  -9.3630  -8.8979  -8.8317  17.1511  23.7569  39.9521
    41.4220  46.3989  52.9499  53.1683  54.8932  62.0416

          k = 0.5000-0.3000 0.5000 (   872 PWs)   bands (ev):

    -9.4377  -9.4087  -9.3652  -8.8909  -8.8708  16.4665  24.7146  39.2170
    42.4956  47.0071  52.1048  52.5209  55.9914  62.6539

          k = 0.4000-0.2000 0.4000 (   879 PWs)   bands (ev):

    -9.4392  -9.3902  -9.3472  -9.0203  -8.9174  13.8512  29.1838  39.2036
    44.2702  48.2427  51.4976  52.4299  57.5096  58.9611

          k = 0.3000-0.1000 0.3000 (   883 PWs)   bands (ev):

    -9.4604  -9.3664  -9.3441  -9.1402  -9.0073  11.6360  34.7362  39.8963
    46.3329  49.5823  51.3800  52.9806  55.7363  57.4324

          k = 0.2000 0.0000 0.2000 (   891 PWs)   bands (ev):

    -9.4765  -9.4048  -9.3873  -9.1564  -9.0846  10.1687  40.3958  41.6156
    47.3998  48.9954  53.3674  54.0353  54.5041  56.2192

          k = 0.0000 0.4000 0.0000 (   869 PWs)   bands (ev):

    -9.5899  -9.2500  -9.2408  -9.2408  -9.0287  11.2374  40.5348  40.8039
    40.8039  45.2141  47.5320  60.0026  60.1873  60.1873

          k =-0.1000 0.5000-0.1000 (   864 PWs)   bands (ev):

    -9.6072  -9.3097  -9.1780  -9.1326  -8.9533  12.7007  35.1436  39.4410
    39.7226  45.2515  47.5424  59.7669  59.8639  60.9462

          k =-0.2000 0.6000-0.2000 (   876 PWs)   bands (ev):

    -9.5744  -9.3335  -9.1873  -9.0585  -8.8552  14.8932  29.8809  37.4919
    38.8544  44.7184  51.3760  57.9920  58.3945  60.3215

          k = 0.7000-0.3000 0.7000 (   868 PWs)   bands (ev):

    -9.5290  -9.3093  -9.2137  -9.0178  -8.8244  17.4243  25.6792  35.5464
    39.1335  44.7502  55.9091  56.4749  56.9785  60.6651

          k = 0.6000-0.2000 0.6000 (   857 PWs)   bands (ev):

    -9.4843  -9.2964  -9.2283  -8.9804  -8.8921  18.0182  24.9046  34.2675
    40.2975  45.3655  55.4454  55.4750  60.5591  62.2201

          k = 0.5000-0.1000 0.5000 (   876 PWs)   bands (ev):

    -9.4326  -9.3436  -9.2218  -9.0381  -8.9435  15.7024  28.4944  33.8277
    42.2584  46.5858  54.2745  54.9972  58.6608  59.8481

          k = 0.4000 0.0000 0.4000 (   871 PWs)   bands (ev):

    -9.4137  -9.3846  -9.2229  -9.1748  -8.9467  13.3424  32.8952  34.8852
    44.6981  48.4239  52.4789  54.7416  55.2604  57.7547

          k = 0.0000 0.6000 0.0000 (   866 PWs)   bands (ev):

    -9.6913  -9.3737  -9.0242  -9.0242  -8.9405  13.8967  34.6509  37.8200
    37.8200  43.9311  44.3258  63.5974  63.5974  64.4394

          k =-0.1000 0.7000-0.1000 (   873 PWs)   bands (ev):

    -9.6972  -9.4132  -9.0011  -8.9507  -8.8520  15.8332  31.0619  35.2421
    36.9974  43.6080  46.0512  61.8669  63.1260  66.3973

          k = 0.8000-0.2000 0.8000 (   873 PWs)   bands (ev):

    -9.6375  -9.3785  -9.0269  -8.9603  -8.8137  18.2339  27.6220  32.2197
    37.0788  43.5894  50.3846  60.0997  61.3613  66.6359

          k = 0.7000-0.1000 0.7000 (   879 PWs)   bands (ev):

    -9.5660  -9.2478  -9.0540  -9.0514  -8.8798  19.5996  26.2099  30.0622
    38.0784  44.0715  55.4587  58.8016  59.7872  64.1057

          k = 0.6000-0.0000 0.6000 (   871 PWs)   bands (ev):

    -9.4961  -9.2049  -9.0881  -9.0650  -9.0058  17.9947  28.3730  29.4741
    39.8992  45.0703  57.6623  57.7041  60.0264  60.1631

          k = 0.0000 0.8000 0.0000 (   882 PWs)   bands (ev):

    -9.7731  -9.4809  -8.8689  -8.8451  -8.8451  17.4987  28.6410  35.9032
    35.9032  42.8879  43.1746  64.1783  67.6660  67.6661

          k = 0.9000-0.1000 0.9000 (   873 PWs)   bands (ev):

    -9.7523  -9.4865  -8.8820  -8.8289  -8.7961  19.5905  26.2262  33.3826
    35.7171  42.9060  45.3595  63.0298  66.5539  69.4209

          k = 0.8000 0.0000 0.8000 (   870 PWs)   bands (ev):

    -9.6623  -9.4021  -8.9255  -8.9157  -8.8371  20.6406  25.9097  30.0663
    36.4707  43.2583  50.0384  61.2964  64.2577  66.2087

          k = 0.0000-1.0000 0.0000 (   846 PWs)   bands (ev):

    -9.8029  -9.5225  -8.8403  -8.7731  -8.7731  20.6352  24.6510  35.2433
    35.2433  42.4711  42.9268  64.0771  70.0395  70.9680

          k =-0.2000 0.4000 0.0000 (   877 PWs)   bands (ev):

    -9.5288  -9.3229  -9.2497  -9.1986  -8.9941  11.7695  36.4836  38.2406
    44.0995  48.2824  49.0589  55.7262  57.0947  59.5601

          k =-0.3000 0.5000-0.1000 (   871 PWs)   bands (ev):

    -9.4942  -9.3529  -9.2330  -9.1093  -8.9155  13.7349  31.4329  36.7211
    41.9209  47.8660  51.5399  54.3119  57.3935  61.1427

          k = 0.6000-0.4000 0.8000 (   877 PWs)   bands (ev):

    -9.4524  -9.3887  -9.2419  -9.0064  -8.8654  16.2646  26.6629  36.3724
    39.9961  47.3440  52.0223  56.8575  57.8622  59.6007

          k = 0.5000-0.3000 0.7000 (   868 PWs)   bands (ev):

    -9.4319  -9.4082  -9.2403  -8.9638  -8.8515  18.0045  24.1582  36.3918
    39.1883  47.1619  51.7569  58.0536  58.5411  61.4256

          k =-0.2000 0.6000 0.0000 (   872 PWs)   bands (ev):

    -9.6147  -9.3539  -9.1334  -9.0300  -8.8963  14.4021  32.8534  35.5310
    38.3891  46.7908  46.8394  57.7474  62.2385  65.0525

          k = 0.7000-0.3000 0.9000 (   875 PWs)   bands (ev):

    -9.5583  -9.3600  -9.1434  -8.9768  -8.8550  16.7311  28.9287  33.7383
    36.6942  46.6049  50.8617  55.8663  62.8203  63.7908

          k = 0.6000-0.2000 0.8000 (   870 PWs)   bands (ev):

    -9.4972  -9.3154  -9.1309  -9.0363  -8.8456  18.9065  25.8350  32.4629
    36.4828  46.9136  53.9933  56.1919  61.5165  62.6048

          k = 0.5000-0.1000 0.7000 (   871 PWs)   bands (ev):

    -9.4475  -9.3252  -9.1296  -9.0425  -8.9054  18.2555  26.8186  31.6020
    37.6039  47.7606  53.2594  57.5147  60.7497  61.1128

          k = 0.4000 0.0000 0.6000 (   878 PWs)   bands (ev):

    -9.4157  -9.3961  -9.1733  -9.0397  -8.9322  15.8540  30.1736  32.2017
    39.5848  48.9465  51.8808  54.4039  59.6328  62.5338

          k = 0.8000-0.2000 1.0000 (   866 PWs)   bands (ev):

    -9.6852  -9.4387  -8.9917  -8.8484  -8.8461  17.8997  28.5922  33.7805
    34.7568  45.6835  45.8448  60.1580  66.0197  67.6491

          k = 0.7000-0.1000 0.9000 (   874 PWs)   bands (ev):

    -9.6006  -9.3910  -9.0330  -8.9289  -8.8072  19.9898  26.7969  30.6935
    34.5549  45.9920  50.2882  58.3732  63.0656  66.2127

          k = 0.6000 0.0000 0.8000 (   875 PWs)   bands (ev):

    -9.5161  -9.2482  -9.1507  -9.0087  -8.8536  20.0812  27.7129  28.2731
    35.6729  46.7266  55.5563  56.5122  59.0973  63.9389

          k =-0.2000-1.0000 0.0000 (   874 PWs)   bands (ev):

    -9.7127  -9.4753  -8.8852  -8.8800  -8.7743  20.7348  25.2838  33.1747
    33.7295  45.3201  45.5310  61.6848  65.8911  68.1631

          k = 0.6000-0.2000 1.0000 (   878 PWs)   bands (ev):

    -9.4515  -9.3803  -9.1672  -8.9544  -8.8504  18.9439  28.2247  30.4802
    34.3469  50.4753  50.8351  54.4753  61.6069  65.6764

          k = 0.5000-0.1000 0.9000 (   870 PWs)   bands (ev):

    -9.4012  -9.3262  -9.2217  -9.0105  -8.8093  20.2716  27.2212  29.6605
    33.4016  50.5795  52.8622  56.0899  57.0262  66.8443

          k =-0.4000-1.0000 0.0000 (   880 PWs)   bands (ev):

    -9.4669  -9.3749  -9.1492  -8.9801  -8.7742  20.9092  27.1039  29.8864
    32.0962  50.4756  50.8989  56.1260  58.5957  68.8970

     the Fermi energy is    46.6249 ev

!    total energy              =    -282.49002707 Ry
     Harris-Foulkes estimate   =    -282.49002707 Ry
     estimated scf accuracy    <          1.7E-09 Ry

     The total energy is the sum of the following terms:

     one-electron contribution =      -4.49526378 Ry
     hartree contribution      =      28.24325218 Ry
     xc contribution           =     -63.90433421 Ry
     ewald contribution        =    -242.33311988 Ry
     smearing contrib. (-TS)   =      -0.00056138 Ry

     convergence has been achieved in   5 iterations

     Forces acting on atoms (cartesian axes, Ry/au):

     atom    1 type  1   force =     0.00000000    0.00000000    0.00000000

     Total force =     0.000000     Total SCF correction =     0.000000


     Computing stress (Cartesian axis) and pressure

          total   stress  (Ry/bohr**3)                   (kbar)     P= 7056.83
   0.04797136   0.00000000  -0.00000000       7056.83      0.00     -0.00
   0.00000000   0.04797136  -0.00000000          0.00   7056.83     -0.00
   0.00000000   0.00000000   0.04797136          0.00      0.00   7056.83


     Writing output data file Fr.save/

     init_run     :      0.54s CPU      0.56s WALL (       1 calls)
     electrons    :      4.13s CPU      4.31s WALL (       1 calls)
     forces       :      0.07s CPU      0.07s WALL (       1 calls)
     stress       :      0.23s CPU      0.23s WALL (       1 calls)

     Called by init_run:
     wfcinit      :      0.34s CPU      0.36s WALL (       1 calls)
     potinit      :      0.01s CPU      0.01s WALL (       1 calls)
     hinit0       :      0.17s CPU      0.17s WALL (       1 calls)

     Called by electrons:
     c_bands      :      3.56s CPU      3.71s WALL (       6 calls)
     sum_band     :      0.53s CPU      0.55s WALL (       6 calls)
     v_of_rho     :      0.01s CPU      0.01s WALL (       6 calls)
     newd         :      0.05s CPU      0.05s WALL (       6 calls)
     mix_rho      :      0.00s CPU      0.00s WALL (       6 calls)

     Called by c_bands:
     init_us_2    :      0.08s CPU      0.09s WALL (     705 calls)
     cegterg      :      3.45s CPU      3.60s WALL (     282 calls)

     Called by sum_band:
     sum_band:bec :      0.00s CPU      0.00s WALL (     282 calls)
     addusdens    :      0.04s CPU      0.04s WALL (       6 calls)

     Called by *egterg:
     h_psi        :      2.64s CPU      2.77s WALL (    1039 calls)
     s_psi        :      0.08s CPU      0.09s WALL (    1039 calls)
     g_psi        :      0.01s CPU      0.01s WALL (     710 calls)
     cdiaghg      :      0.49s CPU      0.50s WALL (     945 calls)

     Called by h_psi:
     h_psi:pot    :      2.62s CPU      2.75s WALL (    1039 calls)
     h_psi:calbec :      0.12s CPU      0.13s WALL (    1039 calls)
     vloc_psi     :      2.41s CPU      2.53s WALL (    1039 calls)
     add_vuspsi   :      0.08s CPU      0.09s WALL (    1039 calls)

     General routines
     calbec       :      0.20s CPU      0.21s WALL (    1556 calls)
     fft          :      0.01s CPU      0.01s WALL (      34 calls)
     ffts         :      0.00s CPU      0.00s WALL (       6 calls)
     fftw         :      2.63s CPU      2.75s WALL (   25288 calls)

     Parallel routines
     fft_scatt_xy :      0.23s CPU      0.24s WALL (   25328 calls)
     fft_scatt_yz :      0.53s CPU      0.56s WALL (   25328 calls)

     PWSCF        :     5.90s CPU         6.19s WALL


   This run was terminated on:  22:49:42   7Apr2024            

=------------------------------------------------------------------------------=
   JOB DONE.
=------------------------------------------------------------------------------=
