
     Program PWSCF v.6.3MaX starts on  7Apr2024 at 22:27: 8 

     This program is part of the open-source Quantum ESPRESSO suite
     for quantum simulation of materials; please cite
         "P. Giannozzi et al., J. Phys.:Condens. Matter 21 395502 (2009);
         "P. Giannozzi et al., J. Phys.:Condens. Matter 29 465901 (2017);
          URL http://www.quantum-espresso.org", 
     in publications or presentations arising from this work. More details at
     http://www.quantum-espresso.org/quote

     Parallel version (MPI), running on     5 processors

     MPI processes distributed on     1 nodes
     R & G space division:  proc/nbgrp/npool/nimage =       5
     Waiting for input...
     Reading input from standard input

     Current dimensions of program PWSCF are:
     Max number of different atomic species (ntypx) = 10
     Max number of k-points (npk) =  40000
     Max angular momentum in pseudopotentials (lmaxx) =  3
               file Fr.pz-spdn-kjpaw_psl.1.0.0.UPF: wavefunction(s)  6P renormalized

     Subspace diagonalization in iterative solution of the eigenvalue problem:
     a serial algorithm will be used


     Parallelization info
     --------------------
     sticks:   dense  smooth     PW     G-vecs:    dense   smooth      PW
     Min          39      39     14                  361      361      82
     Max          40      40     15                  363      363      83
     Sum         199     199     73                 1807     1807     411



     bravais-lattice index     =            2
     lattice parameter (alat)  =       6.8300  a.u.
     unit-cell volume          =      79.6530 (a.u.)^3
     number of atoms/cell      =            1
     number of atomic types    =            1
     number of electrons       =        19.00
     number of Kohn-Sham states=           14
     kinetic-energy cutoff     =      30.0000  Ry
     charge density cutoff     =     120.0000  Ry
     convergence threshold     =      1.0E-08
     mixing beta               =       0.7000
     number of iterations used =            8  plain     mixing
     Exchange-correlation      = SLA PZ NOGX NOGC ( 1  1  0  0 0 0)

     celldm(1)=   6.830000  celldm(2)=   0.000000  celldm(3)=   0.000000
     celldm(4)=   0.000000  celldm(5)=   0.000000  celldm(6)=   0.000000

     crystal axes: (cart. coord. in units of alat)
               a(1) = (  -0.500000   0.000000   0.500000 )  
               a(2) = (   0.000000   0.500000   0.500000 )  
               a(3) = (  -0.500000   0.500000   0.000000 )  

     reciprocal axes: (cart. coord. in units 2 pi/alat)
               b(1) = ( -1.000000 -1.000000  1.000000 )  
               b(2) = (  1.000000  1.000000  1.000000 )  
               b(3) = ( -1.000000  1.000000 -1.000000 )  


     PseudoPot. # 1 for Fr read from file:
     /home/lorenzo/pseudos/Fr/Fr.pz-spdn-kjpaw_psl.1.0.0.UPF
     MD5 check sum: 60dafd115682613df3cc92ec23a62a32
     Pseudo is Projector augmented-wave + core cor, Zval = 19.0
     Generated using "atomic" code by A. Dal Corso v.6.2.2
     Shape of augmentation charge: PSQ
     Using radial grid of 1287 points,  6 beta functions with: 
                l(1) =   0
                l(2) =   0
                l(3) =   1
                l(4) =   1
                l(5) =   2
                l(6) =   2
     Q(r) pseudized with 0 coefficients 


     atomic species   valence    mass     pseudopotential
        Fr            19.00   223.00000     Fr( 1.00)

     48 Sym. Ops., with inversion, found



   Cartesian axes

     site n.     atom                  positions (alat units)
         1           Fr  tau(   1) = (   0.0000000   0.0000000   0.0000000  )

     number of k points=    56  gaussian smearing, width (Ry)=  0.0100
                       cart. coord. in units 2pi/alat
        k(    1) = (   0.0000000   0.0000000   0.0000000), wk =   0.0015026
        k(    2) = (  -0.0909091   0.0909091  -0.0909091), wk =   0.0120210
        k(    3) = (  -0.1818182   0.1818182  -0.1818182), wk =   0.0120210
        k(    4) = (  -0.2727273   0.2727273  -0.2727273), wk =   0.0120210
        k(    5) = (  -0.3636364   0.3636364  -0.3636364), wk =   0.0120210
        k(    6) = (  -0.4545455   0.4545455  -0.4545455), wk =   0.0120210
        k(    7) = (   0.0000000   0.1818182   0.0000000), wk =   0.0090158
        k(    8) = (  -0.0909091   0.2727273  -0.0909091), wk =   0.0360631
        k(    9) = (  -0.1818182   0.3636364  -0.1818182), wk =   0.0360631
        k(   10) = (  -0.2727273   0.4545455  -0.2727273), wk =   0.0360631
        k(   11) = (  -0.3636364   0.5454545  -0.3636364), wk =   0.0360631
        k(   12) = (   0.5454545  -0.3636364   0.5454545), wk =   0.0360631
        k(   13) = (   0.4545455  -0.2727273   0.4545455), wk =   0.0360631
        k(   14) = (   0.3636364  -0.1818182   0.3636364), wk =   0.0360631
        k(   15) = (   0.2727273  -0.0909091   0.2727273), wk =   0.0360631
        k(   16) = (   0.1818182  -0.0000000   0.1818182), wk =   0.0180316
        k(   17) = (   0.0000000   0.3636364   0.0000000), wk =   0.0090158
        k(   18) = (  -0.0909091   0.4545455  -0.0909091), wk =   0.0360631
        k(   19) = (  -0.1818182   0.5454545  -0.1818182), wk =   0.0360631
        k(   20) = (  -0.2727273   0.6363636  -0.2727273), wk =   0.0360631
        k(   21) = (   0.6363636  -0.2727273   0.6363636), wk =   0.0360631
        k(   22) = (   0.5454545  -0.1818182   0.5454545), wk =   0.0360631
        k(   23) = (   0.4545455  -0.0909091   0.4545455), wk =   0.0360631
        k(   24) = (   0.3636364   0.0000000   0.3636364), wk =   0.0180316
        k(   25) = (   0.0000000   0.5454545   0.0000000), wk =   0.0090158
        k(   26) = (  -0.0909091   0.6363636  -0.0909091), wk =   0.0360631
        k(   27) = (  -0.1818182   0.7272727  -0.1818182), wk =   0.0360631
        k(   28) = (   0.7272727  -0.1818182   0.7272727), wk =   0.0360631
        k(   29) = (   0.6363636  -0.0909091   0.6363636), wk =   0.0360631
        k(   30) = (   0.5454545   0.0000000   0.5454545), wk =   0.0180316
        k(   31) = (   0.0000000   0.7272727   0.0000000), wk =   0.0090158
        k(   32) = (  -0.0909091   0.8181818  -0.0909091), wk =   0.0360631
        k(   33) = (   0.8181818  -0.0909091   0.8181818), wk =   0.0360631
        k(   34) = (   0.7272727   0.0000000   0.7272727), wk =   0.0180316
        k(   35) = (   0.0000000   0.9090909   0.0000000), wk =   0.0090158
        k(   36) = (   0.9090909  -0.0000000   0.9090909), wk =   0.0180316
        k(   37) = (  -0.1818182   0.3636364   0.0000000), wk =   0.0360631
        k(   38) = (  -0.2727273   0.4545455  -0.0909091), wk =   0.0721262
        k(   39) = (  -0.3636364   0.5454545  -0.1818182), wk =   0.0721262
        k(   40) = (   0.5454545  -0.3636364   0.7272727), wk =   0.0721262
        k(   41) = (  -0.1818182   0.5454545   0.0000000), wk =   0.0360631
        k(   42) = (  -0.2727273   0.6363636  -0.0909091), wk =   0.0721262
        k(   43) = (   0.6363636  -0.2727273   0.8181818), wk =   0.0721262
        k(   44) = (   0.5454545  -0.1818182   0.7272727), wk =   0.0721262
        k(   45) = (   0.4545455  -0.0909091   0.6363636), wk =   0.0721262
        k(   46) = (   0.3636364   0.0000000   0.5454545), wk =   0.0360631
        k(   47) = (  -0.1818182   0.7272727   0.0000000), wk =   0.0360631
        k(   48) = (   0.7272727  -0.1818182   0.9090909), wk =   0.0721262
        k(   49) = (   0.6363636  -0.0909091   0.8181818), wk =   0.0721262
        k(   50) = (   0.5454545   0.0000000   0.7272727), wk =   0.0360631
        k(   51) = (   0.8181818  -0.0909091   1.0000000), wk =   0.0360631
        k(   52) = (   0.7272727   0.0000000   0.9090909), wk =   0.0360631
        k(   53) = (   0.6363636  -0.2727273   1.0000000), wk =   0.0360631
        k(   54) = (   0.5454545  -0.1818182   0.9090909), wk =   0.0721262
        k(   55) = (   0.6363636  -0.0909091   1.0000000), wk =   0.0360631
        k(   56) = (   0.5454545   0.0000000   0.9090909), wk =   0.0360631

     Dense  grid:     1807 G-vectors     FFT dimensions: (  18,  18,  18)

     Estimated max dynamical RAM per process >       2.86 MB

     Estimated total dynamical RAM >      14.29 MB

     Check: negative/imaginary core charge=   -0.000065    0.000000

     Initial potential from superposition of free atoms

     starting charge   18.97647, renormalised to   19.00000
     Starting wfcs are   10 randomized atomic wfcs +    4 random wfcs
     Checking if some PAW data can be deallocated... 

     total cpu time spent up to now is        1.2 secs

     Self-consistent Calculation

     iteration #  1     ecut=    30.00 Ry     beta= 0.70
     Davidson diagonalization with overlap
     ethr =  1.00E-02,  avg # of iterations =  4.9

     total cpu time spent up to now is        2.0 secs

     total energy              =   -1043.42215012 Ry
     Harris-Foulkes estimate   =   -1043.60803616 Ry
     estimated scf accuracy    <       0.21870095 Ry

     iteration #  2     ecut=    30.00 Ry     beta= 0.70
     Davidson diagonalization with overlap
     ethr =  1.15E-03,  avg # of iterations =  2.0

     total cpu time spent up to now is        2.5 secs

     total energy              =   -1043.47874808 Ry
     Harris-Foulkes estimate   =   -1043.48422857 Ry
     estimated scf accuracy    <       0.01290648 Ry

     iteration #  3     ecut=    30.00 Ry     beta= 0.70
     Davidson diagonalization with overlap
     ethr =  6.79E-05,  avg # of iterations =  2.1

     total cpu time spent up to now is        2.8 secs

     total energy              =   -1043.48008066 Ry
     Harris-Foulkes estimate   =   -1043.48019282 Ry
     estimated scf accuracy    <       0.00049329 Ry

     iteration #  4     ecut=    30.00 Ry     beta= 0.70
     Davidson diagonalization with overlap
     ethr =  2.60E-06,  avg # of iterations =  2.4

     total cpu time spent up to now is        3.2 secs

     total energy              =   -1043.48010717 Ry
     Harris-Foulkes estimate   =   -1043.48010698 Ry
     estimated scf accuracy    <       0.00000208 Ry

     iteration #  5     ecut=    30.00 Ry     beta= 0.70
     Davidson diagonalization with overlap
     ethr =  1.10E-08,  avg # of iterations =  2.4

     total cpu time spent up to now is        3.6 secs

     total energy              =   -1043.48010772 Ry
     Harris-Foulkes estimate   =   -1043.48010776 Ry
     estimated scf accuracy    <       0.00000009 Ry

     iteration #  6     ecut=    30.00 Ry     beta= 0.70
     Davidson diagonalization with overlap
     ethr =  4.47E-10,  avg # of iterations =  2.0

     total cpu time spent up to now is        4.0 secs

     End of self-consistent calculation

          k = 0.0000 0.0000 0.0000 (   229 PWs)   bands (ev):

    -9.4492  -9.4492  -9.4492  -9.1872  -9.1872   8.9235  46.5267  46.5267
    46.5267  48.3053  55.3286  55.3286  55.3286  57.2728

          k =-0.0909 0.0909-0.0909 (   220 PWs)   bands (ev):

    -9.3496  -9.1115  -9.1115  -8.9398  -8.9398   9.2517  43.2120  46.1210
    46.1210  48.2222  56.1306  56.1542  56.1542  57.8042

          k =-0.1818 0.1818-0.1818 (   220 PWs)   bands (ev):

    -9.4748  -9.3258  -9.3258  -8.8690  -8.8690  10.2388  37.6181  45.1224
    45.1224  48.3365  54.6013  56.0722  56.0723  57.7662

          k =-0.2727 0.2727-0.2727 (   217 PWs)   bands (ev):

    -9.3818  -9.3093  -9.3093  -8.7250  -8.7250  11.8783  32.1496  43.9664
    43.9664  48.3943  53.0389  54.6143  54.6143  60.1366

          k =-0.3636 0.3636-0.3636 (   226 PWs)   bands (ev):

    -9.8789  -9.4813  -9.4813  -9.2212  -9.2212  14.0796  27.2575  42.9815
    42.9815  48.2307  51.9915  53.5208  53.5208  62.7082

          k =-0.4545 0.4545-0.4545 (   225 PWs)   bands (ev):

    -9.6838  -9.5220  -9.5220  -9.1715  -9.1715  16.3682  23.6258  42.4280
    42.4280  48.0803  51.6481  53.0386  53.0386  64.7991

          k = 0.0000 0.1818 0.0000 (   226 PWs)   bands (ev):

   -10.1697  -9.3668  -9.3668  -9.0982  -8.8125   9.3610  44.6490  44.6490
    44.7912  47.5279  54.3832  56.4279  57.2876  57.2876

          k =-0.0909 0.2727-0.0909 (   221 PWs)   bands (ev):

    -9.6420  -9.3521  -9.2524  -8.9797  -8.9334  10.1283  39.6008  43.1911
    44.6654  48.2700  51.9128  56.5506  58.2878  58.3883

          k =-0.1818 0.3636-0.1818 (   222 PWs)   bands (ev):

    -9.7605  -9.4606  -9.2715  -9.1085  -8.8966  11.5509  34.0947  42.0244
    43.5082  48.3272  52.0053  56.2803  57.1137  57.2071

          k =-0.2727 0.4545-0.2727 (   219 PWs)   bands (ev):

    -9.4560  -9.2720  -9.1478  -9.0433  -8.9573  13.5839  29.0489  41.3318
    42.0630  47.4661  53.5786  55.3418  55.7468  58.2198

          k =-0.3636 0.5455-0.3636 (   225 PWs)   bands (ev):

    -9.9221  -9.4459  -9.3855  -9.1692  -9.1425  15.9358  24.9023  40.7006
    41.2148  47.0516  53.5443  54.5836  55.1416  61.0919

          k = 0.5455-0.3636 0.5455 (   225 PWs)   bands (ev):

    -9.7655  -9.5985  -9.4337  -9.1496  -9.1447  17.0264  23.3769  39.8048
    41.7581  47.2063  52.9417  53.9541  55.7368  64.0354

          k = 0.4545-0.2727 0.4545 (   224 PWs)   bands (ev):

    -9.7563  -9.5619  -9.2701  -9.1879  -9.1166  15.1556  26.1402  39.5079
    42.9424  47.8872  52.3148  53.6597  56.8086  61.8769

          k = 0.3636-0.1818 0.3636 (   217 PWs)   bands (ev):

    -9.3904  -9.2321  -9.0581  -8.9499  -8.9363  12.8455  30.6787  39.8231
    44.6050  49.0029  51.9923  53.7697  58.2066  58.9887

          k = 0.2727-0.0909 0.2727 (   217 PWs)   bands (ev):

    -9.5005  -9.1758  -9.0035  -8.9359  -8.8688  11.0058  35.8926  40.6761
    46.2639  49.6789  52.2305  54.3710  56.6272  58.0282

          k = 0.1818-0.0000 0.1818 (   217 PWs)   bands (ev):

    -9.3877  -9.2285  -9.1435  -8.8636  -8.6605   9.7996  40.9765  42.4186
    46.9239  48.9560  54.1370  55.6088  55.6833  57.2884

          k = 0.0000 0.3636 0.0000 (   218 PWs)   bands (ev):

    -9.5381  -9.2860  -9.2860  -8.9061  -8.6643  10.6762  41.0047  41.3952
    41.3952  46.3744  49.1277  59.9706  59.9706  60.1223

          k =-0.0909 0.4545-0.0909 (   221 PWs)   bands (ev):

    -9.6138  -9.4696  -9.3044  -9.1944  -8.8828  11.8783  36.1341  40.0349
    40.7415  46.5567  48.3173  59.7229  60.1406  60.8661

          k =-0.1818 0.5455-0.1818 (   221 PWs)   bands (ev):

    -9.6603  -9.4706  -9.2913  -9.1517  -8.8598  13.7032  31.1672  38.9153
    39.2689  45.8953  51.3583  58.6770  58.7815  60.0037

          k =-0.2727 0.6364-0.2727 (   225 PWs)   bands (ev):

    -9.9417  -9.5260  -9.4173  -9.2899  -8.9730  15.9650  26.8652  37.0667
    39.1982  45.6046  55.3140  57.2429  57.4413  59.9730

          k = 0.6364-0.2727 0.6364 (   221 PWs)   bands (ev):

    -9.4742  -9.3796  -9.2802  -9.2664  -8.8508  17.7382  24.3133  35.6732
    39.8558  45.9358  55.9061  56.5047  59.7692  60.7984

          k = 0.5455-0.1818 0.5455 (   222 PWs)   bands (ev):

    -9.7020  -9.5142  -9.3155  -9.0260  -8.9331  16.6806  25.8337  34.8902
    41.2132  46.6859  54.8621  55.8333  60.9212  61.7586

          k = 0.4545-0.0909 0.4545 (   221 PWs)   bands (ev):

    -9.4820  -9.3381  -9.2513  -9.1555  -9.1468  14.4073  29.7719  34.8836
    43.1624  47.9387  53.7247  55.3900  58.3845  59.4852

          k = 0.3636 0.0000 0.3636 (   218 PWs)   bands (ev):

    -9.4256  -9.2989  -9.1431  -9.0590  -8.8792  12.4152  33.8950  36.2166
    45.2776  49.7239  51.9488  54.9759  56.2487  58.1138

          k = 0.0000 0.5455 0.0000 (   218 PWs)   bands (ev):

    -9.7442  -9.5527  -9.0584  -9.0584  -8.6175  12.8601  35.9571  38.4670
    38.4670  45.2807  45.6375  62.7826  62.7826  64.6069

          k =-0.0909 0.6364-0.0909 (   220 PWs)   bands (ev):

    -9.7653  -9.6012  -9.0621  -9.0475  -8.8580  14.4680  32.4225  36.5196
    37.5115  44.8126  46.7929  62.1782  62.6832  65.3306

          k =-0.1818 0.7273-0.1818 (   219 PWs)   bands (ev):

    -9.7855  -9.2465  -9.1775  -9.0422  -8.7934  16.5675  28.7319  34.0235
    37.2877  44.6083  50.4710  60.6126  61.1552  65.3021

          k = 0.7273-0.1818 0.7273 (   222 PWs)   bands (ev):

    -9.7027  -9.3603  -9.3330  -9.1808  -9.0191  18.5492  26.0385  31.9434
    37.8302  44.8266  54.7893  59.3509  59.7124  65.4701

          k = 0.6364-0.0909 0.6364 (   224 PWs)   bands (ev):

    -9.5850  -9.4763  -9.4245  -9.3122  -9.1894  18.4189  26.4404  30.6420
    39.1121  45.5194  58.3930  58.4323  59.1910  62.6986

          k = 0.5455 0.0000 0.5455 (   222 PWs)   bands (ev):

    -9.4499  -9.4139  -9.3513  -9.2780  -9.1130  16.4297  29.0532  30.8731
    41.0145  46.5498  56.4580  57.7996  59.2235  59.9466

          k = 0.0000 0.7273 0.0000 (   218 PWs)   bands (ev):

    -9.8776  -9.6293  -8.8996  -8.8996  -8.6394  15.8563  30.5015  36.3383
    36.3383  43.9261  44.5494  64.8131  66.3021  66.3021

          k =-0.0909 0.8182-0.0909 (   216 PWs)   bands (ev):

    -9.7751  -9.1344  -8.9937  -8.9736  -8.5618  17.7464  27.9376  34.1710
    35.8994  43.9834  46.1548  63.3948  65.7283  68.9418

          k = 0.8182-0.0909 0.8182 (   222 PWs)   bands (ev):

    -9.7550  -9.3491  -9.3202  -9.2184  -9.0654  19.5787  26.2842  31.0590
    36.2484  44.1030  49.9621  61.8904  64.1437  67.8936

          k = 0.7273 0.0000 0.7273 (   224 PWs)   bands (ev):

    -9.7580  -9.3679  -9.3474  -9.3458  -9.3240  19.8108  26.9512  28.5808
    37.3631  44.5809  54.5090  60.4542  62.0963  64.2971

          k = 0.0000 0.9091 0.0000 (   222 PWs)   bands (ev):

   -10.1300  -9.5065  -9.2966  -9.2966  -8.6421  19.3016  25.7092  35.2238
    35.2238  43.2812  44.1039  64.3533  70.0123  70.0237

          k = 0.9091-0.0000 0.9091 (   220 PWs)   bands (ev):

    -9.9039  -9.3393  -9.2940  -9.2921  -8.5633  20.2792  24.8571  33.4689
    35.3477  43.6556  45.8647  63.6082  68.3228  69.4587

          k =-0.1818 0.3636 0.0000 (   217 PWs)   bands (ev):

    -9.4133  -9.2058  -9.1473  -9.0121  -8.7628  11.1142  37.3161  39.3023
    44.5916  48.7732  50.0246  56.5979  57.7049  59.7374

          k =-0.2727 0.4545-0.0909 (   221 PWs)   bands (ev):

    -9.4514  -9.4047  -9.3183  -9.2287  -8.9667  12.7395  32.6743  37.6725
    42.9554  48.4899  51.5813  55.2427  57.7174  61.0000

          k =-0.3636 0.5455-0.1818 (   221 PWs)   bands (ev):

    -9.5698  -9.4469  -9.2081  -9.1080  -8.9659  14.9083  28.0382  37.1148
    41.1065  47.7924  53.0583  56.2001  58.0207  59.9331

          k = 0.5455-0.3636 0.7273 (   220 PWs)   bands (ev):

    -9.5727  -9.4542  -9.1919  -9.0231  -8.7888  17.1044  24.5600  37.0283
    39.8991  47.4207  52.9013  57.8000  58.7595  60.6829

          k =-0.1818 0.5455 0.0000 (   220 PWs)   bands (ev):

    -9.5958  -9.5721  -9.2321  -9.0864  -8.8099  13.2846  33.8773  36.5948
    39.7069  47.4088  47.5993  58.3758  61.7002  64.1524

          k =-0.2727 0.6364-0.0909 (   223 PWs)   bands (ev):

    -9.8603  -9.5047  -9.3336  -9.1755  -8.9517  15.2542  30.0524  34.9290
    38.0198  47.0653  50.8671  56.6492  62.1925  63.4461

          k = 0.6364-0.2727 0.8182 (   225 PWs)   bands (ev):

    -9.8210  -9.5589  -9.4518  -9.2428  -9.0568  17.4650  26.4751  33.8742
    37.2242  47.0864  54.3029  56.0216  61.8137  62.8052

          k = 0.5455-0.1818 0.7273 (   224 PWs)   bands (ev):

    -9.7211  -9.4960  -9.3459  -9.3233  -9.0418  18.3901  25.2645  32.9615
    37.6797  47.5463  54.1411  59.4643  60.8555  61.1999

          k = 0.4545-0.0909 0.6364 (   222 PWs)   bands (ev):

    -9.6119  -9.5320  -9.2807  -9.1068  -8.9805  16.7005  27.7574  32.5666
    39.0596  48.4197  53.4883  56.9613  60.0834  62.8334

          k = 0.3636 0.0000 0.5455 (   219 PWs)   bands (ev):

    -9.5799  -9.2706  -9.1542  -9.0453  -8.9058  14.5218  31.1238  33.5774
    41.0091  49.3844  51.9749  55.0085  59.3224  61.8169

          k =-0.1818 0.7273 0.0000 (   223 PWs)   bands (ev):

    -9.8947  -9.8600  -9.1915  -9.1647  -8.7288  16.2197  30.0681  34.6012
    35.8588  46.0121  46.6863  60.4352  66.1949  66.2585

          k = 0.7273-0.1818 0.9091 (   219 PWs)   bands (ev):

    -9.6468  -9.3391  -9.1718  -8.9736  -8.9063  18.2938  27.6816  32.0971
    35.2079  46.3875  50.2651  58.7778  64.4737  66.7041

          k = 0.6364-0.0909 0.8182 (   222 PWs)   bands (ev):

    -9.6508  -9.3477  -9.3244  -9.1926  -9.1266  19.6013  26.6301  29.8310
    35.7572  46.8145  54.6874  57.4506  61.4865  64.3085

          k = 0.5455 0.0000 0.7273 (   225 PWs)   bands (ev):

    -9.7624  -9.4928  -9.4908  -9.2344  -9.1893  18.6402  28.0827  28.9400
    37.1210  47.5825  55.9165  58.1399  59.4168  62.4445

          k = 0.8182-0.0909 1.0000 (   220 PWs)   bands (ev):

    -9.7391  -9.4191  -9.1895  -9.0924  -8.8584  19.4889  26.0648  33.5808
    34.1476  45.5303  46.3125  62.2190  66.5221  69.0185

          k = 0.7273 0.0000 0.9091 (   219 PWs)   bands (ev):

    -9.5188  -9.3527  -9.2885  -9.0893  -8.8385  20.3265  25.9145  30.8402
    34.4734  46.2019  50.0325  60.3674  63.6612  66.9501

          k = 0.6364-0.2727 1.0000 (   218 PWs)   bands (ev):

    -9.3378  -9.2372  -9.1868  -9.0681  -8.9737  17.2523  28.9374  31.6649
    36.0539  49.9979  51.1112  55.3284  63.9801  64.2821

          k = 0.5455-0.1818 0.9091 (   219 PWs)   bands (ev):

    -9.4259  -9.2849  -9.2403  -9.0542  -8.9299  19.1087  27.0168  30.6314
    34.7394  50.1988  53.4241  56.0416  60.0572  65.5119

          k = 0.6364-0.0909 1.0000 (   214 PWs)   bands (ev):

    -9.2175  -9.0866  -9.0285  -8.8607  -8.8374  19.9124  27.0891  30.6708
    32.9414  50.2409  50.6303  57.1619  61.1199  68.8162

          k = 0.5455 0.0000 0.9091 (   220 PWs)   bands (ev):

    -9.4606  -9.4364  -9.1900  -9.0817  -9.0476  20.2502  27.9158  28.6676
    33.0564  50.8485  54.8577  55.3478  57.4776  67.8951

     the Fermi energy is    47.0464 ev

!    total energy              =   -1043.48010773 Ry
     Harris-Foulkes estimate   =   -1043.48010773 Ry
     estimated scf accuracy    <          2.2E-09 Ry

     total all-electron energy =    -48488.933081 Ry

     The total energy is the sum of the following terms:

     one-electron contribution =       3.78291650 Ry
     hartree contribution      =      26.69705257 Ry
     xc contribution           =     -63.34482728 Ry
     ewald contribution        =    -242.33311990 Ry
     one-center paw contrib.   =    -768.28157891 Ry
     smearing contrib. (-TS)   =      -0.00055071 Ry

     convergence has been achieved in   6 iterations

     Forces acting on atoms (cartesian axes, Ry/au):

     atom    1 type  1   force =     0.00000000    0.00000000    0.00000000

     Total force =     0.000000     Total SCF correction =     0.000000


     Computing stress (Cartesian axis) and pressure

          total   stress  (Ry/bohr**3)                   (kbar)     P=-5611.19
  -0.03814411  -0.00000000  -0.00000000      -5611.19     -0.00     -0.00
  -0.00000000  -0.03814411   0.00000000         -0.00  -5611.19      0.00
  -0.00000000   0.00000000  -0.03814411         -0.00      0.00  -5611.19


     Writing output data file Fr.save/

     init_run     :      0.24s CPU      0.26s WALL (       1 calls)
     electrons    :      2.57s CPU      2.79s WALL (       1 calls)
     forces       :      0.03s CPU      0.03s WALL (       1 calls)
     stress       :      0.10s CPU      0.10s WALL (       1 calls)

     Called by init_run:
     wfcinit      :      0.08s CPU      0.09s WALL (       1 calls)
     potinit      :      0.04s CPU      0.05s WALL (       1 calls)
     hinit0       :      0.11s CPU      0.11s WALL (       1 calls)

     Called by electrons:
     c_bands      :      2.04s CPU      2.23s WALL (       6 calls)
     sum_band     :      0.22s CPU      0.25s WALL (       6 calls)
     v_of_rho     :      0.00s CPU      0.00s WALL (       7 calls)
     newd         :      0.01s CPU      0.01s WALL (       7 calls)
     PAW_pot      :      0.32s CPU      0.33s WALL (       7 calls)
     mix_rho      :      0.00s CPU      0.00s WALL (       6 calls)

     Called by c_bands:
     init_us_2    :      0.03s CPU      0.03s WALL (     840 calls)
     cegterg      :      1.99s CPU      2.17s WALL (     336 calls)

     Called by sum_band:
     sum_band:bec :      0.00s CPU      0.00s WALL (     336 calls)
     addusdens    :      0.01s CPU      0.01s WALL (       6 calls)

     Called by *egterg:
     h_psi        :      1.22s CPU      1.34s WALL (    1276 calls)
     s_psi        :      0.03s CPU      0.03s WALL (    1276 calls)
     g_psi        :      0.00s CPU      0.00s WALL (     884 calls)
     cdiaghg      :      0.57s CPU      0.61s WALL (    1220 calls)

     Called by h_psi:
     h_psi:pot    :      1.21s CPU      1.33s WALL (    1276 calls)
     h_psi:calbec :      0.05s CPU      0.06s WALL (    1276 calls)
     vloc_psi     :      1.12s CPU      1.23s WALL (    1276 calls)
     add_vuspsi   :      0.03s CPU      0.03s WALL (    1276 calls)

     General routines
     calbec       :      0.08s CPU      0.09s WALL (    1892 calls)
     fft          :      0.00s CPU      0.00s WALL (      37 calls)
     ffts         :      0.00s CPU      0.00s WALL (       6 calls)
     fftw         :      1.20s CPU      1.32s WALL (   30636 calls)

     Parallel routines
     fft_scatt_xy :      0.11s CPU      0.12s WALL (   30679 calls)
     fft_scatt_yz :      0.44s CPU      0.48s WALL (   30679 calls)

     PWSCF        :     3.91s CPU         4.25s WALL


   This run was terminated on:  22:27:12   7Apr2024            

=------------------------------------------------------------------------------=
   JOB DONE.
=------------------------------------------------------------------------------=
