
     Program PWSCF v.6.3MaX starts on  7Apr2024 at 22:52: 2 

     This program is part of the open-source Quantum ESPRESSO suite
     for quantum simulation of materials; please cite
         "P. Giannozzi et al., J. Phys.:Condens. Matter 21 395502 (2009);
         "P. Giannozzi et al., J. Phys.:Condens. Matter 29 465901 (2017);
          URL http://www.quantum-espresso.org", 
     in publications or presentations arising from this work. More details at
     http://www.quantum-espresso.org/quote

     Parallel version (MPI), running on     5 processors

     MPI processes distributed on     1 nodes
     R & G space division:  proc/nbgrp/npool/nimage =       5
     Waiting for input...
     Reading input from standard input

     Current dimensions of program PWSCF are:
     Max number of different atomic species (ntypx) = 10
     Max number of k-points (npk) =  40000
     Max angular momentum in pseudopotentials (lmaxx) =  3

     Subspace diagonalization in iterative solution of the eigenvalue problem:
     a serial algorithm will be used


     Parallelization info
     --------------------
     sticks:   dense  smooth     PW     G-vecs:    dense   smooth      PW
     Min          95      95     30                 1375     1375     248
     Max          95      95     31                 1376     1376     251
     Sum         475     475    151                 6879     6879    1243



     bravais-lattice index     =            2
     lattice parameter (alat)  =       6.8300  a.u.
     unit-cell volume          =      79.6530 (a.u.)^3
     number of atoms/cell      =            1
     number of atomic types    =            1
     number of electrons       =        19.00
     number of Kohn-Sham states=           14
     kinetic-energy cutoff     =      75.0000  Ry
     charge density cutoff     =     300.0000  Ry
     convergence threshold     =      1.0E-08
     mixing beta               =       0.7000
     number of iterations used =            8  plain     mixing
     Exchange-correlation      = LDA ( 1  1  0  0 0 0)

     celldm(1)=   6.830000  celldm(2)=   0.000000  celldm(3)=   0.000000
     celldm(4)=   0.000000  celldm(5)=   0.000000  celldm(6)=   0.000000

     crystal axes: (cart. coord. in units of alat)
               a(1) = (  -0.500000   0.000000   0.500000 )  
               a(2) = (   0.000000   0.500000   0.500000 )  
               a(3) = (  -0.500000   0.500000   0.000000 )  

     reciprocal axes: (cart. coord. in units 2 pi/alat)
               b(1) = ( -1.000000 -1.000000  1.000000 )  
               b(2) = (  1.000000  1.000000  1.000000 )  
               b(3) = ( -1.000000  1.000000 -1.000000 )  


     PseudoPot. # 1 for Fr read from file:
     /home/lorenzo/pseudos/Fr/Fr.pz-spdn-rrkjus_psl.1.0.0.UPF
     MD5 check sum: 5665a43a3d1ea02b0b7dc7a0ae9ace04
     Pseudo is Ultrasoft + core correction, Zval = 19.0
     Generated using "atomic" code by A. Dal Corso v.6.2.2
     Using radial grid of 1287 points,  6 beta functions with: 
                l(1) =   0
                l(2) =   0
                l(3) =   1
                l(4) =   1
                l(5) =   2
                l(6) =   2
     Q(r) pseudized with 0 coefficients 


     atomic species   valence    mass     pseudopotential
        Fr            19.00   223.00000     Fr( 1.00)

     48 Sym. Ops., with inversion, found



   Cartesian axes

     site n.     atom                  positions (alat units)
         1           Fr  tau(   1) = (   0.0000000   0.0000000   0.0000000  )

     number of k points=    29  gaussian smearing, width (Ry)=  0.0100
                       cart. coord. in units 2pi/alat
        k(    1) = (   0.0000000   0.0000000   0.0000000), wk =   0.0039062
        k(    2) = (  -0.1250000   0.1250000  -0.1250000), wk =   0.0312500
        k(    3) = (  -0.2500000   0.2500000  -0.2500000), wk =   0.0312500
        k(    4) = (  -0.3750000   0.3750000  -0.3750000), wk =   0.0312500
        k(    5) = (   0.5000000  -0.5000000   0.5000000), wk =   0.0156250
        k(    6) = (   0.0000000   0.2500000   0.0000000), wk =   0.0234375
        k(    7) = (  -0.1250000   0.3750000  -0.1250000), wk =   0.0937500
        k(    8) = (  -0.2500000   0.5000000  -0.2500000), wk =   0.0937500
        k(    9) = (   0.6250000  -0.3750000   0.6250000), wk =   0.0937500
        k(   10) = (   0.5000000  -0.2500000   0.5000000), wk =   0.0937500
        k(   11) = (   0.3750000  -0.1250000   0.3750000), wk =   0.0937500
        k(   12) = (   0.2500000   0.0000000   0.2500000), wk =   0.0468750
        k(   13) = (   0.0000000   0.5000000   0.0000000), wk =   0.0234375
        k(   14) = (  -0.1250000   0.6250000  -0.1250000), wk =   0.0937500
        k(   15) = (   0.7500000  -0.2500000   0.7500000), wk =   0.0937500
        k(   16) = (   0.6250000  -0.1250000   0.6250000), wk =   0.0937500
        k(   17) = (   0.5000000   0.0000000   0.5000000), wk =   0.0468750
        k(   18) = (   0.0000000   0.7500000   0.0000000), wk =   0.0234375
        k(   19) = (   0.8750000  -0.1250000   0.8750000), wk =   0.0937500
        k(   20) = (   0.7500000   0.0000000   0.7500000), wk =   0.0468750
        k(   21) = (   0.0000000  -1.0000000   0.0000000), wk =   0.0117188
        k(   22) = (  -0.2500000   0.5000000   0.0000000), wk =   0.0937500
        k(   23) = (   0.6250000  -0.3750000   0.8750000), wk =   0.1875000
        k(   24) = (   0.5000000  -0.2500000   0.7500000), wk =   0.0937500
        k(   25) = (   0.7500000  -0.2500000   1.0000000), wk =   0.0937500
        k(   26) = (   0.6250000  -0.1250000   0.8750000), wk =   0.1875000
        k(   27) = (   0.5000000   0.0000000   0.7500000), wk =   0.0937500
        k(   28) = (  -0.2500000  -1.0000000   0.0000000), wk =   0.0468750
        k(   29) = (  -0.5000000  -1.0000000   0.0000000), wk =   0.0234375

     Dense  grid:     6879 G-vectors     FFT dimensions: (  27,  27,  27)

     Estimated max dynamical RAM per process >       7.77 MB

     Estimated total dynamical RAM >      38.83 MB

     Initial potential from superposition of free atoms

     starting charge   18.97647, renormalised to   19.00000
     Starting wfcs are   10 randomized atomic wfcs +    4 random wfcs

     total cpu time spent up to now is        1.2 secs

     Self-consistent Calculation

     iteration #  1     ecut=    75.00 Ry     beta= 0.70
     Davidson diagonalization with overlap
     ethr =  1.00E-02,  avg # of iterations =  4.8

     Threshold (ethr) on eigenvalues was too large:
     Diagonalizing with lowered threshold

     Davidson diagonalization with overlap
     ethr =  9.98E-05,  avg # of iterations =  1.8

     total cpu time spent up to now is        2.3 secs

     total energy              =    -282.48457496 Ry
     Harris-Foulkes estimate   =    -282.49761836 Ry
     estimated scf accuracy    <       0.01887348 Ry

     iteration #  2     ecut=    75.00 Ry     beta= 0.70
     Davidson diagonalization with overlap
     ethr =  9.93E-05,  avg # of iterations =  2.0

     total cpu time spent up to now is        2.7 secs

     total energy              =    -282.48773449 Ry
     Harris-Foulkes estimate   =    -282.48822517 Ry
     estimated scf accuracy    <       0.00065357 Ry

     iteration #  3     ecut=    75.00 Ry     beta= 0.70
     Davidson diagonalization with overlap
     ethr =  3.44E-06,  avg # of iterations =  2.6

     total cpu time spent up to now is        3.2 secs

     total energy              =    -282.48784888 Ry
     Harris-Foulkes estimate   =    -282.48786716 Ry
     estimated scf accuracy    <       0.00003059 Ry

     iteration #  4     ecut=    75.00 Ry     beta= 0.70
     Davidson diagonalization with overlap
     ethr =  1.61E-07,  avg # of iterations =  2.0

     total cpu time spent up to now is        3.6 secs

     total energy              =    -282.48785262 Ry
     Harris-Foulkes estimate   =    -282.48785265 Ry
     estimated scf accuracy    <       0.00000009 Ry

     iteration #  5     ecut=    75.00 Ry     beta= 0.70
     Davidson diagonalization with overlap
     ethr =  4.49E-10,  avg # of iterations =  2.4

     total cpu time spent up to now is        4.0 secs

     End of self-consistent calculation

          k = 0.0000 0.0000 0.0000 (   893 PWs)   bands (ev):

    -9.5388  -9.5388  -9.5388  -9.1893  -9.1893   9.0866  46.8791  46.8791
    46.8791  48.0873  53.6680  53.6680  53.6680  57.5527

          k =-0.1250 0.1250-0.1250 (   893 PWs)   bands (ev):

    -9.5327  -9.4924  -9.4924  -9.1868  -9.1868   9.7123  41.1991  46.0021
    46.0021  47.9606  55.1432  55.1432  55.5091  56.5608

          k =-0.2500 0.2500-0.2500 (   881 PWs)   bands (ev):

    -9.5234  -9.4444  -9.4444  -9.1134  -9.1134  11.5887  33.5096  44.4209
    44.4209  47.9971  53.1586  53.8230  53.8230  58.4905

          k =-0.3750 0.3750-0.3750 (   869 PWs)   bands (ev):

    -9.5228  -9.4648  -9.4648  -8.9673  -8.9673  14.5918  26.7888  43.1321
    43.1321  47.9315  51.4694  52.1334  52.1334  62.5488

          k = 0.5000-0.5000 0.5000 (   862 PWs)   bands (ev):

    -9.5232  -9.4815  -9.4815  -8.8979  -8.8979  17.1101  23.0039  42.6392
    42.6392  47.8522  50.9485  51.5866  51.5866  65.1318

          k = 0.0000 0.2500 0.0000 (   889 PWs)   bands (ev):

    -9.5867  -9.4404  -9.4404  -9.2404  -9.1478   9.9206  43.5010  43.5010
    43.9587  46.4729  51.7034  56.6406  57.4566  57.4566

          k =-0.1250 0.3750-0.1250 (   873 PWs)   bands (ev):

    -9.5975  -9.3783  -9.3606  -9.2385  -9.0768  11.3811  36.3214  41.5592
    43.0437  47.2755  49.8751  56.3619  57.9769  58.2860

          k =-0.2500 0.5000-0.2500 (   876 PWs)   bands (ev):

    -9.5665  -9.4119  -9.3654  -9.1131  -8.9474  14.0328  29.3087  40.6026
    40.8202  46.0966  53.7910  55.6195  55.6496  56.8700

          k = 0.6250-0.3750 0.6250 (   869 PWs)   bands (ev):

    -9.5348  -9.4360  -9.3952  -8.9928  -8.8941  17.1595  24.1481  38.8467
    40.8590  45.9549  53.7647  53.9061  56.2431  60.6559

          k = 0.5000-0.2500 0.5000 (   873 PWs)   bands (ev):

    -9.4962  -9.4576  -9.3982  -8.9846  -8.9522  16.2085  25.5273  37.8521
    42.4087  46.8657  52.5836  53.0175  57.6806  61.6542

          k = 0.3750-0.1250 0.3750 (   877 PWs)   bands (ev):

    -9.5002  -9.4415  -9.3765  -9.1607  -9.0097  13.0262  31.5497  38.0364
    45.0130  48.8110  51.5492  52.9359  57.0308  58.5511

          k = 0.2500 0.0000 0.2500 (   887 PWs)   bands (ev):

    -9.5338  -9.4316  -9.4304  -9.2290  -9.1132  10.7558  38.3342  39.8382
    47.2639  49.6661  52.0522  53.7194  54.2410  56.4649

          k = 0.0000 0.5000 0.0000 (   881 PWs)   bands (ev):

    -9.7031  -9.3721  -9.1976  -9.1976  -9.0481  12.4232  37.6836  39.1837
    39.1837  44.5007  45.6435  61.8316  61.8316  62.6021

          k =-0.1250 0.6250-0.1250 (   868 PWs)   bands (ev):

    -9.7093  -9.4274  -9.1522  -9.0892  -8.9373  14.6736  32.0608  36.5152
    37.9256  44.1750  47.5943  60.4142  61.1080  63.3899

          k = 0.7500-0.2500 0.7500 (   866 PWs)   bands (ev):

    -9.6414  -9.3827  -9.1831  -9.0798  -8.8830  17.7328  26.8031  33.5583
    38.0258  44.1114  53.1959  58.2984  58.9647  63.6712

          k = 0.6250-0.1250 0.6250 (   870 PWs)   bands (ev):

    -9.5700  -9.2931  -9.2067  -9.1100  -8.9835  18.4825  25.9193  31.7162
    39.5291  44.8877  56.9798  57.1952  59.4294  62.2187

          k = 0.5000 0.0000 0.5000 (   883 PWs)   bands (ev):

    -9.4953  -9.3918  -9.2094  -9.1773  -9.0217  15.5761  30.1209  31.9688
    42.2032  46.5397  54.8988  56.2903  57.1567  59.0238

          k = 0.0000 0.7500 0.0000 (   870 PWs)   bands (ev):

    -9.8182  -9.5193  -8.9462  -8.9457  -8.9457  16.5096  30.0653  36.2585
    36.2585  43.1482  43.3076  64.2229  66.5967  66.5967

          k = 0.8750-0.1250 0.8750 (   873 PWs)   bands (ev):

    -9.7887  -9.5262  -8.9725  -8.9215  -8.8661  19.1952  26.8102  32.7440
    35.9680  43.0393  46.4987  62.4299  65.2333  68.9971

          k = 0.7500 0.0000 0.7500 (   874 PWs)   bands (ev):

    -9.6759  -9.3875  -9.0480  -9.0286  -8.9351  20.3845  26.5918  28.8831
    37.1297  43.5884  52.6679  60.2993  62.5164  64.7421

          k = 0.0000-1.0000 0.0000 (   846 PWs)   bands (ev):

    -9.8646  -9.5830  -8.9033  -8.8376  -8.8376  20.6090  24.6429  35.2326
    35.2326  42.4832  42.9190  64.0682  70.0354  70.9609

          k =-0.2500 0.5000 0.0000 (   866 PWs)   bands (ev):

    -9.5973  -9.3936  -9.2570  -9.2076  -8.9955  13.2382  33.7862  35.9071
    41.5578  48.6653  48.6856  55.1740  58.8421  61.6332

          k = 0.6250-0.3750 0.8750 (   873 PWs)   bands (ev):

    -9.5279  -9.4361  -9.2522  -9.0948  -8.9456  16.1455  28.2151  34.4866
    38.8801  47.9816  52.0894  54.9952  59.5727  62.2354

          k = 0.5000-0.2500 0.7500 (   870 PWs)   bands (ev):

    -9.4948  -9.4498  -9.2224  -9.0892  -8.9196  18.4594  24.7789  34.4289
    37.6738  47.7389  51.9710  59.7589  60.2378  60.9048

          k = 0.7500-0.2500 1.0000 (   863 PWs)   bands (ev):

    -9.6871  -9.4637  -9.1348  -8.9491  -8.9298  17.1885  29.4940  33.2715
    35.2246  47.1025  47.1639  57.9176  65.6747  65.8348

          k = 0.6250-0.1250 0.8750 (   873 PWs)   bands (ev):

    -9.5807  -9.3956  -9.1885  -9.0409  -8.8863  19.8016  26.8772  30.4011
    34.5442  47.4708  52.9656  55.9025  61.1061  65.4008

          k = 0.5000 0.0000 0.7500 (   872 PWs)   bands (ev):

    -9.5036  -9.3621  -9.2354  -9.0722  -8.9567  18.8912  28.1934  29.3180
    36.1125  48.5557  53.8295  56.0404  59.7294  63.1230

          k =-0.2500-1.0000 0.0000 (   876 PWs)   bands (ev):

    -9.7254  -9.5119  -8.9998  -8.9707  -8.8389  20.7542  25.6254  32.3425
    33.2129  46.5901  46.6508  60.4018  64.0363  68.1228

          k =-0.5000-1.0000 0.0000 (   876 PWs)   bands (ev):

    -9.4134  -9.3728  -9.3728  -9.0637  -8.8388  20.9130  28.3853  28.3853
    31.8645  53.0416  53.2420  53.2420  56.2326  69.8464

     the Fermi energy is    46.9122 ev

!    total energy              =    -282.48785265 Ry
     Harris-Foulkes estimate   =    -282.48785265 Ry
     estimated scf accuracy    <          2.5E-09 Ry

     The total energy is the sum of the following terms:

     one-electron contribution =      -4.44863020 Ry
     hartree contribution      =      28.18814457 Ry
     xc contribution           =     -63.89393043 Ry
     ewald contribution        =    -242.33311988 Ry
     smearing contrib. (-TS)   =      -0.00031672 Ry

     convergence has been achieved in   5 iterations

     Forces acting on atoms (cartesian axes, Ry/au):

     atom    1 type  1   force =     0.00000000    0.00000000    0.00000000

     Total force =     0.000000     Total SCF correction =     0.000000


     Computing stress (Cartesian axis) and pressure

          total   stress  (Ry/bohr**3)                   (kbar)     P= 6940.23
   0.04717875  -0.00000000  -0.00000000       6940.23     -0.00     -0.00
  -0.00000000   0.04717875   0.00000000         -0.00   6940.23      0.00
  -0.00000000   0.00000000   0.04717875         -0.00      0.00   6940.23


     Writing output data file Fr.save/

     init_run     :      0.30s CPU      0.32s WALL (       1 calls)
     electrons    :      2.63s CPU      2.74s WALL (       1 calls)
     forces       :      0.04s CPU      0.04s WALL (       1 calls)
     stress       :      0.13s CPU      0.13s WALL (       1 calls)

     Called by init_run:
     wfcinit      :      0.11s CPU      0.12s WALL (       1 calls)
     potinit      :      0.01s CPU      0.01s WALL (       1 calls)
     hinit0       :      0.17s CPU      0.17s WALL (       1 calls)

     Called by electrons:
     c_bands      :      2.18s CPU      2.27s WALL (       6 calls)
     sum_band     :      0.39s CPU      0.40s WALL (       6 calls)
     v_of_rho     :      0.01s CPU      0.01s WALL (       6 calls)
     newd         :      0.05s CPU      0.06s WALL (       6 calls)
     mix_rho      :      0.00s CPU      0.00s WALL (       6 calls)

     Called by c_bands:
     init_us_2    :      0.05s CPU      0.05s WALL (     435 calls)
     cegterg      :      2.12s CPU      2.20s WALL (     174 calls)

     Called by sum_band:
     sum_band:bec :      0.00s CPU      0.00s WALL (     174 calls)
     addusdens    :      0.04s CPU      0.04s WALL (       6 calls)

     Called by *egterg:
     h_psi        :      1.57s CPU      1.65s WALL (     655 calls)
     s_psi        :      0.04s CPU      0.05s WALL (     655 calls)
     g_psi        :      0.00s CPU      0.00s WALL (     452 calls)
     cdiaghg      :      0.28s CPU      0.28s WALL (     597 calls)

     Called by h_psi:
     h_psi:pot    :      1.56s CPU      1.64s WALL (     655 calls)
     h_psi:calbec :      0.07s CPU      0.08s WALL (     655 calls)
     vloc_psi     :      1.44s CPU      1.51s WALL (     655 calls)
     add_vuspsi   :      0.05s CPU      0.05s WALL (     655 calls)

     General routines
     calbec       :      0.11s CPU      0.12s WALL (     974 calls)
     fft          :      0.02s CPU      0.02s WALL (      34 calls)
     ffts         :      0.00s CPU      0.00s WALL (       6 calls)
     fftw         :      1.62s CPU      1.70s WALL (   15612 calls)

     Parallel routines
     fft_scatt_xy :      0.13s CPU      0.14s WALL (   15652 calls)
     fft_scatt_yz :      0.46s CPU      0.48s WALL (   15652 calls)

     PWSCF        :     4.06s CPU         4.24s WALL


   This run was terminated on:  22:52: 6   7Apr2024            

=------------------------------------------------------------------------------=
   JOB DONE.
=------------------------------------------------------------------------------=
