
     Program PWSCF v.6.3MaX starts on  7Apr2024 at 22:44:54 

     This program is part of the open-source Quantum ESPRESSO suite
     for quantum simulation of materials; please cite
         "P. Giannozzi et al., J. Phys.:Condens. Matter 21 395502 (2009);
         "P. Giannozzi et al., J. Phys.:Condens. Matter 29 465901 (2017);
          URL http://www.quantum-espresso.org", 
     in publications or presentations arising from this work. More details at
     http://www.quantum-espresso.org/quote

     Parallel version (MPI), running on     5 processors

     MPI processes distributed on     1 nodes
     R & G space division:  proc/nbgrp/npool/nimage =       5
     Waiting for input...
     Reading input from standard input

     Current dimensions of program PWSCF are:
     Max number of different atomic species (ntypx) = 10
     Max number of k-points (npk) =  40000
     Max angular momentum in pseudopotentials (lmaxx) =  3
               file Fr.pz-spdn-kjpaw_psl.1.0.0.UPF: wavefunction(s)  6P renormalized

     Subspace diagonalization in iterative solution of the eigenvalue problem:
     a serial algorithm will be used


     Parallelization info
     --------------------
     sticks:   dense  smooth     PW     G-vecs:    dense   smooth      PW
     Min          84      84     25                 1134     1134     192
     Max          85      85     26                 1137     1137     195
     Sum         421     421    127                 5673     5673     965



     bravais-lattice index     =            2
     lattice parameter (alat)  =       6.8300  a.u.
     unit-cell volume          =      79.6530 (a.u.)^3
     number of atoms/cell      =            1
     number of atomic types    =            1
     number of electrons       =        19.00
     number of Kohn-Sham states=           14
     kinetic-energy cutoff     =      65.0000  Ry
     charge density cutoff     =     260.0000  Ry
     convergence threshold     =      1.0E-08
     mixing beta               =       0.7000
     number of iterations used =            8  plain     mixing
     Exchange-correlation      = SLA PZ NOGX NOGC ( 1  1  0  0 0 0)

     celldm(1)=   6.830000  celldm(2)=   0.000000  celldm(3)=   0.000000
     celldm(4)=   0.000000  celldm(5)=   0.000000  celldm(6)=   0.000000

     crystal axes: (cart. coord. in units of alat)
               a(1) = (  -0.500000   0.000000   0.500000 )  
               a(2) = (   0.000000   0.500000   0.500000 )  
               a(3) = (  -0.500000   0.500000   0.000000 )  

     reciprocal axes: (cart. coord. in units 2 pi/alat)
               b(1) = ( -1.000000 -1.000000  1.000000 )  
               b(2) = (  1.000000  1.000000  1.000000 )  
               b(3) = ( -1.000000  1.000000 -1.000000 )  


     PseudoPot. # 1 for Fr read from file:
     /home/lorenzo/pseudos/Fr/Fr.pz-spdn-kjpaw_psl.1.0.0.UPF
     MD5 check sum: 60dafd115682613df3cc92ec23a62a32
     Pseudo is Projector augmented-wave + core cor, Zval = 19.0
     Generated using "atomic" code by A. Dal Corso v.6.2.2
     Shape of augmentation charge: PSQ
     Using radial grid of 1287 points,  6 beta functions with: 
                l(1) =   0
                l(2) =   0
                l(3) =   1
                l(4) =   1
                l(5) =   2
                l(6) =   2
     Q(r) pseudized with 0 coefficients 


     atomic species   valence    mass     pseudopotential
        Fr            19.00   223.00000     Fr( 1.00)

     48 Sym. Ops., with inversion, found



   Cartesian axes

     site n.     atom                  positions (alat units)
         1           Fr  tau(   1) = (   0.0000000   0.0000000   0.0000000  )

     number of k points=    10  gaussian smearing, width (Ry)=  0.0100
                       cart. coord. in units 2pi/alat
        k(    1) = (   0.0000000   0.0000000   0.0000000), wk =   0.0160000
        k(    2) = (  -0.2000000   0.2000000  -0.2000000), wk =   0.1280000
        k(    3) = (  -0.4000000   0.4000000  -0.4000000), wk =   0.1280000
        k(    4) = (   0.0000000   0.4000000   0.0000000), wk =   0.0960000
        k(    5) = (  -0.2000000   0.6000000  -0.2000000), wk =   0.3840000
        k(    6) = (   0.6000000  -0.2000000   0.6000000), wk =   0.3840000
        k(    7) = (   0.4000000   0.0000000   0.4000000), wk =   0.1920000
        k(    8) = (   0.0000000   0.8000000   0.0000000), wk =   0.0960000
        k(    9) = (   0.8000000   0.0000000   0.8000000), wk =   0.1920000
        k(   10) = (   0.6000000  -0.2000000   1.0000000), wk =   0.3840000

     Dense  grid:     5673 G-vectors     FFT dimensions: (  25,  25,  25)

     Estimated max dynamical RAM per process >       5.95 MB

     Estimated total dynamical RAM >      29.76 MB

     Check: negative/imaginary core charge=   -0.000003    0.000000

     Initial potential from superposition of free atoms

     starting charge   18.97647, renormalised to   19.00000
     Starting wfcs are   10 randomized atomic wfcs +    4 random wfcs
     Checking if some PAW data can be deallocated... 

     total cpu time spent up to now is        1.1 secs

     Self-consistent Calculation

     iteration #  1     ecut=    65.00 Ry     beta= 0.70
     Davidson diagonalization with overlap
     ethr =  1.00E-02,  avg # of iterations =  4.8

     Threshold (ethr) on eigenvalues was too large:
     Diagonalizing with lowered threshold

     Davidson diagonalization with overlap
     ethr =  9.08E-05,  avg # of iterations =  1.8

     total cpu time spent up to now is        1.5 secs

     total energy              =   -1045.28080908 Ry
     Harris-Foulkes estimate   =   -1045.29277840 Ry
     estimated scf accuracy    <       0.01686617 Ry

     iteration #  2     ecut=    65.00 Ry     beta= 0.70
     Davidson diagonalization with overlap
     ethr =  8.88E-05,  avg # of iterations =  2.0

     total cpu time spent up to now is        1.7 secs

     total energy              =   -1045.28427835 Ry
     Harris-Foulkes estimate   =   -1045.28463499 Ry
     estimated scf accuracy    <       0.00070636 Ry

     iteration #  3     ecut=    65.00 Ry     beta= 0.70
     Davidson diagonalization with overlap
     ethr =  3.72E-06,  avg # of iterations =  2.3

     total cpu time spent up to now is        1.9 secs

     total energy              =   -1045.28437623 Ry
     Harris-Foulkes estimate   =   -1045.28437621 Ry
     estimated scf accuracy    <       0.00001880 Ry

     iteration #  4     ecut=    65.00 Ry     beta= 0.70
     Davidson diagonalization with overlap
     ethr =  9.89E-08,  avg # of iterations =  2.0

     total cpu time spent up to now is        2.1 secs

     total energy              =   -1045.28438138 Ry
     Harris-Foulkes estimate   =   -1045.28438081 Ry
     estimated scf accuracy    <       0.00000031 Ry

     iteration #  5     ecut=    65.00 Ry     beta= 0.70
     Davidson diagonalization with overlap
     ethr =  1.65E-09,  avg # of iterations =  2.3

     total cpu time spent up to now is        2.2 secs

     total energy              =   -1045.28438147 Ry
     Harris-Foulkes estimate   =   -1045.28438146 Ry
     estimated scf accuracy    <       0.00000005 Ry

     iteration #  6     ecut=    65.00 Ry     beta= 0.70
     Davidson diagonalization with overlap
     ethr =  2.60E-10,  avg # of iterations =  2.0

     total cpu time spent up to now is        2.4 secs

     End of self-consistent calculation

          k = 0.0000 0.0000 0.0000 (   725 PWs)   bands (ev):

    -9.3986  -9.3986  -9.3986  -9.0523  -9.0523   9.1077  46.8789  46.8789
    46.8789  48.1069  53.6944  53.6944  53.6944  57.4947

          k =-0.2000 0.2000-0.2000 (   697 PWs)   bands (ev):

    -9.3843  -9.3123  -9.3123  -9.0179  -9.0179  10.7113  36.5292  45.0672
    45.0672  47.9988  54.1197  54.8216  54.8216  57.0282

          k =-0.4000 0.4000-0.4000 (   715 PWs)   bands (ev):

    -9.3829  -9.3321  -9.3321  -8.8050  -8.8050  15.2967  25.6608  42.9747
    42.9747  47.8896  51.3036  51.9385  51.9385  63.3308

          k = 0.0000 0.4000 0.0000 (   693 PWs)   bands (ev):

    -9.5117  -9.1763  -9.1601  -9.1601  -8.9524  11.2449  40.5307  40.7986
    40.7986  45.2332  47.5180  60.0191  60.1826  60.1826

          k =-0.2000 0.6000-0.2000 (   698 PWs)   bands (ev):

    -9.4957  -9.2580  -9.1096  -8.9792  -8.7783  14.9015  29.8793  37.4943
    38.8502  44.7155  51.3741  57.9964  58.3941  60.3313

          k = 0.6000-0.2000 0.6000 (   699 PWs)   bands (ev):

    -9.4080  -9.2189  -9.1517  -8.9041  -8.8151  18.0299  24.9000  34.2684
    40.2946  45.3609  55.4500  55.4810  60.5627  62.2203

          k = 0.4000 0.0000 0.4000 (   702 PWs)   bands (ev):

    -9.3361  -9.3066  -9.1428  -9.1005  -8.8710  13.3502  32.8899  34.8881
    44.6952  48.4173  52.4846  54.7314  55.2759  57.7571

          k = 0.0000 0.8000 0.0000 (   700 PWs)   bands (ev):

    -9.6946  -9.4062  -8.7935  -8.7656  -8.7656  17.5071  28.6453  35.8982
    35.8982  42.8674  43.1958  64.1909  67.6603  67.6604

          k = 0.8000 0.0000 0.8000 (   710 PWs)   bands (ev):

    -9.5849  -9.3290  -8.8513  -8.8377  -8.7587  20.6530  25.9117  30.0611
    36.4664  43.2570  50.0381  61.3084  64.2597  66.2018

          k = 0.6000-0.2000 1.0000 (   708 PWs)   bands (ev):

    -9.3725  -9.3057  -9.0906  -8.8792  -8.7721  18.9543  28.2242  30.4825
    34.3398  50.4599  50.8468  54.4798  61.6055  65.6824

     the Fermi energy is    45.3616 ev

!    total energy              =   -1045.28438147 Ry
     Harris-Foulkes estimate   =   -1045.28438147 Ry
     estimated scf accuracy    <          2.6E-10 Ry

     total all-electron energy =    -48490.737354 Ry

     The total energy is the sum of the following terms:

     one-electron contribution =       1.40226328 Ry
     hartree contribution      =      28.27706879 Ry
     xc contribution           =     -63.91008382 Ry
     ewald contribution        =    -242.33311988 Ry
     one-center paw contrib.   =    -768.71930875 Ry
     smearing contrib. (-TS)   =      -0.00120110 Ry

     convergence has been achieved in   6 iterations

     Forces acting on atoms (cartesian axes, Ry/au):

     atom    1 type  1   force =     0.00000000    0.00000000    0.00000000

     Total force =     0.000000     Total SCF correction =     0.000000


     Computing stress (Cartesian axis) and pressure

          total   stress  (Ry/bohr**3)                   (kbar)     P= 7016.35
   0.04769616   0.00000000   0.00000000       7016.35      0.00      0.00
   0.00000000   0.04769616   0.00000000          0.00   7016.35      0.00
   0.00000000  -0.00000000   0.04769616          0.00     -0.00   7016.35


     Writing output data file Fr.save/

     init_run     :      0.25s CPU      0.26s WALL (       1 calls)
     electrons    :      1.21s CPU      1.26s WALL (       1 calls)
     forces       :      0.02s CPU      0.02s WALL (       1 calls)
     stress       :      0.06s CPU      0.06s WALL (       1 calls)

     Called by init_run:
     wfcinit      :      0.03s CPU      0.04s WALL (       1 calls)
     potinit      :      0.05s CPU      0.05s WALL (       1 calls)
     hinit0       :      0.15s CPU      0.16s WALL (       1 calls)

     Called by electrons:
     c_bands      :      0.72s CPU      0.76s WALL (       7 calls)
     sum_band     :      0.16s CPU      0.17s WALL (       7 calls)
     v_of_rho     :      0.00s CPU      0.00s WALL (       7 calls)
     newd         :      0.04s CPU      0.04s WALL (       7 calls)
     PAW_pot      :      0.32s CPU      0.32s WALL (       7 calls)
     mix_rho      :      0.00s CPU      0.00s WALL (       7 calls)

     Called by c_bands:
     init_us_2    :      0.02s CPU      0.02s WALL (     170 calls)
     cegterg      :      0.70s CPU      0.74s WALL (      70 calls)

     Called by sum_band:
     sum_band:bec :      0.00s CPU      0.00s WALL (      70 calls)
     addusdens    :      0.04s CPU      0.04s WALL (       7 calls)

     Called by *egterg:
     h_psi        :      0.49s CPU      0.52s WALL (     252 calls)
     s_psi        :      0.02s CPU      0.02s WALL (     252 calls)
     g_psi        :      0.00s CPU      0.00s WALL (     172 calls)
     cdiaghg      :      0.12s CPU      0.12s WALL (     232 calls)

     Called by h_psi:
     h_psi:pot    :      0.49s CPU      0.52s WALL (     252 calls)
     h_psi:calbec :      0.02s CPU      0.02s WALL (     252 calls)
     vloc_psi     :      0.45s CPU      0.47s WALL (     252 calls)
     add_vuspsi   :      0.02s CPU      0.02s WALL (     252 calls)

     General routines
     calbec       :      0.04s CPU      0.04s WALL (     372 calls)
     fft          :      0.01s CPU      0.01s WALL (      38 calls)
     ffts         :      0.00s CPU      0.00s WALL (       7 calls)
     fftw         :      0.51s CPU      0.54s WALL (    6080 calls)

     Parallel routines
     fft_scatt_xy :      0.04s CPU      0.04s WALL (    6125 calls)
     fft_scatt_yz :      0.16s CPU      0.17s WALL (    6125 calls)

     PWSCF        :     2.44s CPU         2.55s WALL


   This run was terminated on:  22:44:56   7Apr2024            

=------------------------------------------------------------------------------=
   JOB DONE.
=------------------------------------------------------------------------------=
