
     Program PWSCF v.6.3MaX starts on  7Apr2024 at 22:27:45 

     This program is part of the open-source Quantum ESPRESSO suite
     for quantum simulation of materials; please cite
         "P. Giannozzi et al., J. Phys.:Condens. Matter 21 395502 (2009);
         "P. Giannozzi et al., J. Phys.:Condens. Matter 29 465901 (2017);
          URL http://www.quantum-espresso.org", 
     in publications or presentations arising from this work. More details at
     http://www.quantum-espresso.org/quote

     Parallel version (MPI), running on     5 processors

     MPI processes distributed on     1 nodes
     R & G space division:  proc/nbgrp/npool/nimage =       5
     Waiting for input...
     Reading input from standard input

     Current dimensions of program PWSCF are:
     Max number of different atomic species (ntypx) = 10
     Max number of k-points (npk) =  40000
     Max angular momentum in pseudopotentials (lmaxx) =  3
               file Fr.pz-spdn-kjpaw_psl.1.0.0.UPF: wavefunction(s)  6P renormalized

     Subspace diagonalization in iterative solution of the eigenvalue problem:
     a serial algorithm will be used


     Parallelization info
     --------------------
     sticks:   dense  smooth     PW     G-vecs:    dense   smooth      PW
     Min          39      39     12                  361      361      67
     Max          40      40     13                  363      363      70
     Sum         199     199     61                 1807     1807     339



     bravais-lattice index     =            2
     lattice parameter (alat)  =       6.8300  a.u.
     unit-cell volume          =      79.6530 (a.u.)^3
     number of atoms/cell      =            1
     number of atomic types    =            1
     number of electrons       =        19.00
     number of Kohn-Sham states=           14
     kinetic-energy cutoff     =      30.0000  Ry
     charge density cutoff     =     120.0000  Ry
     convergence threshold     =      1.0E-08
     mixing beta               =       0.7000
     number of iterations used =            8  plain     mixing
     Exchange-correlation      = SLA PZ NOGX NOGC ( 1  1  0  0 0 0)

     celldm(1)=   6.830000  celldm(2)=   0.000000  celldm(3)=   0.000000
     celldm(4)=   0.000000  celldm(5)=   0.000000  celldm(6)=   0.000000

     crystal axes: (cart. coord. in units of alat)
               a(1) = (  -0.500000   0.000000   0.500000 )  
               a(2) = (   0.000000   0.500000   0.500000 )  
               a(3) = (  -0.500000   0.500000   0.000000 )  

     reciprocal axes: (cart. coord. in units 2 pi/alat)
               b(1) = ( -1.000000 -1.000000  1.000000 )  
               b(2) = (  1.000000  1.000000  1.000000 )  
               b(3) = ( -1.000000  1.000000 -1.000000 )  


     PseudoPot. # 1 for Fr read from file:
     /home/lorenzo/pseudos/Fr/Fr.pz-spdn-kjpaw_psl.1.0.0.UPF
     MD5 check sum: 60dafd115682613df3cc92ec23a62a32
     Pseudo is Projector augmented-wave + core cor, Zval = 19.0
     Generated using "atomic" code by A. Dal Corso v.6.2.2
     Shape of augmentation charge: PSQ
     Using radial grid of 1287 points,  6 beta functions with: 
                l(1) =   0
                l(2) =   0
                l(3) =   1
                l(4) =   1
                l(5) =   2
                l(6) =   2
     Q(r) pseudized with 0 coefficients 


     atomic species   valence    mass     pseudopotential
        Fr            19.00   223.00000     Fr( 1.00)

     48 Sym. Ops., with inversion, found



   Cartesian axes

     site n.     atom                  positions (alat units)
         1           Fr  tau(   1) = (   0.0000000   0.0000000   0.0000000  )

     number of k points=     8  gaussian smearing, width (Ry)=  0.0100
                       cart. coord. in units 2pi/alat
        k(    1) = (   0.0000000   0.0000000   0.0000000), wk =   0.0312500
        k(    2) = (  -0.2500000   0.2500000  -0.2500000), wk =   0.2500000
        k(    3) = (   0.5000000  -0.5000000   0.5000000), wk =   0.1250000
        k(    4) = (   0.0000000   0.5000000   0.0000000), wk =   0.1875000
        k(    5) = (   0.7500000  -0.2500000   0.7500000), wk =   0.7500000
        k(    6) = (   0.5000000   0.0000000   0.5000000), wk =   0.3750000
        k(    7) = (   0.0000000  -1.0000000   0.0000000), wk =   0.0937500
        k(    8) = (  -0.5000000  -1.0000000   0.0000000), wk =   0.1875000

     Dense  grid:     1807 G-vectors     FFT dimensions: (  18,  18,  18)

     Estimated max dynamical RAM per process >       2.41 MB

     Estimated total dynamical RAM >      12.03 MB

     Check: negative/imaginary core charge=   -0.000065    0.000000

     Initial potential from superposition of free atoms

     starting charge   18.97647, renormalised to   19.00000
     Starting wfcs are   10 randomized atomic wfcs +    4 random wfcs
     Checking if some PAW data can be deallocated... 

     total cpu time spent up to now is        1.1 secs

     Self-consistent Calculation

     iteration #  1     ecut=    30.00 Ry     beta= 0.70
     Davidson diagonalization with overlap
     ethr =  1.00E-02,  avg # of iterations =  4.9

     total cpu time spent up to now is        1.2 secs

     total energy              =   -1043.46095945 Ry
     Harris-Foulkes estimate   =   -1043.63818144 Ry
     estimated scf accuracy    <       0.20774919 Ry

     iteration #  2     ecut=    30.00 Ry     beta= 0.70
     Davidson diagonalization with overlap
     ethr =  1.09E-03,  avg # of iterations =  2.0

     total cpu time spent up to now is        1.3 secs

     total energy              =   -1043.51350413 Ry
     Harris-Foulkes estimate   =   -1043.51753807 Ry
     estimated scf accuracy    <       0.01009236 Ry

     iteration #  3     ecut=    30.00 Ry     beta= 0.70
     Davidson diagonalization with overlap
     ethr =  5.31E-05,  avg # of iterations =  2.2

     total cpu time spent up to now is        1.4 secs

     total energy              =   -1043.51445337 Ry
     Harris-Foulkes estimate   =   -1043.51454248 Ry
     estimated scf accuracy    <       0.00042632 Ry

     iteration #  4     ecut=    30.00 Ry     beta= 0.70
     Davidson diagonalization with overlap
     ethr =  2.24E-06,  avg # of iterations =  2.2

     total cpu time spent up to now is        1.5 secs

     total energy              =   -1043.51447563 Ry
     Harris-Foulkes estimate   =   -1043.51447536 Ry
     estimated scf accuracy    <       0.00000178 Ry

     iteration #  5     ecut=    30.00 Ry     beta= 0.70
     Davidson diagonalization with overlap
     ethr =  9.39E-09,  avg # of iterations =  2.5

     total cpu time spent up to now is        1.6 secs

     total energy              =   -1043.51447608 Ry
     Harris-Foulkes estimate   =   -1043.51447613 Ry
     estimated scf accuracy    <       0.00000008 Ry

     iteration #  6     ecut=    30.00 Ry     beta= 0.70
     Davidson diagonalization with overlap
     ethr =  4.41E-10,  avg # of iterations =  2.0

     total cpu time spent up to now is        1.7 secs

     End of self-consistent calculation

          k = 0.0000 0.0000 0.0000 (   229 PWs)   bands (ev):

    -9.4053  -9.4053  -9.4053  -9.1567  -9.1567   8.9382  46.5239  46.5239
    46.5239  48.3582  55.3492  55.3492  55.3492  57.2027

          k =-0.2500 0.2500-0.2500 (   217 PWs)   bands (ev):

    -9.3271  -9.2513  -9.2513  -8.7107  -8.7107  11.4249  33.4831  44.2654
    44.2654  48.4189  53.3865  54.9321  54.9321  59.5183

          k = 0.5000-0.5000 0.5000 (   228 PWs)   bands (ev):

    -9.8411  -9.5693  -9.5693  -9.2808  -9.2808  16.8654  22.9728  42.3767
    42.3767  48.0350  51.5746  52.9308  52.9308  65.1449

          k = 0.0000 0.5000 0.0000 (   218 PWs)   bands (ev):

    -9.6541  -9.4834  -9.0385  -9.0385  -8.5757  12.2498  37.3209  39.1455
    39.1455  45.5651  46.2552  62.0058  62.0058  63.4300

          k = 0.7500-0.2500 0.7500 (   223 PWs)   bands (ev):

    -9.8256  -9.4355  -9.2832  -9.1869  -8.8630  17.4811  26.7417  33.6066
    37.9341  44.8535  53.8122  59.1800  59.3467  64.1562

          k = 0.5000 0.0000 0.5000 (   218 PWs)   bands (ev):

    -9.2670  -9.1917  -9.1267  -9.0357  -9.0029  15.3737  29.9729  32.1508
    42.1125  47.2075  55.2691  57.3420  57.8975  59.4486

          k = 0.0000-1.0000 0.0000 (   222 PWs)   bands (ev):

   -10.0987  -9.5083  -9.2495  -9.2495  -8.6117  20.2674  24.6106  35.0928
    35.0928  43.1400  44.0963  64.3142  70.1172  70.8893

          k =-0.5000-1.0000 0.0000 (   224 PWs)   bands (ev):

    -9.5678  -9.4508  -9.4508  -9.1847  -9.1549  20.5017  28.4325  28.4325
    32.0763  53.2280  54.0245  54.0245  56.6852  69.9872

     the Fermi energy is    45.6581 ev

!    total energy              =   -1043.51447609 Ry
     Harris-Foulkes estimate   =   -1043.51447609 Ry
     estimated scf accuracy    <          1.3E-09 Ry

     total all-electron energy =    -48488.967449 Ry

     The total energy is the sum of the following terms:

     one-electron contribution =       3.72248726 Ry
     hartree contribution      =      26.73128036 Ry
     xc contribution           =     -63.35032393 Ry
     ewald contribution        =    -242.33311990 Ry
     one-center paw contrib.   =    -768.28446863 Ry
     smearing contrib. (-TS)   =      -0.00033126 Ry

     convergence has been achieved in   6 iterations

     Forces acting on atoms (cartesian axes, Ry/au):

     atom    1 type  1   force =     0.00000000    0.00000000    0.00000000

     Total force =     0.000000     Total SCF correction =     0.000000


     Computing stress (Cartesian axis) and pressure

          total   stress  (Ry/bohr**3)                   (kbar)     P=-5580.23
  -0.03793364   0.00000000   0.00000000      -5580.23      0.00      0.00
   0.00000000  -0.03793364  -0.00000000          0.00  -5580.23     -0.00
   0.00000000  -0.00000000  -0.03793364          0.00     -0.00  -5580.23


     Writing output data file Fr.save/

     init_run     :      0.17s CPU      0.17s WALL (       1 calls)
     electrons    :      0.57s CPU      0.62s WALL (       1 calls)
     forces       :      0.01s CPU      0.01s WALL (       1 calls)
     stress       :      0.03s CPU      0.03s WALL (       1 calls)

     Called by init_run:
     wfcinit      :      0.01s CPU      0.01s WALL (       1 calls)
     potinit      :      0.05s CPU      0.05s WALL (       1 calls)
     hinit0       :      0.10s CPU      0.10s WALL (       1 calls)

     Called by electrons:
     c_bands      :      0.25s CPU      0.28s WALL (       6 calls)
     sum_band     :      0.05s CPU      0.05s WALL (       6 calls)
     v_of_rho     :      0.00s CPU      0.00s WALL (       7 calls)
     newd         :      0.01s CPU      0.01s WALL (       7 calls)
     PAW_pot      :      0.30s CPU      0.30s WALL (       7 calls)
     mix_rho      :      0.00s CPU      0.00s WALL (       6 calls)

     Called by c_bands:
     init_us_2    :      0.00s CPU      0.01s WALL (     120 calls)
     cegterg      :      0.24s CPU      0.27s WALL (      48 calls)

     Called by sum_band:
     sum_band:bec :      0.00s CPU      0.00s WALL (      48 calls)
     addusdens    :      0.01s CPU      0.01s WALL (       6 calls)

     Called by *egterg:
     h_psi        :      0.14s CPU      0.16s WALL (     183 calls)
     s_psi        :      0.00s CPU      0.00s WALL (     183 calls)
     g_psi        :      0.00s CPU      0.00s WALL (     127 calls)
     cdiaghg      :      0.08s CPU      0.08s WALL (     175 calls)

     Called by h_psi:
     h_psi:pot    :      0.14s CPU      0.16s WALL (     183 calls)
     h_psi:calbec :      0.01s CPU      0.01s WALL (     183 calls)
     vloc_psi     :      0.13s CPU      0.15s WALL (     183 calls)
     add_vuspsi   :      0.00s CPU      0.00s WALL (     183 calls)

     General routines
     calbec       :      0.01s CPU      0.01s WALL (     271 calls)
     fft          :      0.00s CPU      0.00s WALL (      37 calls)
     ffts         :      0.00s CPU      0.00s WALL (       6 calls)
     fftw         :      0.14s CPU      0.16s WALL (    4330 calls)

     Parallel routines
     fft_scatt_xy :      0.01s CPU      0.02s WALL (    4373 calls)
     fft_scatt_yz :      0.05s CPU      0.05s WALL (    4373 calls)

     PWSCF        :     1.69s CPU         1.79s WALL


   This run was terminated on:  22:27:47   7Apr2024            

=------------------------------------------------------------------------------=
   JOB DONE.
=------------------------------------------------------------------------------=
