
     Program PWSCF v.6.3MaX starts on  7Apr2024 at 22:34: 8 

     This program is part of the open-source Quantum ESPRESSO suite
     for quantum simulation of materials; please cite
         "P. Giannozzi et al., J. Phys.:Condens. Matter 21 395502 (2009);
         "P. Giannozzi et al., J. Phys.:Condens. Matter 29 465901 (2017);
          URL http://www.quantum-espresso.org", 
     in publications or presentations arising from this work. More details at
     http://www.quantum-espresso.org/quote

     Parallel version (MPI), running on     5 processors

     MPI processes distributed on     1 nodes
     R & G space division:  proc/nbgrp/npool/nimage =       5
     Waiting for input...
     Reading input from standard input

     Current dimensions of program PWSCF are:
     Max number of different atomic species (ntypx) = 10
     Max number of k-points (npk) =  40000
     Max angular momentum in pseudopotentials (lmaxx) =  3
               file Fr.pz-spdn-kjpaw_psl.1.0.0.UPF: wavefunction(s)  6P renormalized

     Subspace diagonalization in iterative solution of the eigenvalue problem:
     a serial algorithm will be used


     Parallelization info
     --------------------
     sticks:   dense  smooth     PW     G-vecs:    dense   smooth      PW
     Min          59      59     18                  657      657     121
     Max          59      59     19                  658      658     123
     Sum         295     295     91                 3287     3287     609



     bravais-lattice index     =            2
     lattice parameter (alat)  =       6.8300  a.u.
     unit-cell volume          =      79.6530 (a.u.)^3
     number of atoms/cell      =            1
     number of atomic types    =            1
     number of electrons       =        19.00
     number of Kohn-Sham states=           14
     kinetic-energy cutoff     =      45.0000  Ry
     charge density cutoff     =     180.0000  Ry
     convergence threshold     =      1.0E-08
     mixing beta               =       0.7000
     number of iterations used =            8  plain     mixing
     Exchange-correlation      = SLA PZ NOGX NOGC ( 1  1  0  0 0 0)

     celldm(1)=   6.830000  celldm(2)=   0.000000  celldm(3)=   0.000000
     celldm(4)=   0.000000  celldm(5)=   0.000000  celldm(6)=   0.000000

     crystal axes: (cart. coord. in units of alat)
               a(1) = (  -0.500000   0.000000   0.500000 )  
               a(2) = (   0.000000   0.500000   0.500000 )  
               a(3) = (  -0.500000   0.500000   0.000000 )  

     reciprocal axes: (cart. coord. in units 2 pi/alat)
               b(1) = ( -1.000000 -1.000000  1.000000 )  
               b(2) = (  1.000000  1.000000  1.000000 )  
               b(3) = ( -1.000000  1.000000 -1.000000 )  


     PseudoPot. # 1 for Fr read from file:
     /home/lorenzo/pseudos/Fr/Fr.pz-spdn-kjpaw_psl.1.0.0.UPF
     MD5 check sum: 60dafd115682613df3cc92ec23a62a32
     Pseudo is Projector augmented-wave + core cor, Zval = 19.0
     Generated using "atomic" code by A. Dal Corso v.6.2.2
     Shape of augmentation charge: PSQ
     Using radial grid of 1287 points,  6 beta functions with: 
                l(1) =   0
                l(2) =   0
                l(3) =   1
                l(4) =   1
                l(5) =   2
                l(6) =   2
     Q(r) pseudized with 0 coefficients 


     atomic species   valence    mass     pseudopotential
        Fr            19.00   223.00000     Fr( 1.00)

     48 Sym. Ops., with inversion, found



   Cartesian axes

     site n.     atom                  positions (alat units)
         1           Fr  tau(   1) = (   0.0000000   0.0000000   0.0000000  )

     number of k points=     3  gaussian smearing, width (Ry)=  0.0100
                       cart. coord. in units 2pi/alat
        k(    1) = (   0.0000000   0.0000000   0.0000000), wk =   0.2500000
        k(    2) = (   0.5000000  -0.5000000   0.5000000), wk =   1.0000000
        k(    3) = (   0.0000000  -1.0000000   0.0000000), wk =   0.7500000

     Dense  grid:     3287 G-vectors     FFT dimensions: (  24,  24,  24)

     Estimated max dynamical RAM per process >       3.75 MB

     Estimated total dynamical RAM >      18.74 MB

     Check: negative/imaginary core charge=   -0.000013    0.000000

     Initial potential from superposition of free atoms

     starting charge   18.97647, renormalised to   19.00000
     Starting wfcs are   10 randomized atomic wfcs +    4 random wfcs
     Checking if some PAW data can be deallocated... 

     total cpu time spent up to now is        1.2 secs

     Self-consistent Calculation

     iteration #  1     ecut=    45.00 Ry     beta= 0.70
     Davidson diagonalization with overlap
     ethr =  1.00E-02,  avg # of iterations =  5.7

     Threshold (ethr) on eigenvalues was too large:
     Diagonalizing with lowered threshold

     Davidson diagonalization with overlap
     ethr =  5.23E-05,  avg # of iterations =  2.0

     total cpu time spent up to now is        1.3 secs

     total energy              =   -1044.85504043 Ry
     Harris-Foulkes estimate   =   -1044.86185529 Ry
     estimated scf accuracy    <       0.01010362 Ry

     iteration #  2     ecut=    45.00 Ry     beta= 0.70
     Davidson diagonalization with overlap
     ethr =  5.32E-05,  avg # of iterations =  2.3

     total cpu time spent up to now is        1.4 secs

     total energy              =   -1044.85699178 Ry
     Harris-Foulkes estimate   =   -1044.85711704 Ry
     estimated scf accuracy    <       0.00049305 Ry

     iteration #  3     ecut=    45.00 Ry     beta= 0.70
     Davidson diagonalization with overlap
     ethr =  2.59E-06,  avg # of iterations =  2.3

     total cpu time spent up to now is        1.5 secs

     total energy              =   -1044.85705318 Ry
     Harris-Foulkes estimate   =   -1044.85704595 Ry
     estimated scf accuracy    <       0.00002171 Ry

     iteration #  4     ecut=    45.00 Ry     beta= 0.70
     Davidson diagonalization with overlap
     ethr =  1.14E-07,  avg # of iterations =  2.3

     total cpu time spent up to now is        1.5 secs

     total energy              =   -1044.85705714 Ry
     Harris-Foulkes estimate   =   -1044.85705677 Ry
     estimated scf accuracy    <       0.00000044 Ry

     iteration #  5     ecut=    45.00 Ry     beta= 0.70
     Davidson diagonalization with overlap
     ethr =  2.33E-09,  avg # of iterations =  2.0

     total cpu time spent up to now is        1.6 secs

     End of self-consistent calculation

          k = 0.0000 0.0000 0.0000 (   411 PWs)   bands (ev):

    -9.2777  -9.2777  -9.2777  -8.9438  -8.9438   9.1366  46.9162  46.9162
    46.9162  48.0776  53.8712  53.8712  53.8712  57.4657

          k = 0.5000-0.5000 0.5000 (   410 PWs)   bands (ev):

    -9.2582  -9.2253  -9.2253  -8.6542  -8.6542  17.2015  22.9995  42.6881
    42.6881  47.8001  51.0914  51.7316  51.7316  65.1714

          k = 0.0000-1.0000 0.0000 (   412 PWs)   bands (ev):

    -9.6084  -9.3341  -8.6353  -8.5777  -8.5777  20.7092  24.6554  35.2587
    35.2587  42.5010  43.0384  64.1188  70.0454  70.9855

     the Fermi energy is    46.8748 ev

!    total energy              =   -1044.85705719 Ry
     Harris-Foulkes estimate   =   -1044.85705719 Ry
     estimated scf accuracy    <          2.5E-09 Ry

     total all-electron energy =    -48490.310030 Ry

     The total energy is the sum of the following terms:

     one-electron contribution =       1.73103374 Ry
     hartree contribution      =      28.39474416 Ry
     xc contribution           =     -63.92074589 Ry
     ewald contribution        =    -242.33311996 Ry
     one-center paw contrib.   =    -768.72704095 Ry
     smearing contrib. (-TS)   =      -0.00192828 Ry

     convergence has been achieved in   5 iterations

     Forces acting on atoms (cartesian axes, Ry/au):

     atom    1 type  1   force =     0.00000000    0.00000000    0.00000000

     Total force =     0.000000     Total SCF correction =     0.000000


     Computing stress (Cartesian axis) and pressure

          total   stress  (Ry/bohr**3)                   (kbar)     P= 7160.13
   0.04867358   0.00000000   0.00000000       7160.13      0.00      0.00
   0.00000000   0.04867358  -0.00000000          0.00   7160.13     -0.00
   0.00000000  -0.00000000   0.04867358          0.00     -0.00   7160.13


     Writing output data file Fr.save/

     init_run     :      0.19s CPU      0.20s WALL (       1 calls)
     electrons    :      0.45s CPU      0.48s WALL (       1 calls)
     forces       :      0.01s CPU      0.01s WALL (       1 calls)
     stress       :      0.03s CPU      0.03s WALL (       1 calls)

     Called by init_run:
     wfcinit      :      0.01s CPU      0.01s WALL (       1 calls)
     potinit      :      0.05s CPU      0.05s WALL (       1 calls)
     hinit0       :      0.13s CPU      0.13s WALL (       1 calls)

     Called by electrons:
     c_bands      :      0.15s CPU      0.16s WALL (       6 calls)
     sum_band     :      0.04s CPU      0.05s WALL (       6 calls)
     v_of_rho     :      0.00s CPU      0.00s WALL (       6 calls)
     newd         :      0.02s CPU      0.02s WALL (       6 calls)
     PAW_pot      :      0.28s CPU      0.28s WALL (       6 calls)
     mix_rho      :      0.00s CPU      0.00s WALL (       6 calls)

     Called by c_bands:
     init_us_2    :      0.00s CPU      0.00s WALL (      45 calls)
     cegterg      :      0.15s CPU      0.16s WALL (      18 calls)

     Called by sum_band:
     sum_band:bec :      0.00s CPU      0.00s WALL (      18 calls)
     addusdens    :      0.02s CPU      0.02s WALL (       6 calls)

     Called by *egterg:
     h_psi        :      0.10s CPU      0.10s WALL (      71 calls)
     s_psi        :      0.00s CPU      0.00s WALL (      71 calls)
     g_psi        :      0.00s CPU      0.00s WALL (      50 calls)
     cdiaghg      :      0.03s CPU      0.04s WALL (      65 calls)

     Called by h_psi:
     h_psi:pot    :      0.10s CPU      0.10s WALL (      71 calls)
     h_psi:calbec :      0.00s CPU      0.00s WALL (      71 calls)
     vloc_psi     :      0.09s CPU      0.09s WALL (      71 calls)
     add_vuspsi   :      0.00s CPU      0.00s WALL (      71 calls)

     General routines
     calbec       :      0.01s CPU      0.01s WALL (     104 calls)
     fft          :      0.01s CPU      0.01s WALL (      34 calls)
     ffts         :      0.00s CPU      0.00s WALL (       6 calls)
     fftw         :      0.10s CPU      0.10s WALL (    1612 calls)

     Parallel routines
     fft_scatt_xy :      0.01s CPU      0.01s WALL (    1652 calls)
     fft_scatt_yz :      0.03s CPU      0.03s WALL (    1652 calls)

     PWSCF        :     1.66s CPU         1.73s WALL


   This run was terminated on:  22:34:10   7Apr2024            

=------------------------------------------------------------------------------=
   JOB DONE.
=------------------------------------------------------------------------------=
