
     Program PWSCF v.6.3MaX starts on  7Apr2024 at 22:51: 2 

     This program is part of the open-source Quantum ESPRESSO suite
     for quantum simulation of materials; please cite
         "P. Giannozzi et al., J. Phys.:Condens. Matter 21 395502 (2009);
         "P. Giannozzi et al., J. Phys.:Condens. Matter 29 465901 (2017);
          URL http://www.quantum-espresso.org", 
     in publications or presentations arising from this work. More details at
     http://www.quantum-espresso.org/quote

     Parallel version (MPI), running on     5 processors

     MPI processes distributed on     1 nodes
     R & G space division:  proc/nbgrp/npool/nimage =       5
     Waiting for input...
     Reading input from standard input

     Current dimensions of program PWSCF are:
     Max number of different atomic species (ntypx) = 10
     Max number of k-points (npk) =  40000
     Max angular momentum in pseudopotentials (lmaxx) =  3

     Subspace diagonalization in iterative solution of the eigenvalue problem:
     a serial algorithm will be used


     Parallelization info
     --------------------
     sticks:   dense  smooth     PW     G-vecs:    dense   smooth      PW
     Min          95      95     30                 1375     1375     248
     Max          95      95     31                 1376     1376     251
     Sum         475     475    151                 6879     6879    1243



     bravais-lattice index     =            2
     lattice parameter (alat)  =       6.8300  a.u.
     unit-cell volume          =      79.6530 (a.u.)^3
     number of atoms/cell      =            1
     number of atomic types    =            1
     number of electrons       =        19.00
     number of Kohn-Sham states=           14
     kinetic-energy cutoff     =      75.0000  Ry
     charge density cutoff     =     300.0000  Ry
     convergence threshold     =      1.0E-08
     mixing beta               =       0.7000
     number of iterations used =            8  plain     mixing
     Exchange-correlation      = PBE ( 1  4  3  4 0 0)

     celldm(1)=   6.830000  celldm(2)=   0.000000  celldm(3)=   0.000000
     celldm(4)=   0.000000  celldm(5)=   0.000000  celldm(6)=   0.000000

     crystal axes: (cart. coord. in units of alat)
               a(1) = (  -0.500000   0.000000   0.500000 )  
               a(2) = (   0.000000   0.500000   0.500000 )  
               a(3) = (  -0.500000   0.500000   0.000000 )  

     reciprocal axes: (cart. coord. in units 2 pi/alat)
               b(1) = ( -1.000000 -1.000000  1.000000 )  
               b(2) = (  1.000000  1.000000  1.000000 )  
               b(3) = ( -1.000000  1.000000 -1.000000 )  


     PseudoPot. # 1 for Fr read from file:
     /home/lorenzo/pseudos/Fr/Fr.pbe-spdn-rrkjus_psl.1.0.0.UPF
     MD5 check sum: 07cabfa18982bd6b5b9d8ae5689d9732
     Pseudo is Ultrasoft + core correction, Zval = 19.0
     Generated using "atomic" code by A. Dal Corso v.6.2.2
     Using radial grid of 1287 points,  6 beta functions with: 
                l(1) =   0
                l(2) =   0
                l(3) =   1
                l(4) =   1
                l(5) =   2
                l(6) =   2
     Q(r) pseudized with 0 coefficients 


     atomic species   valence    mass     pseudopotential
        Fr            19.00   223.00000     Fr( 1.00)

     48 Sym. Ops., with inversion, found



   Cartesian axes

     site n.     atom                  positions (alat units)
         1           Fr  tau(   1) = (   0.0000000   0.0000000   0.0000000  )

     number of k points=    10  gaussian smearing, width (Ry)=  0.0100
                       cart. coord. in units 2pi/alat
        k(    1) = (   0.0000000   0.0000000   0.0000000), wk =   0.0160000
        k(    2) = (  -0.2000000   0.2000000  -0.2000000), wk =   0.1280000
        k(    3) = (  -0.4000000   0.4000000  -0.4000000), wk =   0.1280000
        k(    4) = (   0.0000000   0.4000000   0.0000000), wk =   0.0960000
        k(    5) = (  -0.2000000   0.6000000  -0.2000000), wk =   0.3840000
        k(    6) = (   0.6000000  -0.2000000   0.6000000), wk =   0.3840000
        k(    7) = (   0.4000000   0.0000000   0.4000000), wk =   0.1920000
        k(    8) = (   0.0000000   0.8000000   0.0000000), wk =   0.0960000
        k(    9) = (   0.8000000   0.0000000   0.8000000), wk =   0.1920000
        k(   10) = (   0.6000000  -0.2000000   1.0000000), wk =   0.3840000

     Dense  grid:     6879 G-vectors     FFT dimensions: (  27,  27,  27)

     Estimated max dynamical RAM per process >       7.06 MB

     Estimated total dynamical RAM >      35.30 MB

     Initial potential from superposition of free atoms

     starting charge   18.97009, renormalised to   19.00000
     Starting wfcs are   10 randomized atomic wfcs +    4 random wfcs

     total cpu time spent up to now is        1.2 secs

     Self-consistent Calculation

     iteration #  1     ecut=    75.00 Ry     beta= 0.70
     Davidson diagonalization with overlap
     ethr =  1.00E-02,  avg # of iterations =  4.6

     Threshold (ethr) on eigenvalues was too large:
     Diagonalizing with lowered threshold

     Davidson diagonalization with overlap
     ethr =  1.15E-04,  avg # of iterations =  1.7

     total cpu time spent up to now is        1.5 secs

     total energy              =    -282.86985252 Ry
     Harris-Foulkes estimate   =    -282.88309356 Ry
     estimated scf accuracy    <       0.02150447 Ry

     iteration #  2     ecut=    75.00 Ry     beta= 0.70
     Davidson diagonalization with overlap
     ethr =  1.13E-04,  avg # of iterations =  2.0

     total cpu time spent up to now is        1.7 secs

     total energy              =    -282.87405746 Ry
     Harris-Foulkes estimate   =    -282.87502297 Ry
     estimated scf accuracy    <       0.00135782 Ry

     iteration #  3     ecut=    75.00 Ry     beta= 0.70
     Davidson diagonalization with overlap
     ethr =  7.15E-06,  avg # of iterations =  2.1

     total cpu time spent up to now is        1.8 secs

     total energy              =    -282.87434947 Ry
     Harris-Foulkes estimate   =    -282.87436189 Ry
     estimated scf accuracy    <       0.00003326 Ry

     iteration #  4     ecut=    75.00 Ry     beta= 0.70
     Davidson diagonalization with overlap
     ethr =  1.75E-07,  avg # of iterations =  2.0

     total cpu time spent up to now is        2.0 secs

     total energy              =    -282.87435313 Ry
     Harris-Foulkes estimate   =    -282.87435316 Ry
     estimated scf accuracy    <       0.00000048 Ry

     iteration #  5     ecut=    75.00 Ry     beta= 0.70
     Davidson diagonalization with overlap
     ethr =  2.53E-09,  avg # of iterations =  2.0

     total cpu time spent up to now is        2.1 secs

     total energy              =    -282.87435322 Ry
     Harris-Foulkes estimate   =    -282.87435323 Ry
     estimated scf accuracy    <       0.00000003 Ry

     iteration #  6     ecut=    75.00 Ry     beta= 0.70
     Davidson diagonalization with overlap
     ethr =  1.42E-10,  avg # of iterations =  2.0

     total cpu time spent up to now is        2.3 secs

     End of self-consistent calculation

          k = 0.0000 0.0000 0.0000 (   893 PWs)   bands (ev):

    -9.2515  -9.2515  -9.2515  -8.9112  -8.9112   9.4816  47.2924  47.2924
    47.2924  48.3286  53.8768  53.8768  53.8768  57.7913

          k =-0.2000 0.2000-0.2000 (   887 PWs)   bands (ev):

    -9.2386  -9.1681  -9.1681  -8.8789  -8.8789  11.0882  36.8659  45.4514
    45.4514  48.2350  54.3927  55.0607  55.0607  57.2700

          k =-0.4000 0.4000-0.4000 (   869 PWs)   bands (ev):

    -9.2360  -9.1873  -9.1873  -8.6630  -8.6630  15.6944  25.9734  43.3622
    43.3622  48.1145  51.5782  52.1292  52.1292  63.6449

          k = 0.0000 0.4000 0.0000 (   869 PWs)   bands (ev):

    -9.3645  -9.0334  -9.0179  -9.0179  -8.8137  11.6229  40.9662  41.1426
    41.1426  45.4189  47.7249  60.2435  60.4367  60.4367

          k =-0.2000 0.6000-0.2000 (   876 PWs)   bands (ev):

    -9.3495  -9.1150  -8.9678  -8.8378  -8.6386  15.2925  30.2179  37.8322
    39.1933  44.9153  51.6404  58.2420  58.6521  60.6089

          k = 0.6000-0.2000 0.6000 (   857 PWs)   bands (ev):

    -9.2620  -9.0741  -9.0094  -8.7624  -8.6743  18.4610  25.1883  34.5933
    40.6479  45.5754  55.7092  55.7126  60.8523  62.5067

          k = 0.4000 0.0000 0.4000 (   871 PWs)   bands (ev):

    -9.1896  -9.1631  -9.0002  -8.9588  -8.7298  13.7348  33.2546  35.1781
    45.0862  48.6496  52.7510  54.9903  55.4826  58.0326

          k = 0.0000 0.8000 0.0000 (   882 PWs)   bands (ev):

    -9.5465  -9.2628  -8.6551  -8.6251  -8.6251  17.9112  29.0075  36.2344
    36.2344  43.0960  43.3617  64.4772  67.9624  67.9624

          k = 0.8000 0.0000 0.8000 (   870 PWs)   bands (ev):

    -9.4371  -9.1839  -8.7113  -8.6953  -8.6172  21.1292  26.2010  30.3431
    36.8043  43.4607  50.2896  61.5710  64.5298  66.5307

          k = 0.6000-0.2000 1.0000 (   878 PWs)   bands (ev):

    -9.2272  -9.1619  -8.9473  -8.7387  -8.6304  19.3866  28.5618  30.7734
    34.6222  50.7623  51.0699  54.7215  61.9063  65.9551

     the Fermi energy is    45.5859 ev

!    total energy              =    -282.87435322 Ry
     Harris-Foulkes estimate   =    -282.87435323 Ry
     estimated scf accuracy    <          3.7E-10 Ry

     The total energy is the sum of the following terms:

     one-electron contribution =      -4.14684600 Ry
     hartree contribution      =      28.20210277 Ry
     xc contribution           =     -64.59508148 Ry
     ewald contribution        =    -242.33311988 Ry
     smearing contrib. (-TS)   =      -0.00140864 Ry

     convergence has been achieved in   6 iterations

     Forces acting on atoms (cartesian axes, Ry/au):

     atom    1 type  1   force =     0.00000000    0.00000000    0.00000000

     Total force =     0.000000     Total SCF correction =     0.000000


     Computing stress (Cartesian axis) and pressure

          total   stress  (Ry/bohr**3)                   (kbar)     P= 7216.11
   0.04905415   0.00000000   0.00000000       7216.11      0.00      0.00
   0.00000000   0.04905415   0.00000000          0.00   7216.11      0.00
  -0.00000000   0.00000000   0.04905415         -0.00      0.00   7216.11


     Writing output data file Fr.save/

     init_run     :      0.25s CPU      0.26s WALL (       1 calls)
     electrons    :      1.12s CPU      1.17s WALL (       1 calls)
     forces       :      0.03s CPU      0.03s WALL (       1 calls)
     stress       :      0.09s CPU      0.09s WALL (       1 calls)

     Called by init_run:
     wfcinit      :      0.05s CPU      0.06s WALL (       1 calls)
     potinit      :      0.01s CPU      0.01s WALL (       1 calls)
     hinit0       :      0.18s CPU      0.18s WALL (       1 calls)

     Called by electrons:
     c_bands      :      0.86s CPU      0.89s WALL (       7 calls)
     sum_band     :      0.19s CPU      0.20s WALL (       7 calls)
     v_of_rho     :      0.03s CPU      0.03s WALL (       7 calls)
     newd         :      0.05s CPU      0.05s WALL (       7 calls)
     mix_rho      :      0.00s CPU      0.00s WALL (       7 calls)

     Called by c_bands:
     init_us_2    :      0.02s CPU      0.02s WALL (     170 calls)
     cegterg      :      0.83s CPU      0.86s WALL (      70 calls)

     Called by sum_band:
     sum_band:bec :      0.00s CPU      0.00s WALL (      70 calls)
     addusdens    :      0.05s CPU      0.05s WALL (       7 calls)

     Called by *egterg:
     h_psi        :      0.62s CPU      0.65s WALL (     244 calls)
     s_psi        :      0.02s CPU      0.02s WALL (     244 calls)
     g_psi        :      0.00s CPU      0.00s WALL (     164 calls)
     cdiaghg      :      0.10s CPU      0.10s WALL (     224 calls)

     Called by h_psi:
     h_psi:pot    :      0.62s CPU      0.65s WALL (     244 calls)
     h_psi:calbec :      0.04s CPU      0.04s WALL (     244 calls)
     vloc_psi     :      0.56s CPU      0.59s WALL (     244 calls)
     add_vuspsi   :      0.02s CPU      0.02s WALL (     244 calls)

     General routines
     calbec       :      0.05s CPU      0.05s WALL (     364 calls)
     fft          :      0.02s CPU      0.02s WALL (     104 calls)
     ffts         :      0.00s CPU      0.00s WALL (       7 calls)
     fftw         :      0.64s CPU      0.67s WALL (    6106 calls)

     Parallel routines
     fft_scatt_xy :      0.05s CPU      0.05s WALL (    6217 calls)
     fft_scatt_yz :      0.20s CPU      0.21s WALL (    6217 calls)

     PWSCF        :     2.41s CPU         2.50s WALL


   This run was terminated on:  22:51: 5   7Apr2024            

=------------------------------------------------------------------------------=
   JOB DONE.
=------------------------------------------------------------------------------=
