
     Program PWSCF v.6.3MaX starts on  7Apr2024 at 23: 0:34 

     This program is part of the open-source Quantum ESPRESSO suite
     for quantum simulation of materials; please cite
         "P. Giannozzi et al., J. Phys.:Condens. Matter 21 395502 (2009);
         "P. Giannozzi et al., J. Phys.:Condens. Matter 29 465901 (2017);
          URL http://www.quantum-espresso.org", 
     in publications or presentations arising from this work. More details at
     http://www.quantum-espresso.org/quote

     Parallel version (MPI), running on     5 processors

     MPI processes distributed on     1 nodes
     R & G space division:  proc/nbgrp/npool/nimage =       5
     Waiting for input...
     Reading input from standard input

     Current dimensions of program PWSCF are:
     Max number of different atomic species (ntypx) = 10
     Max number of k-points (npk) =  40000
     Max angular momentum in pseudopotentials (lmaxx) =  3
               file Fr.pz-spdn-kjpaw_psl.1.0.0.UPF: wavefunction(s)  6P renormalized

     Subspace diagonalization in iterative solution of the eigenvalue problem:
     a serial algorithm will be used


     Parallelization info
     --------------------
     sticks:   dense  smooth     PW     G-vecs:    dense   smooth      PW
     Min         116     116     32                 1850     1850     290
     Max         117     117     33                 1853     1853     293
     Sum         583     583    163                 9257     9257    1459



     bravais-lattice index     =            2
     lattice parameter (alat)  =       6.8300  a.u.
     unit-cell volume          =      79.6530 (a.u.)^3
     number of atoms/cell      =            1
     number of atomic types    =            1
     number of electrons       =        19.00
     number of Kohn-Sham states=           14
     kinetic-energy cutoff     =      90.0000  Ry
     charge density cutoff     =     360.0000  Ry
     convergence threshold     =      1.0E-08
     mixing beta               =       0.7000
     number of iterations used =            8  plain     mixing
     Exchange-correlation      = SLA PZ NOGX NOGC ( 1  1  0  0 0 0)

     celldm(1)=   6.830000  celldm(2)=   0.000000  celldm(3)=   0.000000
     celldm(4)=   0.000000  celldm(5)=   0.000000  celldm(6)=   0.000000

     crystal axes: (cart. coord. in units of alat)
               a(1) = (  -0.500000   0.000000   0.500000 )  
               a(2) = (   0.000000   0.500000   0.500000 )  
               a(3) = (  -0.500000   0.500000   0.000000 )  

     reciprocal axes: (cart. coord. in units 2 pi/alat)
               b(1) = ( -1.000000 -1.000000  1.000000 )  
               b(2) = (  1.000000  1.000000  1.000000 )  
               b(3) = ( -1.000000  1.000000 -1.000000 )  


     PseudoPot. # 1 for Fr read from file:
     /home/lorenzo/pseudos/Fr/Fr.pz-spdn-kjpaw_psl.1.0.0.UPF
     MD5 check sum: 60dafd115682613df3cc92ec23a62a32
     Pseudo is Projector augmented-wave + core cor, Zval = 19.0
     Generated using "atomic" code by A. Dal Corso v.6.2.2
     Shape of augmentation charge: PSQ
     Using radial grid of 1287 points,  6 beta functions with: 
                l(1) =   0
                l(2) =   0
                l(3) =   1
                l(4) =   1
                l(5) =   2
                l(6) =   2
     Q(r) pseudized with 0 coefficients 


     atomic species   valence    mass     pseudopotential
        Fr            19.00   223.00000     Fr( 1.00)

     48 Sym. Ops., with inversion, found



   Cartesian axes

     site n.     atom                  positions (alat units)
         1           Fr  tau(   1) = (   0.0000000   0.0000000   0.0000000  )

     number of k points=     3  gaussian smearing, width (Ry)=  0.0100
                       cart. coord. in units 2pi/alat
        k(    1) = (   0.0000000   0.0000000   0.0000000), wk =   0.2500000
        k(    2) = (   0.5000000  -0.5000000   0.5000000), wk =   1.0000000
        k(    3) = (   0.0000000  -1.0000000   0.0000000), wk =   0.7500000

     Dense  grid:     9257 G-vectors     FFT dimensions: (  30,  30,  30)

     Estimated max dynamical RAM per process >       8.74 MB

     Estimated total dynamical RAM >      43.69 MB

     Initial potential from superposition of free atoms

     starting charge   18.97647, renormalised to   19.00000
     Starting wfcs are   10 randomized atomic wfcs +    4 random wfcs
     Checking if some PAW data can be deallocated... 

     total cpu time spent up to now is        1.2 secs

     Self-consistent Calculation

     iteration #  1     ecut=    90.00 Ry     beta= 0.70
     Davidson diagonalization with overlap
     ethr =  1.00E-02,  avg # of iterations =  6.0

     Threshold (ethr) on eigenvalues was too large:
     Diagonalizing with lowered threshold

     Davidson diagonalization with overlap
     ethr =  4.74E-05,  avg # of iterations =  2.0

     total cpu time spent up to now is        1.4 secs

     total energy              =   -1044.90268722 Ry
     Harris-Foulkes estimate   =   -1044.90852229 Ry
     estimated scf accuracy    <       0.00901966 Ry

     iteration #  2     ecut=    90.00 Ry     beta= 0.70
     Davidson diagonalization with overlap
     ethr =  4.75E-05,  avg # of iterations =  2.3

     total cpu time spent up to now is        1.6 secs

     total energy              =   -1044.90416634 Ry
     Harris-Foulkes estimate   =   -1044.90424977 Ry
     estimated scf accuracy    <       0.00040486 Ry

     iteration #  3     ecut=    90.00 Ry     beta= 0.70
     Davidson diagonalization with overlap
     ethr =  2.13E-06,  avg # of iterations =  2.3

     total cpu time spent up to now is        1.7 secs

     total energy              =   -1044.90420526 Ry
     Harris-Foulkes estimate   =   -1044.90420079 Ry
     estimated scf accuracy    <       0.00001889 Ry

     iteration #  4     ecut=    90.00 Ry     beta= 0.70
     Davidson diagonalization with overlap
     ethr =  9.94E-08,  avg # of iterations =  2.7

     total cpu time spent up to now is        1.8 secs

     total energy              =   -1044.90420925 Ry
     Harris-Foulkes estimate   =   -1044.90420897 Ry
     estimated scf accuracy    <       0.00000037 Ry

     iteration #  5     ecut=    90.00 Ry     beta= 0.70
     Davidson diagonalization with overlap
     ethr =  1.93E-09,  avg # of iterations =  2.0

     total cpu time spent up to now is        1.9 secs

     End of self-consistent calculation

          k = 0.0000 0.0000 0.0000 (  1139 PWs)   bands (ev):

    -9.2439  -9.2439  -9.2439  -8.8977  -8.8977   9.1400  46.9229  46.9229
    46.9229  48.0704  53.7019  53.7019  53.7019  57.4657

          k = 0.5000-0.5000 0.5000 (  1158 PWs)   bands (ev):

    -9.2323  -9.1909  -9.1909  -8.6013  -8.6013  17.2036  22.9982  42.6941
    42.6941  47.7916  50.9907  51.5915  51.5915  65.1705

          k = 0.0000-1.0000 0.0000 (  1162 PWs)   bands (ev):

    -9.5773  -9.3001  -8.6097  -8.5380  -8.5380  20.7160  24.6553  35.2611
    35.2611  42.4395  42.9331  64.1141  70.0421  70.9851

     the Fermi energy is    46.8814 ev

!    total energy              =   -1044.90420929 Ry
     Harris-Foulkes estimate   =   -1044.90420929 Ry
     estimated scf accuracy    <          8.7E-09 Ry

     total all-electron energy =    -48490.357182 Ry

     The total energy is the sum of the following terms:

     one-electron contribution =       1.65922466 Ry
     hartree contribution      =      28.45436535 Ry
     xc contribution           =     -63.94092187 Ry
     ewald contribution        =    -242.33311988 Ry
     one-center paw contrib.   =    -768.74182927 Ry
     smearing contrib. (-TS)   =      -0.00192828 Ry

     convergence has been achieved in   5 iterations

     Forces acting on atoms (cartesian axes, Ry/au):

     atom    1 type  1   force =     0.00000000    0.00000000    0.00000000

     Total force =     0.000000     Total SCF correction =     0.000000


     Computing stress (Cartesian axis) and pressure

          total   stress  (Ry/bohr**3)                   (kbar)     P= 7759.17
   0.05274576   0.00000000   0.00000000       7759.17      0.00      0.00
   0.00000000   0.05274576  -0.00000000          0.00   7759.17     -0.00
   0.00000000  -0.00000000   0.05274576          0.00     -0.00   7759.17


     Writing output data file Fr.save/

     init_run     :      0.28s CPU      0.29s WALL (       1 calls)
     electrons    :      0.66s CPU      0.69s WALL (       1 calls)
     forces       :      0.03s CPU      0.03s WALL (       1 calls)
     stress       :      0.09s CPU      0.09s WALL (       1 calls)

     Called by init_run:
     wfcinit      :      0.02s CPU      0.02s WALL (       1 calls)
     potinit      :      0.05s CPU      0.05s WALL (       1 calls)
     hinit0       :      0.20s CPU      0.20s WALL (       1 calls)

     Called by electrons:
     c_bands      :      0.25s CPU      0.27s WALL (       6 calls)
     sum_band     :      0.10s CPU      0.11s WALL (       6 calls)
     v_of_rho     :      0.01s CPU      0.01s WALL (       6 calls)
     newd         :      0.05s CPU      0.06s WALL (       6 calls)
     PAW_pot      :      0.29s CPU      0.30s WALL (       6 calls)
     mix_rho      :      0.00s CPU      0.00s WALL (       6 calls)

     Called by c_bands:
     init_us_2    :      0.01s CPU      0.01s WALL (      45 calls)
     cegterg      :      0.24s CPU      0.26s WALL (      18 calls)

     Called by sum_band:
     sum_band:bec :      0.00s CPU      0.00s WALL (      18 calls)
     addusdens    :      0.05s CPU      0.05s WALL (       6 calls)

     Called by *egterg:
     h_psi        :      0.18s CPU      0.19s WALL (      73 calls)
     s_psi        :      0.01s CPU      0.01s WALL (      73 calls)
     g_psi        :      0.00s CPU      0.00s WALL (      52 calls)
     cdiaghg      :      0.03s CPU      0.04s WALL (      67 calls)

     Called by h_psi:
     h_psi:pot    :      0.18s CPU      0.19s WALL (      73 calls)
     h_psi:calbec :      0.01s CPU      0.01s WALL (      73 calls)
     vloc_psi     :      0.16s CPU      0.17s WALL (      73 calls)
     add_vuspsi   :      0.01s CPU      0.01s WALL (      73 calls)

     General routines
     calbec       :      0.02s CPU      0.02s WALL (     106 calls)
     fft          :      0.01s CPU      0.01s WALL (      34 calls)
     ffts         :      0.00s CPU      0.00s WALL (       6 calls)
     fftw         :      0.18s CPU      0.19s WALL (    1600 calls)

     Parallel routines
     fft_scatt_xy :      0.02s CPU      0.02s WALL (    1640 calls)
     fft_scatt_yz :      0.05s CPU      0.05s WALL (    1640 calls)

     PWSCF        :     1.98s CPU         2.06s WALL


   This run was terminated on:  23: 0:36   7Apr2024            

=------------------------------------------------------------------------------=
   JOB DONE.
=------------------------------------------------------------------------------=
