
     Program PWSCF v.6.3MaX starts on  7Apr2024 at 22:35:55 

     This program is part of the open-source Quantum ESPRESSO suite
     for quantum simulation of materials; please cite
         "P. Giannozzi et al., J. Phys.:Condens. Matter 21 395502 (2009);
         "P. Giannozzi et al., J. Phys.:Condens. Matter 29 465901 (2017);
          URL http://www.quantum-espresso.org", 
     in publications or presentations arising from this work. More details at
     http://www.quantum-espresso.org/quote

     Parallel version (MPI), running on     5 processors

     MPI processes distributed on     1 nodes
     R & G space division:  proc/nbgrp/npool/nimage =       5
     Waiting for input...
     Reading input from standard input

     Current dimensions of program PWSCF are:
     Max number of different atomic species (ntypx) = 10
     Max number of k-points (npk) =  40000
     Max angular momentum in pseudopotentials (lmaxx) =  3

     Subspace diagonalization in iterative solution of the eigenvalue problem:
     a serial algorithm will be used


     Parallelization info
     --------------------
     sticks:   dense  smooth     PW     G-vecs:    dense   smooth      PW
     Min          62      62     21                  765      765     148
     Max          63      63     22                  770      770     151
     Sum         313     313    109                 3839     3839     749



     bravais-lattice index     =            2
     lattice parameter (alat)  =       6.8300  a.u.
     unit-cell volume          =      79.6530 (a.u.)^3
     number of atoms/cell      =            1
     number of atomic types    =            1
     number of electrons       =        19.00
     number of Kohn-Sham states=           14
     kinetic-energy cutoff     =      50.0000  Ry
     charge density cutoff     =     200.0000  Ry
     convergence threshold     =      1.0E-08
     mixing beta               =       0.7000
     number of iterations used =            8  plain     mixing
     Exchange-correlation      = LDA ( 1  1  0  0 0 0)

     celldm(1)=   6.830000  celldm(2)=   0.000000  celldm(3)=   0.000000
     celldm(4)=   0.000000  celldm(5)=   0.000000  celldm(6)=   0.000000

     crystal axes: (cart. coord. in units of alat)
               a(1) = (  -0.500000   0.000000   0.500000 )  
               a(2) = (   0.000000   0.500000   0.500000 )  
               a(3) = (  -0.500000   0.500000   0.000000 )  

     reciprocal axes: (cart. coord. in units 2 pi/alat)
               b(1) = ( -1.000000 -1.000000  1.000000 )  
               b(2) = (  1.000000  1.000000  1.000000 )  
               b(3) = ( -1.000000  1.000000 -1.000000 )  


     PseudoPot. # 1 for Fr read from file:
     /home/lorenzo/pseudos/Fr/Fr.pz-spdn-rrkjus_psl.1.0.0.UPF
     MD5 check sum: 5665a43a3d1ea02b0b7dc7a0ae9ace04
     Pseudo is Ultrasoft + core correction, Zval = 19.0
     Generated using "atomic" code by A. Dal Corso v.6.2.2
     Using radial grid of 1287 points,  6 beta functions with: 
                l(1) =   0
                l(2) =   0
                l(3) =   1
                l(4) =   1
                l(5) =   2
                l(6) =   2
     Q(r) pseudized with 0 coefficients 


     atomic species   valence    mass     pseudopotential
        Fr            19.00   223.00000     Fr( 1.00)

     48 Sym. Ops., with inversion, found



   Cartesian axes

     site n.     atom                  positions (alat units)
         1           Fr  tau(   1) = (   0.0000000   0.0000000   0.0000000  )

     number of k points=    47  gaussian smearing, width (Ry)=  0.0100
                       cart. coord. in units 2pi/alat
        k(    1) = (   0.0000000   0.0000000   0.0000000), wk =   0.0020000
        k(    2) = (  -0.1000000   0.1000000  -0.1000000), wk =   0.0160000
        k(    3) = (  -0.2000000   0.2000000  -0.2000000), wk =   0.0160000
        k(    4) = (  -0.3000000   0.3000000  -0.3000000), wk =   0.0160000
        k(    5) = (  -0.4000000   0.4000000  -0.4000000), wk =   0.0160000
        k(    6) = (   0.5000000  -0.5000000   0.5000000), wk =   0.0080000
        k(    7) = (   0.0000000   0.2000000   0.0000000), wk =   0.0120000
        k(    8) = (  -0.1000000   0.3000000  -0.1000000), wk =   0.0480000
        k(    9) = (  -0.2000000   0.4000000  -0.2000000), wk =   0.0480000
        k(   10) = (  -0.3000000   0.5000000  -0.3000000), wk =   0.0480000
        k(   11) = (   0.6000000  -0.4000000   0.6000000), wk =   0.0480000
        k(   12) = (   0.5000000  -0.3000000   0.5000000), wk =   0.0480000
        k(   13) = (   0.4000000  -0.2000000   0.4000000), wk =   0.0480000
        k(   14) = (   0.3000000  -0.1000000   0.3000000), wk =   0.0480000
        k(   15) = (   0.2000000   0.0000000   0.2000000), wk =   0.0240000
        k(   16) = (   0.0000000   0.4000000   0.0000000), wk =   0.0120000
        k(   17) = (  -0.1000000   0.5000000  -0.1000000), wk =   0.0480000
        k(   18) = (  -0.2000000   0.6000000  -0.2000000), wk =   0.0480000
        k(   19) = (   0.7000000  -0.3000000   0.7000000), wk =   0.0480000
        k(   20) = (   0.6000000  -0.2000000   0.6000000), wk =   0.0480000
        k(   21) = (   0.5000000  -0.1000000   0.5000000), wk =   0.0480000
        k(   22) = (   0.4000000   0.0000000   0.4000000), wk =   0.0240000
        k(   23) = (   0.0000000   0.6000000   0.0000000), wk =   0.0120000
        k(   24) = (  -0.1000000   0.7000000  -0.1000000), wk =   0.0480000
        k(   25) = (   0.8000000  -0.2000000   0.8000000), wk =   0.0480000
        k(   26) = (   0.7000000  -0.1000000   0.7000000), wk =   0.0480000
        k(   27) = (   0.6000000  -0.0000000   0.6000000), wk =   0.0240000
        k(   28) = (   0.0000000   0.8000000   0.0000000), wk =   0.0120000
        k(   29) = (   0.9000000  -0.1000000   0.9000000), wk =   0.0480000
        k(   30) = (   0.8000000   0.0000000   0.8000000), wk =   0.0240000
        k(   31) = (   0.0000000  -1.0000000   0.0000000), wk =   0.0060000
        k(   32) = (  -0.2000000   0.4000000   0.0000000), wk =   0.0480000
        k(   33) = (  -0.3000000   0.5000000  -0.1000000), wk =   0.0960000
        k(   34) = (   0.6000000  -0.4000000   0.8000000), wk =   0.0960000
        k(   35) = (   0.5000000  -0.3000000   0.7000000), wk =   0.0480000
        k(   36) = (  -0.2000000   0.6000000   0.0000000), wk =   0.0480000
        k(   37) = (   0.7000000  -0.3000000   0.9000000), wk =   0.0960000
        k(   38) = (   0.6000000  -0.2000000   0.8000000), wk =   0.0960000
        k(   39) = (   0.5000000  -0.1000000   0.7000000), wk =   0.0960000
        k(   40) = (   0.4000000   0.0000000   0.6000000), wk =   0.0480000
        k(   41) = (   0.8000000  -0.2000000   1.0000000), wk =   0.0480000
        k(   42) = (   0.7000000  -0.1000000   0.9000000), wk =   0.0960000
        k(   43) = (   0.6000000   0.0000000   0.8000000), wk =   0.0480000
        k(   44) = (  -0.2000000  -1.0000000   0.0000000), wk =   0.0240000
        k(   45) = (   0.6000000  -0.2000000   1.0000000), wk =   0.0480000
        k(   46) = (   0.5000000  -0.1000000   0.9000000), wk =   0.0480000
        k(   47) = (  -0.4000000  -1.0000000   0.0000000), wk =   0.0240000

     Dense  grid:     3839 G-vectors     FFT dimensions: (  24,  24,  24)

     Estimated max dynamical RAM per process >       5.11 MB

     Estimated total dynamical RAM >      25.57 MB

     Check: negative/imaginary core charge=   -0.000007    0.000000

     Initial potential from superposition of free atoms

     starting charge   18.97647, renormalised to   19.00000
     Starting wfcs are   10 randomized atomic wfcs +    4 random wfcs

     total cpu time spent up to now is        1.3 secs

     Self-consistent Calculation

     iteration #  1     ecut=    50.00 Ry     beta= 0.70
     Davidson diagonalization with overlap
     ethr =  1.00E-02,  avg # of iterations =  4.6

     Threshold (ethr) on eigenvalues was too large:
     Diagonalizing with lowered threshold

     Davidson diagonalization with overlap
     ethr =  9.01E-05,  avg # of iterations =  1.9

     total cpu time spent up to now is        2.5 secs

     total energy              =    -282.46841599 Ry
     Harris-Foulkes estimate   =    -282.48009673 Ry
     estimated scf accuracy    <       0.01696602 Ry

     iteration #  2     ecut=    50.00 Ry     beta= 0.70
     Davidson diagonalization with overlap
     ethr =  8.93E-05,  avg # of iterations =  2.0

     total cpu time spent up to now is        3.0 secs

     total energy              =    -282.47135171 Ry
     Harris-Foulkes estimate   =    -282.47182031 Ry
     estimated scf accuracy    <       0.00062238 Ry

     iteration #  3     ecut=    50.00 Ry     beta= 0.70
     Davidson diagonalization with overlap
     ethr =  3.28E-06,  avg # of iterations =  2.6

     total cpu time spent up to now is        3.5 secs

     total energy              =    -282.47146041 Ry
     Harris-Foulkes estimate   =    -282.47147596 Ry
     estimated scf accuracy    <       0.00002600 Ry

     iteration #  4     ecut=    50.00 Ry     beta= 0.70
     Davidson diagonalization with overlap
     ethr =  1.37E-07,  avg # of iterations =  2.0

     total cpu time spent up to now is        3.9 secs

     total energy              =    -282.47146343 Ry
     Harris-Foulkes estimate   =    -282.47146346 Ry
     estimated scf accuracy    <       0.00000011 Ry

     iteration #  5     ecut=    50.00 Ry     beta= 0.70
     Davidson diagonalization with overlap
     ethr =  5.96E-10,  avg # of iterations =  2.1

     total cpu time spent up to now is        4.4 secs

     End of self-consistent calculation

          k = 0.0000 0.0000 0.0000 (   531 PWs)   bands (ev):

    -9.4639  -9.4639  -9.4639  -9.1172  -9.1172   9.1024  46.9013  46.9013
    46.9013  48.0902  53.6943  53.6943  53.6943  57.5388

          k =-0.1000 0.1000-0.1000 (   495 PWs)   bands (ev):

    -9.4592  -9.4309  -9.4309  -9.1150  -9.1150   9.5028  42.7654  46.3078
    46.3078  47.9627  54.6993  54.6993  55.6393  57.1829

          k =-0.2000 0.2000-0.2000 (   483 PWs)   bands (ev):

    -9.4525  -9.3785  -9.3785  -9.0836  -9.0836  10.7062  36.5426  45.0856
    45.0856  48.0006  54.1307  54.8503  54.8503  57.0613

          k =-0.3000 0.3000-0.3000 (   483 PWs)   bands (ev):

    -9.4485  -9.3742  -9.3742  -8.9825  -8.9825  12.6933  30.6719  43.8641
    43.8641  47.9926  52.3596  53.0437  53.0437  60.1260

          k =-0.4000 0.4000-0.4000 (   477 PWs)   bands (ev):

    -9.4499  -9.3966  -9.3966  -8.8713  -8.8713  15.2904  25.6687  42.9849
    42.9849  47.9025  51.3156  51.9770  51.9770  63.3520

          k = 0.5000-0.5000 0.5000 (   476 PWs)   bands (ev):

    -9.4510  -9.4084  -9.4084  -8.8260  -8.8260  17.1372  23.0095  42.6643
    42.6643  47.8403  50.9993  51.6268  51.6268  65.1434

          k = 0.0000 0.2000 0.0000 (   495 PWs)   bands (ev):

    -9.4939  -9.3994  -9.3994  -9.1484  -9.0882   9.6362  44.4520  44.4520
    44.9002  46.9356  53.3600  55.7493  56.4614  56.4614

          k =-0.1000 0.3000-0.1000 (   483 PWs)   bands (ev):

    -9.5049  -9.3384  -9.3322  -9.1646  -9.0486  10.5720  38.7891  42.8040
    44.4071  47.9461  50.7162  55.5771  57.9274  58.1389

          k =-0.2000 0.4000-0.2000 (   482 PWs)   bands (ev):

    -9.4888  -9.3348  -9.3091  -9.0986  -8.9576  12.3013  32.8067  41.6536
    42.9758  47.3417  52.0662  55.4016  56.1335  56.6141

          k =-0.3000 0.5000-0.3000 (   477 PWs)   bands (ev):

    -9.4681  -9.3634  -9.3297  -8.9811  -8.8571  14.7265  27.5120  41.1588
    41.3215  46.4899  53.7223  54.4062  54.4535  58.1924

          k = 0.6000-0.4000 0.6000 (   471 PWs)   bands (ev):

    -9.4497  -9.3845  -9.3514  -8.8887  -8.8224  17.1549  23.7610  39.9619
    41.4295  46.4142  52.9796  53.2097  54.9307  62.0598

          k = 0.5000-0.3000 0.5000 (   475 PWs)   bands (ev):

    -9.4268  -9.3964  -9.3536  -8.8817  -8.8617  16.4700  24.7191  39.2271
    42.5033  47.0198  52.1331  52.5603  56.0284  62.6780

          k = 0.4000-0.2000 0.4000 (   484 PWs)   bands (ev):

    -9.4283  -9.3785  -9.3356  -9.0106  -8.9079  13.8540  29.1897  39.2138
    44.2789  48.2507  51.5204  52.4674  57.5354  58.9911

          k = 0.3000-0.1000 0.3000 (   483 PWs)   bands (ev):

    -9.4495  -9.3545  -9.3313  -9.1287  -8.9974  11.6385  34.7446  39.9090
    46.3426  49.5892  51.3948  53.0168  55.7739  57.4666

          k = 0.2000 0.0000 0.2000 (   489 PWs)   bands (ev):

    -9.4639  -9.3920  -9.3752  -9.1444  -9.0735  10.1711  40.4041  41.6310
    47.4074  49.0002  53.3759  54.0769  54.5310  56.2583

          k = 0.0000 0.4000 0.0000 (   480 PWs)   bands (ev):

    -9.5772  -9.2398  -9.2297  -9.2297  -9.0179  11.2399  40.5407  40.8161
    40.8161  45.2369  47.5518  60.0282  60.1940  60.1940

          k =-0.1000 0.5000-0.1000 (   481 PWs)   bands (ev):

    -9.5954  -9.2990  -9.1671  -9.1233  -8.9443  12.7034  35.1507  39.4510
    39.7346  45.2742  47.5630  59.7811  59.8843  60.9702

          k =-0.2000 0.6000-0.2000 (   475 PWs)   bands (ev):

    -9.5621  -9.3220  -9.1761  -9.0480  -8.8457  14.8962  29.8869  37.5039
    38.8629  44.7439  51.3983  58.0241  58.4143  60.3519

          k = 0.7000-0.3000 0.7000 (   477 PWs)   bands (ev):

    -9.5181  -9.2996  -9.2022  -9.0085  -8.8157  17.4277  25.6839  35.5557
    39.1415  44.7724  55.9315  56.5117  56.9992  60.6914

          k = 0.6000-0.2000 0.6000 (   471 PWs)   bands (ev):

    -9.4731  -9.2861  -9.2167  -8.9718  -8.8828  18.0219  24.9095  34.2776
    40.3070  45.3870  55.4679  55.5187  60.5681  62.2626

          k = 0.5000-0.1000 0.5000 (   477 PWs)   bands (ev):

    -9.4213  -9.3328  -9.2101  -9.0272  -8.9334  15.7056  28.5004  33.8376
    42.2697  46.6031  54.2903  55.0367  58.6978  59.8648

          k = 0.4000 0.0000 0.4000 (   475 PWs)   bands (ev):

    -9.4031  -9.3724  -9.2108  -9.1640  -8.9364  13.3452  32.9009  34.8992
    44.7099  48.4393  52.4893  54.7749  55.3025  57.7927

          k = 0.0000 0.6000 0.0000 (   480 PWs)   bands (ev):

    -9.6797  -9.3619  -9.0154  -9.0154  -8.9312  13.8994  34.6564  37.8281
    37.8281  43.9577  44.3497  63.5989  63.5989  64.4690

          k =-0.1000 0.7000-0.1000 (   471 PWs)   bands (ev):

    -9.6852  -9.4021  -8.9919  -8.9409  -8.8419  15.8362  31.0665  35.2529
    37.0044  43.6360  46.0773  61.8888  63.1396  66.4195

          k = 0.8000-0.2000 0.8000 (   472 PWs)   bands (ev):

    -9.6253  -9.3679  -9.0165  -8.9516  -8.8047  18.2374  27.6265  32.2285
    37.0856  43.6205  50.4074  60.1279  61.3787  66.6518

          k = 0.7000-0.1000 0.7000 (   471 PWs)   bands (ev):

    -9.5534  -9.2371  -9.0425  -9.0412  -8.8707  19.6033  26.2159  30.0700
    38.0867  44.1012  55.4843  58.8319  59.8055  64.1505

          k = 0.6000-0.0000 0.6000 (   470 PWs)   bands (ev):

    -9.4835  -9.1942  -9.0763  -9.0553  -8.9946  17.9982  28.3792  29.4822
    39.9099  45.0975  57.6973  57.7174  60.0338  60.2155

          k = 0.0000 0.8000 0.0000 (   468 PWs)   bands (ev):

    -9.7606  -9.4696  -8.8597  -8.8354  -8.8354  17.5019  28.6456  35.9088
    35.9088  42.9140  43.2133  64.1867  67.6738  67.6738

          k = 0.9000-0.1000 0.9000 (   468 PWs)   bands (ev):

    -9.7403  -9.4756  -8.8726  -8.8202  -8.7880  19.5940  26.2303  33.3907
    35.7223  42.9354  45.3887  63.0391  66.5669  69.4395

          k = 0.8000 0.0000 0.8000 (   474 PWs)   bands (ev):

    -9.6504  -9.3921  -8.9167  -8.9072  -8.8285  20.6442  25.9145  30.0733
    36.4767  43.2890  50.0593  61.3123  64.2727  66.2205

          k = 0.0000-1.0000 0.0000 (   468 PWs)   bands (ev):

    -9.7921  -9.5135  -8.8324  -8.7664  -8.7664  20.6390  24.6544  35.2478
    35.2478  42.4918  42.9653  64.0762  70.0407  70.9709

          k =-0.2000 0.4000 0.0000 (   480 PWs)   bands (ev):

    -9.5163  -9.3112  -9.2384  -9.1876  -8.9844  11.7721  36.4904  38.2562
    44.1115  48.3016  49.0754  55.7504  57.1256  59.6005

          k =-0.3000 0.5000-0.1000 (   474 PWs)   bands (ev):

    -9.4824  -9.3414  -9.2215  -9.0982  -8.9054  13.7378  31.4398  36.7328
    41.9346  47.8833  51.5583  54.3468  57.4248  61.1628

          k = 0.6000-0.4000 0.8000 (   476 PWs)   bands (ev):

    -9.4409  -9.3774  -9.2305  -8.9960  -8.8563  16.2679  26.6681  36.3818
    40.0088  47.3584  52.0538  56.8839  57.8917  59.6297

          k = 0.5000-0.3000 0.7000 (   472 PWs)   bands (ev):

    -9.4194  -9.3975  -9.2293  -8.9551  -8.8420  18.0083  24.1626  36.4015
    39.2010  47.1761  51.7928  58.0854  58.5730  61.4474

          k =-0.2000 0.6000 0.0000 (   471 PWs)   bands (ev):

    -9.6027  -9.3417  -9.1227  -9.0202  -8.8858  14.4049  32.8581  35.5429
    38.4029  46.8195  46.8613  57.7726  62.2554  65.0690

          k = 0.7000-0.3000 0.9000 (   474 PWs)   bands (ev):

    -9.5466  -9.3493  -9.1318  -8.9671  -8.8459  16.7343  28.9338  33.7471
    36.7058  46.6274  50.8839  55.8999  62.8361  63.8101

          k = 0.6000-0.2000 0.8000 (   472 PWs)   bands (ev):

    -9.4857  -9.3043  -9.1201  -9.0266  -8.8364  18.9101  25.8404  32.4720
    36.4940  46.9343  54.0236  56.2199  61.5337  62.6285

          k = 0.5000-0.1000 0.7000 (   471 PWs)   bands (ev):

    -9.4361  -9.3135  -9.1186  -9.0324  -8.8957  18.2590  26.8245  31.6108
    37.6169  47.7784  53.2927  57.5449  60.7700  61.1338

          k = 0.4000 0.0000 0.6000 (   478 PWs)   bands (ev):

    -9.4048  -9.3847  -9.1620  -9.0292  -8.9229  15.8571  30.1787  32.2110
    39.5990  48.9599  51.9039  54.4392  59.6556  62.5573

          k = 0.8000-0.2000 1.0000 (   471 PWs)   bands (ev):

    -9.6734  -9.4281  -8.9826  -8.8398  -8.8372  17.9030  28.5965  33.7892
    34.7667  45.7039  45.8765  60.1796  66.0228  67.6546

          k = 0.7000-0.1000 0.9000 (   476 PWs)   bands (ev):

    -9.5894  -9.3804  -9.0233  -8.9201  -8.7984  19.9932  26.8016  30.7013
    34.5638  46.0148  50.3098  58.3967  63.0840  66.2274

          k = 0.6000 0.0000 0.8000 (   475 PWs)   bands (ev):

    -9.5050  -9.2378  -9.1400  -8.9982  -8.8449  20.0845  27.7196  28.2801
    35.6830  46.7483  55.5808  56.5364  59.1261  63.9511

          k =-0.2000-1.0000 0.0000 (   470 PWs)   bands (ev):

    -9.6999  -9.4645  -8.8758  -8.8714  -8.7662  20.7385  25.2880  33.1824
    33.7375  45.3403  45.5655  61.6978  65.9152  68.1672

          k = 0.6000-0.2000 1.0000 (   481 PWs)   bands (ev):

    -9.4403  -9.3695  -9.1574  -8.9452  -8.8414  18.9472  28.2297  30.4876
    34.3579  50.4898  50.8574  54.5051  61.6232  65.6850

          k = 0.5000-0.1000 0.9000 (   478 PWs)   bands (ev):

    -9.3906  -9.3156  -9.2118  -9.0006  -8.8013  20.2747  27.2272  29.6675
    33.4119  50.5967  52.8877  56.1148  57.0527  66.8502

          k =-0.4000-1.0000 0.0000 (   476 PWs)   bands (ev):

    -9.4556  -9.3644  -9.1386  -8.9695  -8.7662  20.9124  27.1097  29.8929
    32.1057  50.5000  50.9165  56.1507  58.6246  68.8975

     the Fermi energy is    46.6459 ev

!    total energy              =    -282.47146346 Ry
     Harris-Foulkes estimate   =    -282.47146346 Ry
     estimated scf accuracy    <          1.8E-09 Ry

     The total energy is the sum of the following terms:

     one-electron contribution =      -4.47108859 Ry
     hartree contribution      =      28.23728470 Ry
     xc contribution           =     -63.90398780 Ry
     ewald contribution        =    -242.33311993 Ry
     smearing contrib. (-TS)   =      -0.00055185 Ry

     convergence has been achieved in   5 iterations

     Forces acting on atoms (cartesian axes, Ry/au):

     atom    1 type  1   force =     0.00000000    0.00000000    0.00000000

     Total force =     0.000000     Total SCF correction =     0.000000


     Computing stress (Cartesian axis) and pressure

          total   stress  (Ry/bohr**3)                   (kbar)     P= 6996.21
   0.04755927   0.00000000   0.00000000       6996.21      0.00      0.00
   0.00000000   0.04755927   0.00000000          0.00   6996.21      0.00
  -0.00000000   0.00000000   0.04755927         -0.00      0.00   6996.21


     Writing output data file Fr.save/

     init_run     :      0.36s CPU      0.38s WALL (       1 calls)
     electrons    :      2.94s CPU      3.11s WALL (       1 calls)
     forces       :      0.03s CPU      0.03s WALL (       1 calls)
     stress       :      0.09s CPU      0.09s WALL (       1 calls)

     Called by init_run:
     wfcinit      :      0.20s CPU      0.22s WALL (       1 calls)
     potinit      :      0.00s CPU      0.00s WALL (       1 calls)
     hinit0       :      0.14s CPU      0.14s WALL (       1 calls)

     Called by electrons:
     c_bands      :      2.51s CPU      2.65s WALL (       6 calls)
     sum_band     :      0.40s CPU      0.43s WALL (       6 calls)
     v_of_rho     :      0.00s CPU      0.00s WALL (       6 calls)
     newd         :      0.03s CPU      0.03s WALL (       6 calls)
     mix_rho      :      0.00s CPU      0.00s WALL (       6 calls)

     Called by c_bands:
     init_us_2    :      0.05s CPU      0.05s WALL (     705 calls)
     cegterg      :      2.43s CPU      2.57s WALL (     282 calls)

     Called by sum_band:
     sum_band:bec :      0.00s CPU      0.00s WALL (     282 calls)
     addusdens    :      0.02s CPU      0.03s WALL (       6 calls)

     Called by *egterg:
     h_psi        :      1.75s CPU      1.87s WALL (    1040 calls)
     s_psi        :      0.05s CPU      0.05s WALL (    1040 calls)
     g_psi        :      0.00s CPU      0.00s WALL (     711 calls)
     cdiaghg      :      0.47s CPU      0.49s WALL (     946 calls)

     Called by h_psi:
     h_psi:pot    :      1.74s CPU      1.86s WALL (    1040 calls)
     h_psi:calbec :      0.07s CPU      0.08s WALL (    1040 calls)
     vloc_psi     :      1.61s CPU      1.72s WALL (    1040 calls)
     add_vuspsi   :      0.05s CPU      0.05s WALL (    1040 calls)

     General routines
     calbec       :      0.12s CPU      0.13s WALL (    1557 calls)
     fft          :      0.01s CPU      0.01s WALL (      34 calls)
     ffts         :      0.00s CPU      0.00s WALL (       6 calls)
     fftw         :      1.79s CPU      1.91s WALL (   25272 calls)

     Parallel routines
     fft_scatt_xy :      0.15s CPU      0.16s WALL (   25312 calls)
     fft_scatt_yz :      0.64s CPU      0.67s WALL (   25312 calls)

     PWSCF        :     4.43s CPU         4.70s WALL


   This run was terminated on:  22:36: 0   7Apr2024            

=------------------------------------------------------------------------------=
   JOB DONE.
=------------------------------------------------------------------------------=
