
     Program PWSCF v.6.3MaX starts on  7Apr2024 at 23: 2: 5 

     This program is part of the open-source Quantum ESPRESSO suite
     for quantum simulation of materials; please cite
         "P. Giannozzi et al., J. Phys.:Condens. Matter 21 395502 (2009);
         "P. Giannozzi et al., J. Phys.:Condens. Matter 29 465901 (2017);
          URL http://www.quantum-espresso.org", 
     in publications or presentations arising from this work. More details at
     http://www.quantum-espresso.org/quote

     Parallel version (MPI), running on     5 processors

     MPI processes distributed on     1 nodes
     R & G space division:  proc/nbgrp/npool/nimage =       5
     Waiting for input...
     Reading input from standard input

     Current dimensions of program PWSCF are:
     Max number of different atomic species (ntypx) = 10
     Max number of k-points (npk) =  40000
     Max angular momentum in pseudopotentials (lmaxx) =  3
               file Fr.pz-spdn-kjpaw_psl.1.0.0.UPF: wavefunction(s)  6P renormalized

     Subspace diagonalization in iterative solution of the eigenvalue problem:
     a serial algorithm will be used


     Parallelization info
     --------------------
     sticks:   dense  smooth     PW     G-vecs:    dense   smooth      PW
     Min         116     116     37                 1850     1850     327
     Max         117     117     38                 1853     1853     329
     Sum         583     583    187                 9257     9257    1639



     bravais-lattice index     =            2
     lattice parameter (alat)  =       6.8300  a.u.
     unit-cell volume          =      79.6530 (a.u.)^3
     number of atoms/cell      =            1
     number of atomic types    =            1
     number of electrons       =        19.00
     number of Kohn-Sham states=           14
     kinetic-energy cutoff     =      90.0000  Ry
     charge density cutoff     =     360.0000  Ry
     convergence threshold     =      1.0E-08
     mixing beta               =       0.7000
     number of iterations used =            8  plain     mixing
     Exchange-correlation      = SLA PZ NOGX NOGC ( 1  1  0  0 0 0)

     celldm(1)=   6.830000  celldm(2)=   0.000000  celldm(3)=   0.000000
     celldm(4)=   0.000000  celldm(5)=   0.000000  celldm(6)=   0.000000

     crystal axes: (cart. coord. in units of alat)
               a(1) = (  -0.500000   0.000000   0.500000 )  
               a(2) = (   0.000000   0.500000   0.500000 )  
               a(3) = (  -0.500000   0.500000   0.000000 )  

     reciprocal axes: (cart. coord. in units 2 pi/alat)
               b(1) = ( -1.000000 -1.000000  1.000000 )  
               b(2) = (  1.000000  1.000000  1.000000 )  
               b(3) = ( -1.000000  1.000000 -1.000000 )  


     PseudoPot. # 1 for Fr read from file:
     /home/lorenzo/pseudos/Fr/Fr.pz-spdn-kjpaw_psl.1.0.0.UPF
     MD5 check sum: 60dafd115682613df3cc92ec23a62a32
     Pseudo is Projector augmented-wave + core cor, Zval = 19.0
     Generated using "atomic" code by A. Dal Corso v.6.2.2
     Shape of augmentation charge: PSQ
     Using radial grid of 1287 points,  6 beta functions with: 
                l(1) =   0
                l(2) =   0
                l(3) =   1
                l(4) =   1
                l(5) =   2
                l(6) =   2
     Q(r) pseudized with 0 coefficients 


     atomic species   valence    mass     pseudopotential
        Fr            19.00   223.00000     Fr( 1.00)

     48 Sym. Ops., with inversion, found



   Cartesian axes

     site n.     atom                  positions (alat units)
         1           Fr  tau(   1) = (   0.0000000   0.0000000   0.0000000  )

     number of k points=    29  gaussian smearing, width (Ry)=  0.0100
                       cart. coord. in units 2pi/alat
        k(    1) = (   0.0000000   0.0000000   0.0000000), wk =   0.0039062
        k(    2) = (  -0.1250000   0.1250000  -0.1250000), wk =   0.0312500
        k(    3) = (  -0.2500000   0.2500000  -0.2500000), wk =   0.0312500
        k(    4) = (  -0.3750000   0.3750000  -0.3750000), wk =   0.0312500
        k(    5) = (   0.5000000  -0.5000000   0.5000000), wk =   0.0156250
        k(    6) = (   0.0000000   0.2500000   0.0000000), wk =   0.0234375
        k(    7) = (  -0.1250000   0.3750000  -0.1250000), wk =   0.0937500
        k(    8) = (  -0.2500000   0.5000000  -0.2500000), wk =   0.0937500
        k(    9) = (   0.6250000  -0.3750000   0.6250000), wk =   0.0937500
        k(   10) = (   0.5000000  -0.2500000   0.5000000), wk =   0.0937500
        k(   11) = (   0.3750000  -0.1250000   0.3750000), wk =   0.0937500
        k(   12) = (   0.2500000   0.0000000   0.2500000), wk =   0.0468750
        k(   13) = (   0.0000000   0.5000000   0.0000000), wk =   0.0234375
        k(   14) = (  -0.1250000   0.6250000  -0.1250000), wk =   0.0937500
        k(   15) = (   0.7500000  -0.2500000   0.7500000), wk =   0.0937500
        k(   16) = (   0.6250000  -0.1250000   0.6250000), wk =   0.0937500
        k(   17) = (   0.5000000   0.0000000   0.5000000), wk =   0.0468750
        k(   18) = (   0.0000000   0.7500000   0.0000000), wk =   0.0234375
        k(   19) = (   0.8750000  -0.1250000   0.8750000), wk =   0.0937500
        k(   20) = (   0.7500000   0.0000000   0.7500000), wk =   0.0468750
        k(   21) = (   0.0000000  -1.0000000   0.0000000), wk =   0.0117188
        k(   22) = (  -0.2500000   0.5000000   0.0000000), wk =   0.0937500
        k(   23) = (   0.6250000  -0.3750000   0.8750000), wk =   0.1875000
        k(   24) = (   0.5000000  -0.2500000   0.7500000), wk =   0.0937500
        k(   25) = (   0.7500000  -0.2500000   1.0000000), wk =   0.0937500
        k(   26) = (   0.6250000  -0.1250000   0.8750000), wk =   0.1875000
        k(   27) = (   0.5000000   0.0000000   0.7500000), wk =   0.0937500
        k(   28) = (  -0.2500000  -1.0000000   0.0000000), wk =   0.0468750
        k(   29) = (  -0.5000000  -1.0000000   0.0000000), wk =   0.0234375

     Dense  grid:     9257 G-vectors     FFT dimensions: (  30,  30,  30)

     Estimated max dynamical RAM per process >      10.00 MB

     Estimated total dynamical RAM >      50.02 MB

     Initial potential from superposition of free atoms

     starting charge   18.97647, renormalised to   19.00000
     Starting wfcs are   10 randomized atomic wfcs +    4 random wfcs
     Checking if some PAW data can be deallocated... 

     total cpu time spent up to now is        1.3 secs

     Self-consistent Calculation

     iteration #  1     ecut=    90.00 Ry     beta= 0.70
     Davidson diagonalization with overlap
     ethr =  1.00E-02,  avg # of iterations =  4.8

     Threshold (ethr) on eigenvalues was too large:
     Diagonalizing with lowered threshold

     Davidson diagonalization with overlap
     ethr =  9.97E-05,  avg # of iterations =  1.8

     total cpu time spent up to now is        2.7 secs

     total energy              =   -1045.26094438 Ry
     Harris-Foulkes estimate   =   -1045.27430335 Ry
     estimated scf accuracy    <       0.01886244 Ry

     iteration #  2     ecut=    90.00 Ry     beta= 0.70
     Davidson diagonalization with overlap
     ethr =  9.93E-05,  avg # of iterations =  2.0

     total cpu time spent up to now is        3.4 secs

     total energy              =   -1045.26401496 Ry
     Harris-Foulkes estimate   =   -1045.26434009 Ry
     estimated scf accuracy    <       0.00055375 Ry

     iteration #  3     ecut=    90.00 Ry     beta= 0.70
     Davidson diagonalization with overlap
     ethr =  2.91E-06,  avg # of iterations =  2.7

     total cpu time spent up to now is        4.0 secs

     total energy              =   -1045.26408554 Ry
     Harris-Foulkes estimate   =   -1045.26409251 Ry
     estimated scf accuracy    <       0.00001789 Ry

     iteration #  4     ecut=    90.00 Ry     beta= 0.70
     Davidson diagonalization with overlap
     ethr =  9.42E-08,  avg # of iterations =  2.1

     total cpu time spent up to now is        4.6 secs

     total energy              =   -1045.26409043 Ry
     Harris-Foulkes estimate   =   -1045.26408992 Ry
     estimated scf accuracy    <       0.00000026 Ry

     iteration #  5     ecut=    90.00 Ry     beta= 0.70
     Davidson diagonalization with overlap
     ethr =  1.36E-09,  avg # of iterations =  2.2

     total cpu time spent up to now is        5.1 secs

     total energy              =   -1045.26409051 Ry
     Harris-Foulkes estimate   =   -1045.26409047 Ry
     estimated scf accuracy    <       0.00000001 Ry

     iteration #  6     ecut=    90.00 Ry     beta= 0.70
     Davidson diagonalization with overlap
     ethr =  6.90E-11,  avg # of iterations =  2.1

     total cpu time spent up to now is        5.7 secs

     End of self-consistent calculation

          k = 0.0000 0.0000 0.0000 (  1139 PWs)   bands (ev):

    -9.4982  -9.4982  -9.4982  -9.1491  -9.1491   9.0830  46.8566  46.8566
    46.8566  48.0859  53.6752  53.6752  53.6752  57.5437

          k =-0.1250 0.1250-0.1250 (  1167 PWs)   bands (ev):

    -9.4927  -9.4523  -9.4523  -9.1460  -9.1460   9.7085  41.1859  45.9821
    45.9821  47.9580  55.1466  55.1466  55.5047  56.5575

          k =-0.2500 0.2500-0.2500 (  1152 PWs)   bands (ev):

    -9.4845  -9.4044  -9.4044  -9.0732  -9.0732  11.5846  33.4992  44.4021
    44.4021  47.9959  53.1533  53.8247  53.8247  58.4894

          k =-0.3750 0.3750-0.3750 (  1155 PWs)   bands (ev):

    -9.4833  -9.4251  -9.4251  -8.9281  -8.9281  14.5873  26.7797  43.1131
    43.1131  47.9301  51.4670  52.1381  52.1381  62.5435

          k = 0.5000-0.5000 0.5000 (  1158 PWs)   bands (ev):

    -9.4847  -9.4420  -9.4420  -8.8586  -8.8586  17.1062  22.9945  42.6199
    42.6199  47.8502  50.9477  51.5924  51.5924  65.1220

          k = 0.0000 0.2500 0.0000 (  1155 PWs)   bands (ev):

    -9.5469  -9.4002  -9.4002  -9.1996  -9.1077   9.9167  43.4852  43.4852
    43.9383  46.4746  51.7015  56.6446  57.4587  57.4587

          k =-0.1250 0.3750-0.1250 (  1151 PWs)   bands (ev):

    -9.5582  -9.3389  -9.3209  -9.1989  -9.0367  11.3769  36.3095  41.5443
    43.0285  47.2739  49.8718  56.3647  57.9758  58.2814

          k =-0.2500 0.5000-0.2500 (  1141 PWs)   bands (ev):

    -9.5270  -9.3725  -9.3256  -9.0733  -8.9075  14.0282  29.2990  40.5873
    40.8059  46.0980  53.7811  55.6206  55.6510  56.8705

          k = 0.6250-0.3750 0.6250 (  1149 PWs)   bands (ev):

    -9.4958  -9.3970  -9.3553  -8.9534  -8.8543  17.1551  24.1389  38.8334
    40.8429  45.9554  53.7621  53.9088  56.2421  60.6504

          k = 0.5000-0.2500 0.5000 (  1147 PWs)   bands (ev):

    -9.4566  -9.4183  -9.3584  -8.9452  -8.9124  16.2039  25.5182  37.8398
    42.3910  46.8648  52.5818  53.0211  57.6793  61.6490

          k = 0.3750-0.1250 0.3750 (  1147 PWs)   bands (ev):

    -9.4612  -9.4015  -9.3363  -9.1209  -8.9699  13.0218  31.5395  38.0250
    44.9920  48.8084  51.5457  52.9395  57.0306  58.5486

          k = 0.2500 0.0000 0.2500 (  1159 PWs)   bands (ev):

    -9.4944  -9.3914  -9.3901  -9.1882  -9.0734  10.7518  38.3203  39.8285
    47.2373  49.6597  52.0488  53.7221  54.2471  56.4651

          k = 0.0000 0.5000 0.0000 (  1174 PWs)   bands (ev):

    -9.6637  -9.3327  -9.1576  -9.1576  -9.0072  12.4187  37.6673  39.1697
    39.1697  44.5049  45.6446  61.8294  61.8294  62.6040

          k =-0.1250 0.6250-0.1250 (  1147 PWs)   bands (ev):

    -9.6704  -9.3883  -9.1126  -9.0496  -8.8974  14.6687  32.0487  36.5045
    37.9116  44.1776  47.5920  60.4141  61.1053  63.3861

          k = 0.7500-0.2500 0.7500 (  1150 PWs)   bands (ev):

    -9.6028  -9.3436  -9.1433  -9.0403  -8.8433  17.7275  26.7936  33.5485
    38.0115  44.1134  53.1917  58.2993  58.9614  63.6674

          k = 0.6250-0.1250 0.6250 (  1146 PWs)   bands (ev):

    -9.5308  -9.2540  -9.1670  -9.0703  -8.9437  18.4773  25.9104  31.7065
    39.5143  44.8887  56.9815  57.1914  59.4254  62.2120

          k = 0.5000 0.0000 0.5000 (  1135 PWs)   bands (ev):

    -9.4554  -9.3525  -9.1696  -9.1369  -8.9813  15.5712  30.1104  31.9601
    42.1868  46.5395  54.8937  56.2945  57.1509  59.0209

          k = 0.0000 0.7500 0.0000 (  1150 PWs)   bands (ev):

    -9.7796  -9.4802  -8.9060  -8.9060  -8.9059  16.5042  30.0539  36.2448
    36.2448  43.1487  43.3131  64.2246  66.5916  66.5916

          k = 0.8750-0.1250 0.8750 (  1146 PWs)   bands (ev):

    -9.7500  -9.4868  -8.9324  -8.8820  -8.8262  19.1895  26.8000  32.7344
    35.9542  43.0420  46.4978  62.4307  65.2282  68.9863

          k = 0.7500 0.0000 0.7500 (  1144 PWs)   bands (ev):

    -9.6370  -9.3476  -9.0083  -8.9886  -8.8954  20.3786  26.5823  28.8750
    37.1157  43.5906  52.6648  60.3013  62.5123  64.7335

          k = 0.0000-1.0000 0.0000 (  1162 PWs)   bands (ev):

    -9.8272  -9.5450  -8.8636  -8.7990  -8.7990  20.6036  24.6328  35.2188
    35.2188  42.4838  42.9249  64.0686  70.0288  70.9477

          k =-0.2500 0.5000 0.0000 (  1153 PWs)   bands (ev):

    -9.5585  -9.3545  -9.2174  -9.1681  -8.9558  13.2336  33.7735  35.8977
    41.5445  48.6645  48.6790  55.1744  58.8432  61.6281

          k = 0.6250-0.3750 0.8750 (  1146 PWs)   bands (ev):

    -9.4887  -9.3966  -9.2126  -9.0549  -8.9057  16.1405  28.2055  34.4758
    38.8695  47.9762  52.0880  54.9939  59.5725  62.2319

          k = 0.5000-0.2500 0.7500 (  1154 PWs)   bands (ev):

    -9.4557  -9.4105  -9.1829  -9.0496  -8.8796  18.4544  24.7699  34.4175
    37.6637  47.7329  51.9734  59.7566  60.2394  60.8979

          k = 0.7500-0.2500 1.0000 (  1142 PWs)   bands (ev):

    -9.6485  -9.4248  -9.0951  -8.9097  -8.8902  17.1831  29.4826  33.2616
    35.2156  47.0970  47.1653  57.9167  65.6698  65.8349

          k = 0.6250-0.1250 0.8750 (  1153 PWs)   bands (ev):

    -9.5416  -9.3561  -9.1488  -9.0012  -8.8463  19.7958  26.8678  30.3919
    34.5351  47.4679  52.9611  55.9027  61.1004  65.3990

          k = 0.5000 0.0000 0.7500 (  1153 PWs)   bands (ev):

    -9.4644  -9.3226  -9.1958  -9.0324  -8.9170  18.8856  28.1840  29.3089
    36.1031  48.5506  53.8296  56.0365  59.7246  63.1216

          k =-0.2500-1.0000 0.0000 (  1152 PWs)   bands (ev):

    -9.6863  -9.4724  -8.9601  -8.9307  -8.7989  20.7484  25.6156  32.3323
    33.2038  46.5853  46.6528  60.4021  64.0271  68.1185

          k =-0.5000-1.0000 0.0000 (  1144 PWs)   bands (ev):

    -9.3736  -9.3332  -9.3332  -9.0239  -8.7989  20.9066  28.3760  28.3760
    31.8575  53.0277  53.2425  53.2425  56.2319  69.8425

     the Fermi energy is    46.9088 ev

!    total energy              =   -1045.26409051 Ry
     Harris-Foulkes estimate   =   -1045.26409051 Ry
     estimated scf accuracy    <          2.0E-10 Ry

     total all-electron energy =    -48490.717063 Ry

     The total energy is the sum of the following terms:

     one-electron contribution =       1.48077538 Ry
     hartree contribution      =      28.19344702 Ry
     xc contribution           =     -63.89472901 Ry
     ewald contribution        =    -242.33311988 Ry
     one-center paw contrib.   =    -768.71014574 Ry
     smearing contrib. (-TS)   =      -0.00031828 Ry

     convergence has been achieved in   6 iterations

     Forces acting on atoms (cartesian axes, Ry/au):

     atom    1 type  1   force =     0.00000000    0.00000000    0.00000000

     Total force =     0.000000     Total SCF correction =     0.000000


     Computing stress (Cartesian axis) and pressure

          total   stress  (Ry/bohr**3)                   (kbar)     P= 6983.99
   0.04747618  -0.00000000  -0.00000000       6983.99     -0.00     -0.00
  -0.00000000   0.04747618  -0.00000000         -0.00   6983.99     -0.00
  -0.00000000  -0.00000000   0.04747618         -0.00     -0.00   6983.99


     Writing output data file Fr.save/

     init_run     :      0.39s CPU      0.40s WALL (       1 calls)
     electrons    :      4.19s CPU      4.35s WALL (       1 calls)
     forces       :      0.05s CPU      0.05s WALL (       1 calls)
     stress       :      0.18s CPU      0.18s WALL (       1 calls)

     Called by init_run:
     wfcinit      :      0.13s CPU      0.13s WALL (       1 calls)
     potinit      :      0.05s CPU      0.05s WALL (       1 calls)
     hinit0       :      0.19s CPU      0.19s WALL (       1 calls)

     Called by electrons:
     c_bands      :      3.24s CPU      3.37s WALL (       7 calls)
     sum_band     :      0.57s CPU      0.60s WALL (       7 calls)
     v_of_rho     :      0.01s CPU      0.01s WALL (       7 calls)
     newd         :      0.07s CPU      0.08s WALL (       7 calls)
     PAW_pot      :      0.34s CPU      0.35s WALL (       7 calls)
     mix_rho      :      0.01s CPU      0.01s WALL (       7 calls)

     Called by c_bands:
     init_us_2    :      0.08s CPU      0.08s WALL (     493 calls)
     cegterg      :      3.12s CPU      3.25s WALL (     203 calls)

     Called by sum_band:
     sum_band:bec :      0.00s CPU      0.00s WALL (     203 calls)
     addusdens    :      0.06s CPU      0.06s WALL (       7 calls)

     Called by *egterg:
     h_psi        :      2.31s CPU      2.41s WALL (     744 calls)
     s_psi        :      0.07s CPU      0.07s WALL (     744 calls)
     g_psi        :      0.01s CPU      0.01s WALL (     512 calls)
     cdiaghg      :      0.33s CPU      0.34s WALL (     686 calls)

     Called by h_psi:
     h_psi:pot    :      2.29s CPU      2.40s WALL (     744 calls)
     h_psi:calbec :      0.11s CPU      0.11s WALL (     744 calls)
     vloc_psi     :      2.10s CPU      2.20s WALL (     744 calls)
     add_vuspsi   :      0.08s CPU      0.08s WALL (     744 calls)

     General routines
     calbec       :      0.18s CPU      0.19s WALL (    1092 calls)
     fft          :      0.01s CPU      0.02s WALL (      38 calls)
     ffts         :      0.00s CPU      0.00s WALL (       7 calls)
     fftw         :      2.35s CPU      2.45s WALL (   17890 calls)

     Parallel routines
     fft_scatt_xy :      0.20s CPU      0.20s WALL (   17935 calls)
     fft_scatt_yz :      0.67s CPU      0.69s WALL (   17935 calls)

     PWSCF        :     5.78s CPU         6.03s WALL


   This run was terminated on:  23: 2:11   7Apr2024            

=------------------------------------------------------------------------------=
   JOB DONE.
=------------------------------------------------------------------------------=
