
     Program PWSCF v.6.3MaX starts on  7Apr2024 at 22:29:38 

     This program is part of the open-source Quantum ESPRESSO suite
     for quantum simulation of materials; please cite
         "P. Giannozzi et al., J. Phys.:Condens. Matter 21 395502 (2009);
         "P. Giannozzi et al., J. Phys.:Condens. Matter 29 465901 (2017);
          URL http://www.quantum-espresso.org", 
     in publications or presentations arising from this work. More details at
     http://www.quantum-espresso.org/quote

     Parallel version (MPI), running on     5 processors

     MPI processes distributed on     1 nodes
     R & G space division:  proc/nbgrp/npool/nimage =       5
     Waiting for input...
     Reading input from standard input

     Current dimensions of program PWSCF are:
     Max number of different atomic species (ntypx) = 10
     Max number of k-points (npk) =  40000
     Max angular momentum in pseudopotentials (lmaxx) =  3

     Subspace diagonalization in iterative solution of the eigenvalue problem:
     a serial algorithm will be used


     Parallelization info
     --------------------
     sticks:   dense  smooth     PW     G-vecs:    dense   smooth      PW
     Min          43      43     14                  445      445      82
     Max          45      45     15                  446      446      83
     Sum         223     223     73                 2229     2229     411



     bravais-lattice index     =            2
     lattice parameter (alat)  =       6.8300  a.u.
     unit-cell volume          =      79.6530 (a.u.)^3
     number of atoms/cell      =            1
     number of atomic types    =            1
     number of electrons       =        19.00
     number of Kohn-Sham states=           14
     kinetic-energy cutoff     =      35.0000  Ry
     charge density cutoff     =     140.0000  Ry
     convergence threshold     =      1.0E-08
     mixing beta               =       0.7000
     number of iterations used =            8  plain     mixing
     Exchange-correlation      = LDA ( 1  1  0  0 0 0)

     celldm(1)=   6.830000  celldm(2)=   0.000000  celldm(3)=   0.000000
     celldm(4)=   0.000000  celldm(5)=   0.000000  celldm(6)=   0.000000

     crystal axes: (cart. coord. in units of alat)
               a(1) = (  -0.500000   0.000000   0.500000 )  
               a(2) = (   0.000000   0.500000   0.500000 )  
               a(3) = (  -0.500000   0.500000   0.000000 )  

     reciprocal axes: (cart. coord. in units 2 pi/alat)
               b(1) = ( -1.000000 -1.000000  1.000000 )  
               b(2) = (  1.000000  1.000000  1.000000 )  
               b(3) = ( -1.000000  1.000000 -1.000000 )  


     PseudoPot. # 1 for Fr read from file:
     /home/lorenzo/pseudos/Fr/Fr.pz-spdn-rrkjus_psl.1.0.0.UPF
     MD5 check sum: 5665a43a3d1ea02b0b7dc7a0ae9ace04
     Pseudo is Ultrasoft + core correction, Zval = 19.0
     Generated using "atomic" code by A. Dal Corso v.6.2.2
     Using radial grid of 1287 points,  6 beta functions with: 
                l(1) =   0
                l(2) =   0
                l(3) =   1
                l(4) =   1
                l(5) =   2
                l(6) =   2
     Q(r) pseudized with 0 coefficients 


     atomic species   valence    mass     pseudopotential
        Fr            19.00   223.00000     Fr( 1.00)

     48 Sym. Ops., with inversion, found



   Cartesian axes

     site n.     atom                  positions (alat units)
         1           Fr  tau(   1) = (   0.0000000   0.0000000   0.0000000  )

     number of k points=     3  gaussian smearing, width (Ry)=  0.0100
                       cart. coord. in units 2pi/alat
        k(    1) = (   0.0000000   0.0000000   0.0000000), wk =   0.2500000
        k(    2) = (   0.5000000  -0.5000000   0.5000000), wk =   1.0000000
        k(    3) = (   0.0000000  -1.0000000   0.0000000), wk =   0.7500000

     Dense  grid:     2229 G-vectors     FFT dimensions: (  20,  20,  20)

     Estimated max dynamical RAM per process >       2.76 MB

     Estimated total dynamical RAM >      13.78 MB

     Check: negative/imaginary core charge=   -0.000020    0.000000

     Initial potential from superposition of free atoms

     starting charge   18.97647, renormalised to   19.00000
     Starting wfcs are   10 randomized atomic wfcs +    4 random wfcs

     total cpu time spent up to now is        1.0 secs

     Self-consistent Calculation

     iteration #  1     ecut=    35.00 Ry     beta= 0.70
     Davidson diagonalization with overlap
     ethr =  1.00E-02,  avg # of iterations =  4.7

     Threshold (ethr) on eigenvalues was too large:
     Diagonalizing with lowered threshold

     Davidson diagonalization with overlap
     ethr =  2.74E-04,  avg # of iterations =  1.0

     total cpu time spent up to now is        1.1 secs

     total energy              =    -281.51661884 Ry
     Harris-Foulkes estimate   =    -281.55816931 Ry
     estimated scf accuracy    <       0.05260123 Ry

     iteration #  2     ecut=    35.00 Ry     beta= 0.70
     Davidson diagonalization with overlap
     ethr =  2.77E-04,  avg # of iterations =  2.3

     total cpu time spent up to now is        1.1 secs

     total energy              =    -281.52969964 Ry
     Harris-Foulkes estimate   =    -281.53138486 Ry
     estimated scf accuracy    <       0.00247715 Ry

     iteration #  3     ecut=    35.00 Ry     beta= 0.70
     Davidson diagonalization with overlap
     ethr =  1.30E-05,  avg # of iterations =  2.7

     total cpu time spent up to now is        1.1 secs

     total energy              =    -281.53016791 Ry
     Harris-Foulkes estimate   =    -281.53019591 Ry
     estimated scf accuracy    <       0.00008050 Ry

     iteration #  4     ecut=    35.00 Ry     beta= 0.70
     Davidson diagonalization with overlap
     ethr =  4.24E-07,  avg # of iterations =  2.3

     total cpu time spent up to now is        1.2 secs

     total energy              =    -281.53017200 Ry
     Harris-Foulkes estimate   =    -281.53017201 Ry
     estimated scf accuracy    <       0.00000035 Ry

     iteration #  5     ecut=    35.00 Ry     beta= 0.70
     Davidson diagonalization with overlap
     ethr =  1.83E-09,  avg # of iterations =  2.0

     total cpu time spent up to now is        1.2 secs

     total energy              =    -281.53017210 Ry
     Harris-Foulkes estimate   =    -281.53017211 Ry
     estimated scf accuracy    <       0.00000002 Ry

     iteration #  6     ecut=    35.00 Ry     beta= 0.70
     Davidson diagonalization with overlap
     ethr =  8.88E-11,  avg # of iterations =  2.0

     total cpu time spent up to now is        1.2 secs

     End of self-consistent calculation

          k = 0.0000 0.0000 0.0000 (   283 PWs)   bands (ev):

    -9.4446  -9.4446  -9.4446  -9.2729  -9.2729   9.1041  46.8162  46.8162
    46.8162  48.1737  54.5267  54.5267  54.5267  57.4305

          k = 0.5000-0.5000 0.5000 (   272 PWs)   bands (ev):

    -9.4484  -9.4484  -9.4158  -8.5658  -8.5658  17.1452  23.0089  42.6071
    42.6071  47.8957  51.4177  52.2838  52.2838  65.1853

          k = 0.0000-1.0000 0.0000 (   286 PWs)   bands (ev):

   -10.1723  -9.7677  -8.8881  -8.5323  -8.5323  20.6057  24.6553  35.2249
    35.2249  42.7041  43.2869  64.2004  70.0866  70.9807

     the Fermi energy is    46.7748 ev

!    total energy              =    -281.53017210 Ry
     Harris-Foulkes estimate   =    -281.53017210 Ry
     estimated scf accuracy    <          1.6E-09 Ry

     The total energy is the sum of the following terms:

     one-electron contribution =      -3.23257167 Ry
     hartree contribution      =      27.71556140 Ry
     xc contribution           =     -63.67811360 Ry
     ewald contribution        =    -242.33311995 Ry
     smearing contrib. (-TS)   =      -0.00192828 Ry

     convergence has been achieved in   6 iterations

     Forces acting on atoms (cartesian axes, Ry/au):

     atom    1 type  1   force =     0.00000000    0.00000000    0.00000000

     Total force =     0.000000     Total SCF correction =     0.000000


     Computing stress (Cartesian axis) and pressure

          total   stress  (Ry/bohr**3)                   (kbar)     P= 1850.01
   0.01257614   0.00000000   0.00000000       1850.01      0.00      0.00
   0.00000000   0.01257614   0.00000000          0.00   1850.01      0.00
   0.00000000   0.00000000   0.01257614          0.00      0.00   1850.01


     Writing output data file Fr.save/

     init_run     :      0.12s CPU      0.12s WALL (       1 calls)
     electrons    :      0.19s CPU      0.20s WALL (       1 calls)
     forces       :      0.01s CPU      0.01s WALL (       1 calls)
     stress       :      0.03s CPU      0.03s WALL (       1 calls)

     Called by init_run:
     wfcinit      :      0.01s CPU      0.01s WALL (       1 calls)
     potinit      :      0.00s CPU      0.00s WALL (       1 calls)
     hinit0       :      0.11s CPU      0.11s WALL (       1 calls)

     Called by electrons:
     c_bands      :      0.13s CPU      0.13s WALL (       7 calls)
     sum_band     :      0.03s CPU      0.04s WALL (       7 calls)
     v_of_rho     :      0.01s CPU      0.01s WALL (       7 calls)
     newd         :      0.02s CPU      0.02s WALL (       7 calls)
     mix_rho      :      0.00s CPU      0.00s WALL (       7 calls)

     Called by c_bands:
     init_us_2    :      0.00s CPU      0.00s WALL (      51 calls)
     cegterg      :      0.12s CPU      0.13s WALL (      21 calls)

     Called by sum_band:
     sum_band:bec :      0.00s CPU      0.00s WALL (      21 calls)
     addusdens    :      0.01s CPU      0.01s WALL (       7 calls)

     Called by *egterg:
     h_psi        :      0.08s CPU      0.08s WALL (      75 calls)
     s_psi        :      0.00s CPU      0.00s WALL (      75 calls)
     g_psi        :      0.00s CPU      0.00s WALL (      51 calls)
     cdiaghg      :      0.03s CPU      0.03s WALL (      69 calls)

     Called by h_psi:
     h_psi:pot    :      0.08s CPU      0.08s WALL (      75 calls)
     h_psi:calbec :      0.00s CPU      0.00s WALL (      75 calls)
     vloc_psi     :      0.07s CPU      0.08s WALL (      75 calls)
     add_vuspsi   :      0.00s CPU      0.00s WALL (      75 calls)

     General routines
     calbec       :      0.00s CPU      0.01s WALL (     111 calls)
     fft          :      0.00s CPU      0.00s WALL (      38 calls)
     ffts         :      0.00s CPU      0.00s WALL (       7 calls)
     fftw         :      0.08s CPU      0.09s WALL (    1830 calls)

     Parallel routines
     fft_scatt_xy :      0.01s CPU      0.01s WALL (    1875 calls)
     fft_scatt_yz :      0.03s CPU      0.03s WALL (    1875 calls)

     PWSCF        :     1.23s CPU         1.28s WALL


   This run was terminated on:  22:29:39   7Apr2024            

=------------------------------------------------------------------------------=
   JOB DONE.
=------------------------------------------------------------------------------=
