
     Program PWSCF v.6.3MaX starts on  7Apr2024 at 22:54:16 

     This program is part of the open-source Quantum ESPRESSO suite
     for quantum simulation of materials; please cite
         "P. Giannozzi et al., J. Phys.:Condens. Matter 21 395502 (2009);
         "P. Giannozzi et al., J. Phys.:Condens. Matter 29 465901 (2017);
          URL http://www.quantum-espresso.org", 
     in publications or presentations arising from this work. More details at
     http://www.quantum-espresso.org/quote

     Parallel version (MPI), running on     5 processors

     MPI processes distributed on     1 nodes
     R & G space division:  proc/nbgrp/npool/nimage =       5
     Waiting for input...
     Reading input from standard input

     Current dimensions of program PWSCF are:
     Max number of different atomic species (ntypx) = 10
     Max number of k-points (npk) =  40000
     Max angular momentum in pseudopotentials (lmaxx) =  3
               file Fr.pz-spdn-kjpaw_psl.1.0.0.UPF: wavefunction(s)  6P renormalized

     Subspace diagonalization in iterative solution of the eigenvalue problem:
     a serial algorithm will be used


     Parallelization info
     --------------------
     sticks:   dense  smooth     PW     G-vecs:    dense   smooth      PW
     Min         102     102     32                 1545     1545     272
     Max         103     103     33                 1546     1546     273
     Sum         511     511    163                 7727     7727    1363



     bravais-lattice index     =            2
     lattice parameter (alat)  =       6.8300  a.u.
     unit-cell volume          =      79.6530 (a.u.)^3
     number of atoms/cell      =            1
     number of atomic types    =            1
     number of electrons       =        19.00
     number of Kohn-Sham states=           14
     kinetic-energy cutoff     =      80.0000  Ry
     charge density cutoff     =     320.0000  Ry
     convergence threshold     =      1.0E-08
     mixing beta               =       0.7000
     number of iterations used =            8  plain     mixing
     Exchange-correlation      = SLA PZ NOGX NOGC ( 1  1  0  0 0 0)

     celldm(1)=   6.830000  celldm(2)=   0.000000  celldm(3)=   0.000000
     celldm(4)=   0.000000  celldm(5)=   0.000000  celldm(6)=   0.000000

     crystal axes: (cart. coord. in units of alat)
               a(1) = (  -0.500000   0.000000   0.500000 )  
               a(2) = (   0.000000   0.500000   0.500000 )  
               a(3) = (  -0.500000   0.500000   0.000000 )  

     reciprocal axes: (cart. coord. in units 2 pi/alat)
               b(1) = ( -1.000000 -1.000000  1.000000 )  
               b(2) = (  1.000000  1.000000  1.000000 )  
               b(3) = ( -1.000000  1.000000 -1.000000 )  


     PseudoPot. # 1 for Fr read from file:
     /home/lorenzo/pseudos/Fr/Fr.pz-spdn-kjpaw_psl.1.0.0.UPF
     MD5 check sum: 60dafd115682613df3cc92ec23a62a32
     Pseudo is Projector augmented-wave + core cor, Zval = 19.0
     Generated using "atomic" code by A. Dal Corso v.6.2.2
     Shape of augmentation charge: PSQ
     Using radial grid of 1287 points,  6 beta functions with: 
                l(1) =   0
                l(2) =   0
                l(3) =   1
                l(4) =   1
                l(5) =   2
                l(6) =   2
     Q(r) pseudized with 0 coefficients 


     atomic species   valence    mass     pseudopotential
        Fr            19.00   223.00000     Fr( 1.00)

     48 Sym. Ops., with inversion, found



   Cartesian axes

     site n.     atom                  positions (alat units)
         1           Fr  tau(   1) = (   0.0000000   0.0000000   0.0000000  )

     number of k points=    10  gaussian smearing, width (Ry)=  0.0100
                       cart. coord. in units 2pi/alat
        k(    1) = (   0.0000000   0.0000000   0.0000000), wk =   0.0160000
        k(    2) = (  -0.2000000   0.2000000  -0.2000000), wk =   0.1280000
        k(    3) = (  -0.4000000   0.4000000  -0.4000000), wk =   0.1280000
        k(    4) = (   0.0000000   0.4000000   0.0000000), wk =   0.0960000
        k(    5) = (  -0.2000000   0.6000000  -0.2000000), wk =   0.3840000
        k(    6) = (   0.6000000  -0.2000000   0.6000000), wk =   0.3840000
        k(    7) = (   0.4000000   0.0000000   0.4000000), wk =   0.1920000
        k(    8) = (   0.0000000   0.8000000   0.0000000), wk =   0.0960000
        k(    9) = (   0.8000000   0.0000000   0.8000000), wk =   0.1920000
        k(   10) = (   0.6000000  -0.2000000   1.0000000), wk =   0.3840000

     Dense  grid:     7727 G-vectors     FFT dimensions: (  27,  27,  27)

     Estimated max dynamical RAM per process >       7.75 MB

     Estimated total dynamical RAM >      38.75 MB

     Initial potential from superposition of free atoms

     starting charge   18.97647, renormalised to   19.00000
     Starting wfcs are   10 randomized atomic wfcs +    4 random wfcs
     Checking if some PAW data can be deallocated... 

     total cpu time spent up to now is        1.3 secs

     Self-consistent Calculation

     iteration #  1     ecut=    80.00 Ry     beta= 0.70
     Davidson diagonalization with overlap
     ethr =  1.00E-02,  avg # of iterations =  4.7

     Threshold (ethr) on eigenvalues was too large:
     Diagonalizing with lowered threshold

     Davidson diagonalization with overlap
     ethr =  9.07E-05,  avg # of iterations =  1.8

     total cpu time spent up to now is        1.8 secs

     total energy              =   -1045.29022106 Ry
     Harris-Foulkes estimate   =   -1045.30224931 Ry
     estimated scf accuracy    <       0.01696146 Ry

     iteration #  2     ecut=    80.00 Ry     beta= 0.70
     Davidson diagonalization with overlap
     ethr =  8.93E-05,  avg # of iterations =  2.0

     total cpu time spent up to now is        2.0 secs

     total energy              =   -1045.29379178 Ry
     Harris-Foulkes estimate   =   -1045.29414115 Ry
     estimated scf accuracy    <       0.00071510 Ry

     iteration #  3     ecut=    80.00 Ry     beta= 0.70
     Davidson diagonalization with overlap
     ethr =  3.76E-06,  avg # of iterations =  2.4

     total cpu time spent up to now is        2.2 secs

     total energy              =   -1045.29389508 Ry
     Harris-Foulkes estimate   =   -1045.29389253 Ry
     estimated scf accuracy    <       0.00001811 Ry

     iteration #  4     ecut=    80.00 Ry     beta= 0.70
     Davidson diagonalization with overlap
     ethr =  9.53E-08,  avg # of iterations =  2.0

     total cpu time spent up to now is        2.4 secs

     total energy              =   -1045.29390018 Ry
     Harris-Foulkes estimate   =   -1045.29389948 Ry
     estimated scf accuracy    <       0.00000029 Ry

     iteration #  5     ecut=    80.00 Ry     beta= 0.70
     Davidson diagonalization with overlap
     ethr =  1.51E-09,  avg # of iterations =  2.3

     total cpu time spent up to now is        2.6 secs

     total energy              =   -1045.29390027 Ry
     Harris-Foulkes estimate   =   -1045.29390025 Ry
     estimated scf accuracy    <       0.00000004 Ry

     iteration #  6     ecut=    80.00 Ry     beta= 0.70
     Davidson diagonalization with overlap
     ethr =  2.26E-10,  avg # of iterations =  2.0

     total cpu time spent up to now is        2.8 secs

     End of self-consistent calculation

          k = 0.0000 0.0000 0.0000 (   941 PWs)   bands (ev):

    -9.4037  -9.4037  -9.4037  -9.0594  -9.0594   9.1048  46.8725  46.8725
    46.8725  48.1065  53.6937  53.6937  53.6937  57.4911

          k =-0.2000 0.2000-0.2000 (   956 PWs)   bands (ev):

    -9.3931  -9.3199  -9.3199  -9.0263  -9.0263  10.7083  36.5251  45.0613
    45.0613  47.9976  54.1177  54.8200  54.8200  57.0262

          k =-0.4000 0.4000-0.4000 (   951 PWs)   bands (ev):

    -9.3895  -9.3389  -9.3389  -8.8106  -8.8106  15.2935  25.6574  42.9690
    42.9690  47.8888  51.3011  51.9373  51.9373  63.3286

          k = 0.0000 0.4000 0.0000 (   966 PWs)   bands (ev):

    -9.5190  -9.1835  -9.1698  -9.1698  -8.9612  11.2419  40.5246  40.7939
    40.7939  45.2325  47.5170  60.0184  60.1822  60.1822

          k =-0.2000 0.6000-0.2000 (   964 PWs)   bands (ev):

    -9.5038  -9.2662  -9.1175  -8.9869  -8.7852  14.8982  29.8755  37.4900
    38.8456  44.7144  51.3715  57.9949  58.3925  60.3290

          k = 0.6000-0.2000 0.6000 (   963 PWs)   bands (ev):

    -9.4156  -9.2267  -9.1598  -8.9112  -8.8226  18.0263  24.8968  34.2644
    40.2897  45.3596  55.4479  55.4794  60.5614  62.2167

          k = 0.4000 0.0000 0.4000 (   967 PWs)   bands (ev):

    -9.3439  -9.3150  -9.1510  -9.1077  -8.8775  13.3471  32.8856  34.8846
    44.6891  48.4158  52.4826  54.7290  55.2751  57.7545

          k = 0.0000 0.8000 0.0000 (   962 PWs)   bands (ev):

    -9.7030  -9.4151  -8.8003  -8.7723  -8.7723  17.5036  28.6413  35.8939
    35.8939  42.8656  43.1948  64.1911  67.6587  67.6588

          k = 0.8000 0.0000 0.8000 (   959 PWs)   bands (ev):

    -9.5926  -9.3351  -8.8580  -8.8440  -8.7650  20.6489  25.9084  30.0579
    36.4620  43.2557  50.0359  61.3084  64.2581  66.1987

          k = 0.6000-0.2000 1.0000 (   974 PWs)   bands (ev):

    -9.3802  -9.3131  -9.0974  -8.8861  -8.7783  18.9506  28.2205  30.4790
    34.3365  50.4563  50.8453  54.4783  61.6033  65.6819

     the Fermi energy is    45.3603 ev

!    total energy              =   -1045.29390027 Ry
     Harris-Foulkes estimate   =   -1045.29390027 Ry
     estimated scf accuracy    <          1.3E-10 Ry

     total all-electron energy =    -48490.746873 Ry

     The total energy is the sum of the following terms:

     one-electron contribution =       1.38896362 Ry
     hartree contribution      =      28.28101761 Ry
     xc contribution           =     -63.91034631 Ry
     ewald contribution        =    -242.33311988 Ry
     one-center paw contrib.   =    -768.71921427 Ry
     smearing contrib. (-TS)   =      -0.00120106 Ry

     convergence has been achieved in   6 iterations

     Forces acting on atoms (cartesian axes, Ry/au):

     atom    1 type  1   force =     0.00000000    0.00000000    0.00000000

     Total force =     0.000000     Total SCF correction =     0.000000


     Computing stress (Cartesian axis) and pressure

          total   stress  (Ry/bohr**3)                   (kbar)     P= 7072.39
   0.04807713  -0.00000000   0.00000000       7072.39     -0.00      0.00
   0.00000000   0.04807713   0.00000000          0.00   7072.39      0.00
   0.00000000   0.00000000   0.04807713          0.00      0.00   7072.39


     Writing output data file Fr.save/

     init_run     :      0.27s CPU      0.28s WALL (       1 calls)
     electrons    :      1.44s CPU      1.50s WALL (       1 calls)
     forces       :      0.04s CPU      0.04s WALL (       1 calls)
     stress       :      0.20s CPU      0.21s WALL (       1 calls)

     Called by init_run:
     wfcinit      :      0.04s CPU      0.04s WALL (       1 calls)
     potinit      :      0.04s CPU      0.05s WALL (       1 calls)
     hinit0       :      0.18s CPU      0.18s WALL (       1 calls)

     Called by electrons:
     c_bands      :      0.89s CPU      0.93s WALL (       7 calls)
     sum_band     :      0.22s CPU      0.23s WALL (       7 calls)
     v_of_rho     :      0.00s CPU      0.01s WALL (       7 calls)
     newd         :      0.05s CPU      0.06s WALL (       7 calls)
     PAW_pot      :      0.32s CPU      0.32s WALL (       7 calls)
     mix_rho      :      0.00s CPU      0.00s WALL (       7 calls)

     Called by c_bands:
     init_us_2    :      0.02s CPU      0.02s WALL (     170 calls)
     cegterg      :      0.85s CPU      0.90s WALL (      70 calls)

     Called by sum_band:
     sum_band:bec :      0.00s CPU      0.00s WALL (      70 calls)
     addusdens    :      0.05s CPU      0.05s WALL (       7 calls)

     Called by *egterg:
     h_psi        :      0.62s CPU      0.66s WALL (     252 calls)
     s_psi        :      0.02s CPU      0.02s WALL (     252 calls)
     g_psi        :      0.00s CPU      0.00s WALL (     172 calls)
     cdiaghg      :      0.10s CPU      0.11s WALL (     232 calls)

     Called by h_psi:
     h_psi:pot    :      0.62s CPU      0.66s WALL (     252 calls)
     h_psi:calbec :      0.03s CPU      0.03s WALL (     252 calls)
     vloc_psi     :      0.57s CPU      0.60s WALL (     252 calls)
     add_vuspsi   :      0.02s CPU      0.02s WALL (     252 calls)

     General routines
     calbec       :      0.11s CPU      0.12s WALL (     372 calls)
     fft          :      0.01s CPU      0.01s WALL (      38 calls)
     ffts         :      0.00s CPU      0.00s WALL (       7 calls)
     fftw         :      0.64s CPU      0.68s WALL (    6070 calls)

     Parallel routines
     fft_scatt_xy :      0.05s CPU      0.05s WALL (    6115 calls)
     fft_scatt_yz :      0.20s CPU      0.21s WALL (    6115 calls)

     PWSCF        :     3.01s CPU         3.17s WALL


   This run was terminated on:  22:54:19   7Apr2024            

=------------------------------------------------------------------------------=
   JOB DONE.
=------------------------------------------------------------------------------=
