
     Program PWSCF v.6.3MaX starts on  7Apr2024 at 22:48: 8 

     This program is part of the open-source Quantum ESPRESSO suite
     for quantum simulation of materials; please cite
         "P. Giannozzi et al., J. Phys.:Condens. Matter 21 395502 (2009);
         "P. Giannozzi et al., J. Phys.:Condens. Matter 29 465901 (2017);
          URL http://www.quantum-espresso.org", 
     in publications or presentations arising from this work. More details at
     http://www.quantum-espresso.org/quote

     Parallel version (MPI), running on     5 processors

     MPI processes distributed on     1 nodes
     R & G space division:  proc/nbgrp/npool/nimage =       5
     Waiting for input...
     Reading input from standard input

     Current dimensions of program PWSCF are:
     Max number of different atomic species (ntypx) = 10
     Max number of k-points (npk) =  40000
     Max angular momentum in pseudopotentials (lmaxx) =  3
               file Fr.pz-spdn-kjpaw_psl.1.0.0.UPF: wavefunction(s)  6P renormalized

     Subspace diagonalization in iterative solution of the eigenvalue problem:
     a serial algorithm will be used


     Parallelization info
     --------------------
     sticks:   dense  smooth     PW     G-vecs:    dense   smooth      PW
     Min          87      87     30                 1245     1245     227
     Max          88      88     31                 1247     1247     228
     Sum         439     439    151                 6231     6231    1139



     bravais-lattice index     =            2
     lattice parameter (alat)  =       6.8300  a.u.
     unit-cell volume          =      79.6530 (a.u.)^3
     number of atoms/cell      =            1
     number of atomic types    =            1
     number of electrons       =        19.00
     number of Kohn-Sham states=           14
     kinetic-energy cutoff     =      70.0000  Ry
     charge density cutoff     =     280.0000  Ry
     convergence threshold     =      1.0E-08
     mixing beta               =       0.7000
     number of iterations used =            8  plain     mixing
     Exchange-correlation      = SLA PZ NOGX NOGC ( 1  1  0  0 0 0)

     celldm(1)=   6.830000  celldm(2)=   0.000000  celldm(3)=   0.000000
     celldm(4)=   0.000000  celldm(5)=   0.000000  celldm(6)=   0.000000

     crystal axes: (cart. coord. in units of alat)
               a(1) = (  -0.500000   0.000000   0.500000 )  
               a(2) = (   0.000000   0.500000   0.500000 )  
               a(3) = (  -0.500000   0.500000   0.000000 )  

     reciprocal axes: (cart. coord. in units 2 pi/alat)
               b(1) = ( -1.000000 -1.000000  1.000000 )  
               b(2) = (  1.000000  1.000000  1.000000 )  
               b(3) = ( -1.000000  1.000000 -1.000000 )  


     PseudoPot. # 1 for Fr read from file:
     /home/lorenzo/pseudos/Fr/Fr.pz-spdn-kjpaw_psl.1.0.0.UPF
     MD5 check sum: 60dafd115682613df3cc92ec23a62a32
     Pseudo is Projector augmented-wave + core cor, Zval = 19.0
     Generated using "atomic" code by A. Dal Corso v.6.2.2
     Shape of augmentation charge: PSQ
     Using radial grid of 1287 points,  6 beta functions with: 
                l(1) =   0
                l(2) =   0
                l(3) =   1
                l(4) =   1
                l(5) =   2
                l(6) =   2
     Q(r) pseudized with 0 coefficients 


     atomic species   valence    mass     pseudopotential
        Fr            19.00   223.00000     Fr( 1.00)

     48 Sym. Ops., with inversion, found



   Cartesian axes

     site n.     atom                  positions (alat units)
         1           Fr  tau(   1) = (   0.0000000   0.0000000   0.0000000  )

     number of k points=    16  gaussian smearing, width (Ry)=  0.0100
                       cart. coord. in units 2pi/alat
        k(    1) = (   0.0000000   0.0000000   0.0000000), wk =   0.0092593
        k(    2) = (  -0.1666667   0.1666667  -0.1666667), wk =   0.0740741
        k(    3) = (  -0.3333333   0.3333333  -0.3333333), wk =   0.0740741
        k(    4) = (   0.5000000  -0.5000000   0.5000000), wk =   0.0370370
        k(    5) = (   0.0000000   0.3333333   0.0000000), wk =   0.0555556
        k(    6) = (  -0.1666667   0.5000000  -0.1666667), wk =   0.2222222
        k(    7) = (   0.6666667  -0.3333333   0.6666667), wk =   0.2222222
        k(    8) = (   0.5000000  -0.1666667   0.5000000), wk =   0.2222222
        k(    9) = (   0.3333333   0.0000000   0.3333333), wk =   0.1111111
        k(   10) = (   0.0000000   0.6666667   0.0000000), wk =   0.0555556
        k(   11) = (   0.8333333  -0.1666667   0.8333333), wk =   0.2222222
        k(   12) = (   0.6666667  -0.0000000   0.6666667), wk =   0.1111111
        k(   13) = (   0.0000000  -1.0000000   0.0000000), wk =   0.0277778
        k(   14) = (   0.6666667  -0.3333333   1.0000000), wk =   0.2222222
        k(   15) = (   0.5000000  -0.1666667   0.8333333), wk =   0.2222222
        k(   16) = (  -0.3333333  -1.0000000   0.0000000), wk =   0.1111111

     Dense  grid:     6231 G-vectors     FFT dimensions: (  25,  25,  25)

     Estimated max dynamical RAM per process >       6.62 MB

     Estimated total dynamical RAM >      33.12 MB

     Check: negative/imaginary core charge=   -0.000002    0.000000

     Initial potential from superposition of free atoms

     starting charge   18.97647, renormalised to   19.00000
     Starting wfcs are   10 randomized atomic wfcs +    4 random wfcs
     Checking if some PAW data can be deallocated... 

     total cpu time spent up to now is        1.3 secs

     Self-consistent Calculation

     iteration #  1     ecut=    70.00 Ry     beta= 0.70
     Davidson diagonalization with overlap
     ethr =  1.00E-02,  avg # of iterations =  4.7

     Threshold (ethr) on eigenvalues was too large:
     Diagonalizing with lowered threshold

     Davidson diagonalization with overlap
     ethr =  9.18E-05,  avg # of iterations =  1.9

     total cpu time spent up to now is        2.1 secs

     total energy              =   -1045.28118789 Ry
     Harris-Foulkes estimate   =   -1045.29347214 Ry
     estimated scf accuracy    <       0.01722819 Ry

     iteration #  2     ecut=    70.00 Ry     beta= 0.70
     Davidson diagonalization with overlap
     ethr =  9.07E-05,  avg # of iterations =  2.0

     total cpu time spent up to now is        2.3 secs

     total energy              =   -1045.28443563 Ry
     Harris-Foulkes estimate   =   -1045.28476090 Ry
     estimated scf accuracy    <       0.00059555 Ry

     iteration #  3     ecut=    70.00 Ry     beta= 0.70
     Davidson diagonalization with overlap
     ethr =  3.13E-06,  avg # of iterations =  3.2

     total cpu time spent up to now is        2.6 secs

     total energy              =   -1045.28451350 Ry
     Harris-Foulkes estimate   =   -1045.28451763 Ry
     estimated scf accuracy    <       0.00001759 Ry

     iteration #  4     ecut=    70.00 Ry     beta= 0.70
     Davidson diagonalization with overlap
     ethr =  9.26E-08,  avg # of iterations =  2.0

     total cpu time spent up to now is        2.9 secs

     total energy              =   -1045.28451819 Ry
     Harris-Foulkes estimate   =   -1045.28451770 Ry
     estimated scf accuracy    <       0.00000018 Ry

     iteration #  5     ecut=    70.00 Ry     beta= 0.70
     Davidson diagonalization with overlap
     ethr =  9.41E-10,  avg # of iterations =  2.4

     total cpu time spent up to now is        3.1 secs

     total energy              =   -1045.28451827 Ry
     Harris-Foulkes estimate   =   -1045.28451824 Ry
     estimated scf accuracy    <       0.00000003 Ry

     iteration #  6     ecut=    70.00 Ry     beta= 0.70
     Davidson diagonalization with overlap
     ethr =  1.32E-10,  avg # of iterations =  2.0

     total cpu time spent up to now is        3.4 secs

     End of self-consistent calculation

          k = 0.0000 0.0000 0.0000 (   749 PWs)   bands (ev):

    -9.4413  -9.4413  -9.4413  -9.0939  -9.0939   9.0973  46.8686  46.8686
    46.8686  48.0999  53.6865  53.6865  53.6865  57.5135

          k =-0.1667 0.1667-0.1667 (   791 PWs)   bands (ev):

    -9.4354  -9.3742  -9.3742  -9.0831  -9.0831  10.2104  38.5885  45.4831
    45.4831  47.9842  54.7949  55.5671  55.5671  56.1313

          k =-0.3333 0.3333-0.3333 (   787 PWs)   bands (ev):

    -9.4287  -9.3622  -9.3622  -8.9213  -8.9213  13.5046  28.8641  43.4933
    43.4933  47.9614  51.9053  52.5691  52.5691  61.1912

          k = 0.5000-0.5000 0.5000 (   778 PWs)   bands (ev):

    -9.4289  -9.3893  -9.3893  -8.8044  -8.8044  17.1292  22.9972  42.6405
    42.6405  47.8362  50.9687  51.5904  51.5904  65.1313

          k = 0.0000 0.3333 0.0000 (   793 PWs)   bands (ev):

    -9.5274  -9.2760  -9.2760  -9.1855  -9.0261  10.5807  41.9620  41.9620
    42.1718  45.7623  49.1985  58.4298  59.0598  59.0598

          k =-0.1667 0.5000-0.1667 (   795 PWs)   bands (ev):

    -9.5310  -9.2893  -9.2024  -9.0858  -8.8901  13.1599  32.5364  39.8460
    40.1417  45.5771  50.4327  57.8928  57.9364  58.7522

          k = 0.6667-0.3333 0.6667 (   792 PWs)   bands (ev):

    -9.4714  -9.3038  -9.2415  -8.9540  -8.7971  17.2786  24.9413  36.9909
    39.8929  45.2491  55.2735  55.2919  58.1755  58.7320

          k = 0.5000-0.1667 0.5000 (   792 PWs)   bands (ev):

    -9.4028  -9.3357  -9.2472  -8.9523  -8.8900  15.8848  27.0991  35.5760
    42.3047  46.6755  53.5216  54.0415  59.9683  60.3255

          k = 0.3333 0.0000 0.3333 (   791 PWs)   bands (ev):

    -9.4201  -9.3360  -9.2604  -9.1476  -8.9526  12.0588  35.1426  37.0070
    46.1649  49.9234  51.0973  53.7234  54.7455  57.0963

          k = 0.0000 0.6667 0.0000 (   797 PWs)   bands (ev):

    -9.6941  -9.3856  -8.9255  -8.9255  -8.8838  15.0005  32.5823  37.0367
    37.0367  43.6328  43.6959  64.3455  64.8774  64.8774

          k = 0.8333-0.1667 0.8333 (   779 PWs)   bands (ev):

    -9.6488  -9.3905  -8.9392  -8.8815  -8.7774  18.6307  27.5676  32.0622
    36.5214  43.3128  48.5905  61.2212  63.0494  68.4010

          k = 0.6667-0.0000 0.6667 (   792 PWs)   bands (ev):

    -9.5154  -9.1466  -9.0765  -9.0077  -8.9101  19.3706  28.0155  28.0503
    38.5334  44.3120  57.1640  58.7634  59.7593  62.3353

          k = 0.0000-1.0000 0.0000 (   790 PWs)   bands (ev):

    -9.7765  -9.4953  -8.8110  -8.7427  -8.7427  20.6282  24.6446  35.2298
    35.2298  42.4630  42.9391  64.0813  70.0341  70.9531

          k = 0.6667-0.3333 1.0000 (   781 PWs)   bands (ev):

    -9.4790  -9.3405  -9.1393  -8.9343  -8.8708  16.3103  30.1226  32.5776
    37.2591  49.2667  49.6785  54.6005  62.3860  64.7883

          k = 0.5000-0.1667 0.8333 (   780 PWs)   bands (ev):

    -9.3942  -9.3198  -9.1063  -9.0195  -8.8124  19.4495  26.0562  31.5086
    35.1879  49.1361  52.4442  58.1475  58.1899  63.9713

          k =-0.3333-1.0000 0.0000 (   772 PWs)   bands (ev):

    -9.5305  -9.3764  -9.0159  -8.9195  -8.7415  20.8519  26.3701  30.9558
    32.4837  48.7216  48.9118  58.0664  60.9457  68.4316

     the Fermi energy is    46.5648 ev

!    total energy              =   -1045.28451827 Ry
     Harris-Foulkes estimate   =   -1045.28451827 Ry
     estimated scf accuracy    <          1.0E-10 Ry

     total all-electron energy =    -48490.737491 Ry

     The total energy is the sum of the following terms:

     one-electron contribution =       1.42703131 Ry
     hartree contribution      =      28.23993903 Ry
     xc contribution           =     -63.90284121 Ry
     ewald contribution        =    -242.33311988 Ry
     one-center paw contrib.   =    -768.71520362 Ry
     smearing contrib. (-TS)   =      -0.00032389 Ry

     convergence has been achieved in   6 iterations

     Forces acting on atoms (cartesian axes, Ry/au):

     atom    1 type  1   force =     0.00000000    0.00000000    0.00000000

     Total force =     0.000000     Total SCF correction =     0.000000


     Computing stress (Cartesian axis) and pressure

          total   stress  (Ry/bohr**3)                   (kbar)     P= 6963.31
   0.04733564   0.00000000  -0.00000000       6963.31      0.00     -0.00
   0.00000000   0.04733564   0.00000000          0.00   6963.31      0.00
  -0.00000000   0.00000000   0.04733564         -0.00      0.00   6963.31


     Writing output data file Fr.save/

     init_run     :      0.36s CPU      0.38s WALL (       1 calls)
     electrons    :      1.96s CPU      2.03s WALL (       1 calls)
     forces       :      0.03s CPU      0.03s WALL (       1 calls)
     stress       :      0.10s CPU      0.10s WALL (       1 calls)

     Called by init_run:
     wfcinit      :      0.09s CPU      0.10s WALL (       1 calls)
     potinit      :      0.05s CPU      0.05s WALL (       1 calls)
     hinit0       :      0.20s CPU      0.21s WALL (       1 calls)

     Called by electrons:
     c_bands      :      1.41s CPU      1.47s WALL (       7 calls)
     sum_band     :      0.24s CPU      0.25s WALL (       7 calls)
     v_of_rho     :      0.00s CPU      0.00s WALL (       7 calls)
     newd         :      0.04s CPU      0.05s WALL (       7 calls)
     PAW_pot      :      0.31s CPU      0.31s WALL (       7 calls)
     mix_rho      :      0.00s CPU      0.00s WALL (       7 calls)

     Called by c_bands:
     init_us_2    :      0.03s CPU      0.03s WALL (     272 calls)
     cegterg      :      1.36s CPU      1.42s WALL (     112 calls)

     Called by sum_band:
     sum_band:bec :      0.00s CPU      0.00s WALL (     112 calls)
     addusdens    :      0.05s CPU      0.05s WALL (       7 calls)

     Called by *egterg:
     h_psi        :      0.97s CPU      1.02s WALL (     418 calls)
     s_psi        :      0.03s CPU      0.03s WALL (     418 calls)
     g_psi        :      0.00s CPU      0.00s WALL (     290 calls)
     cdiaghg      :      0.20s CPU      0.20s WALL (     386 calls)

     Called by h_psi:
     h_psi:pot    :      0.97s CPU      1.02s WALL (     418 calls)
     h_psi:calbec :      0.04s CPU      0.05s WALL (     418 calls)
     vloc_psi     :      0.89s CPU      0.94s WALL (     418 calls)
     add_vuspsi   :      0.03s CPU      0.03s WALL (     418 calls)

     General routines
     calbec       :      0.08s CPU      0.08s WALL (     610 calls)
     fft          :      0.01s CPU      0.01s WALL (      38 calls)
     ffts         :      0.00s CPU      0.00s WALL (       7 calls)
     fftw         :      0.98s CPU      1.03s WALL (    9792 calls)

     Parallel routines
     fft_scatt_xy :      0.07s CPU      0.07s WALL (    9837 calls)
     fft_scatt_yz :      0.31s CPU      0.32s WALL (    9837 calls)

     PWSCF        :     3.42s CPU         3.58s WALL


   This run was terminated on:  22:48:12   7Apr2024            

=------------------------------------------------------------------------------=
   JOB DONE.
=------------------------------------------------------------------------------=
