
     Program PWSCF v.6.3MaX starts on  7Apr2024 at 23: 4: 7 

     This program is part of the open-source Quantum ESPRESSO suite
     for quantum simulation of materials; please cite
         "P. Giannozzi et al., J. Phys.:Condens. Matter 21 395502 (2009);
         "P. Giannozzi et al., J. Phys.:Condens. Matter 29 465901 (2017);
          URL http://www.quantum-espresso.org", 
     in publications or presentations arising from this work. More details at
     http://www.quantum-espresso.org/quote

     Parallel version (MPI), running on     5 processors

     MPI processes distributed on     1 nodes
     R & G space division:  proc/nbgrp/npool/nimage =       5
     Waiting for input...
     Reading input from standard input

     Current dimensions of program PWSCF are:
     Max number of different atomic species (ntypx) = 10
     Max number of k-points (npk) =  40000
     Max angular momentum in pseudopotentials (lmaxx) =  3

     Subspace diagonalization in iterative solution of the eigenvalue problem:
     a serial algorithm will be used


     Parallelization info
     --------------------
     sticks:   dense  smooth     PW     G-vecs:    dense   smooth      PW
     Min         119     119     37                 1967     1967     327
     Max         119     119     38                 1969     1969     329
     Sum         595     595    187                 9841     9841    1639



     bravais-lattice index     =            2
     lattice parameter (alat)  =       6.8300  a.u.
     unit-cell volume          =      79.6530 (a.u.)^3
     number of atoms/cell      =            1
     number of atomic types    =            1
     number of electrons       =        19.00
     number of Kohn-Sham states=           14
     kinetic-energy cutoff     =      95.0000  Ry
     charge density cutoff     =     380.0000  Ry
     convergence threshold     =      1.0E-08
     mixing beta               =       0.7000
     number of iterations used =            8  plain     mixing
     Exchange-correlation      = PBE ( 1  4  3  4 0 0)

     celldm(1)=   6.830000  celldm(2)=   0.000000  celldm(3)=   0.000000
     celldm(4)=   0.000000  celldm(5)=   0.000000  celldm(6)=   0.000000

     crystal axes: (cart. coord. in units of alat)
               a(1) = (  -0.500000   0.000000   0.500000 )  
               a(2) = (   0.000000   0.500000   0.500000 )  
               a(3) = (  -0.500000   0.500000   0.000000 )  

     reciprocal axes: (cart. coord. in units 2 pi/alat)
               b(1) = ( -1.000000 -1.000000  1.000000 )  
               b(2) = (  1.000000  1.000000  1.000000 )  
               b(3) = ( -1.000000  1.000000 -1.000000 )  


     PseudoPot. # 1 for Fr read from file:
     /home/lorenzo/pseudos/Fr/Fr.pbe-spdn-rrkjus_psl.1.0.0.UPF
     MD5 check sum: 07cabfa18982bd6b5b9d8ae5689d9732
     Pseudo is Ultrasoft + core correction, Zval = 19.0
     Generated using "atomic" code by A. Dal Corso v.6.2.2
     Using radial grid of 1287 points,  6 beta functions with: 
                l(1) =   0
                l(2) =   0
                l(3) =   1
                l(4) =   1
                l(5) =   2
                l(6) =   2
     Q(r) pseudized with 0 coefficients 


     atomic species   valence    mass     pseudopotential
        Fr            19.00   223.00000     Fr( 1.00)

     48 Sym. Ops., with inversion, found



   Cartesian axes

     site n.     atom                  positions (alat units)
         1           Fr  tau(   1) = (   0.0000000   0.0000000   0.0000000  )

     number of k points=     3  gaussian smearing, width (Ry)=  0.0100
                       cart. coord. in units 2pi/alat
        k(    1) = (   0.0000000   0.0000000   0.0000000), wk =   0.2500000
        k(    2) = (   0.5000000  -0.5000000   0.5000000), wk =   1.0000000
        k(    3) = (   0.0000000  -1.0000000   0.0000000), wk =   0.7500000

     Dense  grid:     9841 G-vectors     FFT dimensions: (  30,  30,  30)

     Estimated max dynamical RAM per process >       9.21 MB

     Estimated total dynamical RAM >      46.05 MB

     Initial potential from superposition of free atoms

     starting charge   18.97009, renormalised to   19.00000
     Starting wfcs are   10 randomized atomic wfcs +    4 random wfcs

     total cpu time spent up to now is        1.2 secs

     Self-consistent Calculation

     iteration #  1     ecut=    95.00 Ry     beta= 0.70
     Davidson diagonalization with overlap
     ethr =  1.00E-02,  avg # of iterations =  5.0

     Threshold (ethr) on eigenvalues was too large:
     Diagonalizing with lowered threshold

     Davidson diagonalization with overlap
     ethr =  5.01E-05,  avg # of iterations =  1.7

     total cpu time spent up to now is        1.3 secs

     total energy              =    -282.48194875 Ry
     Harris-Foulkes estimate   =    -282.48763121 Ry
     estimated scf accuracy    <       0.00953877 Ry

     iteration #  2     ecut=    95.00 Ry     beta= 0.70
     Davidson diagonalization with overlap
     ethr =  5.02E-05,  avg # of iterations =  2.3

     total cpu time spent up to now is        1.4 secs

     total energy              =    -282.48320418 Ry
     Harris-Foulkes estimate   =    -282.48338409 Ry
     estimated scf accuracy    <       0.00038996 Ry

     iteration #  3     ecut=    95.00 Ry     beta= 0.70
     Davidson diagonalization with overlap
     ethr =  2.05E-06,  avg # of iterations =  2.3

     total cpu time spent up to now is        1.5 secs

     total energy              =    -282.48325205 Ry
     Harris-Foulkes estimate   =    -282.48325639 Ry
     estimated scf accuracy    <       0.00002261 Ry

     iteration #  4     ecut=    95.00 Ry     beta= 0.70
     Davidson diagonalization with overlap
     ethr =  1.19E-07,  avg # of iterations =  2.0

     total cpu time spent up to now is        1.6 secs

     total energy              =    -282.48325388 Ry
     Harris-Foulkes estimate   =    -282.48325383 Ry
     estimated scf accuracy    <       0.00000022 Ry

     iteration #  5     ecut=    95.00 Ry     beta= 0.70
     Davidson diagonalization with overlap
     ethr =  1.17E-09,  avg # of iterations =  2.3

     total cpu time spent up to now is        1.7 secs

     End of self-consistent calculation

          k = 0.0000 0.0000 0.0000 (  1243 PWs)   bands (ev):

    -9.0551  -9.0551  -9.0551  -8.7125  -8.7125   9.5273  47.3588  47.3588
    47.3588  48.3142  53.8915  53.8915  53.8915  57.7838

          k = 0.5000-0.5000 0.5000 (  1224 PWs)   bands (ev):

    -9.0428  -9.0029  -9.0029  -8.4181  -8.4181  17.6491  23.2951  43.0994
    43.0994  48.0279  51.2979  51.7881  51.7881  65.5287

          k = 0.0000-1.0000 0.0000 (  1234 PWs)   bands (ev):

    -9.3857  -9.1111  -8.4269  -8.3549  -8.3549  21.2039  24.9619  35.6111
    35.6111  42.6896  43.1182  64.3970  70.3807  71.3710

     the Fermi energy is    47.3174 ev

!    total energy              =    -282.48325391 Ry
     Harris-Foulkes estimate   =    -282.48325391 Ry
     estimated scf accuracy    <          2.4E-09 Ry

     The total energy is the sum of the following terms:

     one-electron contribution =      -3.91044313 Ry
     hartree contribution      =      28.38364180 Ry
     xc contribution           =     -64.62140442 Ry
     ewald contribution        =    -242.33311988 Ry
     smearing contrib. (-TS)   =      -0.00192828 Ry

     convergence has been achieved in   5 iterations

     Forces acting on atoms (cartesian axes, Ry/au):

     atom    1 type  1   force =     0.00000000    0.00000000    0.00000000

     Total force =     0.000000     Total SCF correction =     0.000000


     Computing stress (Cartesian axis) and pressure

          total   stress  (Ry/bohr**3)                   (kbar)     P= 7976.95
   0.05422623  -0.00000000   0.00000000       7976.95     -0.00      0.00
  -0.00000000   0.05422623   0.00000000         -0.00   7976.95      0.00
   0.00000000   0.00000000   0.05422623          0.00      0.00   7976.95


     Writing output data file Fr.save/

     init_run     :      0.26s CPU      0.27s WALL (       1 calls)
     electrons    :      0.47s CPU      0.50s WALL (       1 calls)
     forces       :      0.04s CPU      0.05s WALL (       1 calls)
     stress       :      0.12s CPU      0.12s WALL (       1 calls)

     Called by init_run:
     wfcinit      :      0.02s CPU      0.02s WALL (       1 calls)
     potinit      :      0.01s CPU      0.01s WALL (       1 calls)
     hinit0       :      0.22s CPU      0.22s WALL (       1 calls)

     Called by electrons:
     c_bands      :      0.29s CPU      0.30s WALL (       6 calls)
     sum_band     :      0.11s CPU      0.12s WALL (       6 calls)
     v_of_rho     :      0.03s CPU      0.04s WALL (       6 calls)
     newd         :      0.06s CPU      0.06s WALL (       6 calls)
     mix_rho      :      0.00s CPU      0.00s WALL (       6 calls)

     Called by c_bands:
     init_us_2    :      0.01s CPU      0.01s WALL (      45 calls)
     cegterg      :      0.28s CPU      0.28s WALL (      18 calls)

     Called by sum_band:
     sum_band:bec :      0.00s CPU      0.00s WALL (      18 calls)
     addusdens    :      0.06s CPU      0.07s WALL (       6 calls)

     Called by *egterg:
     h_psi        :      0.21s CPU      0.22s WALL (      68 calls)
     s_psi        :      0.01s CPU      0.01s WALL (      68 calls)
     g_psi        :      0.00s CPU      0.00s WALL (      47 calls)
     cdiaghg      :      0.03s CPU      0.03s WALL (      62 calls)

     Called by h_psi:
     h_psi:pot    :      0.21s CPU      0.22s WALL (      68 calls)
     h_psi:calbec :      0.01s CPU      0.01s WALL (      68 calls)
     vloc_psi     :      0.19s CPU      0.20s WALL (      68 calls)
     add_vuspsi   :      0.01s CPU      0.01s WALL (      68 calls)

     General routines
     calbec       :      0.02s CPU      0.02s WALL (     101 calls)
     fft          :      0.03s CPU      0.03s WALL (      93 calls)
     ffts         :      0.00s CPU      0.00s WALL (       6 calls)
     fftw         :      0.21s CPU      0.22s WALL (    1598 calls)

     Parallel routines
     fft_scatt_xy :      0.02s CPU      0.02s WALL (    1697 calls)
     fft_scatt_yz :      0.07s CPU      0.08s WALL (    1697 calls)

     PWSCF        :     1.81s CPU         1.89s WALL


   This run was terminated on:  23: 4: 9   7Apr2024            

=------------------------------------------------------------------------------=
   JOB DONE.
=------------------------------------------------------------------------------=
