
     Program PWSCF v.6.3MaX starts on  7Apr2024 at 22:36: 6 

     This program is part of the open-source Quantum ESPRESSO suite
     for quantum simulation of materials; please cite
         "P. Giannozzi et al., J. Phys.:Condens. Matter 21 395502 (2009);
         "P. Giannozzi et al., J. Phys.:Condens. Matter 29 465901 (2017);
          URL http://www.quantum-espresso.org", 
     in publications or presentations arising from this work. More details at
     http://www.quantum-espresso.org/quote

     Parallel version (MPI), running on     5 processors

     MPI processes distributed on     1 nodes
     R & G space division:  proc/nbgrp/npool/nimage =       5
     Waiting for input...
     Reading input from standard input

     Current dimensions of program PWSCF are:
     Max number of different atomic species (ntypx) = 10
     Max number of k-points (npk) =  40000
     Max angular momentum in pseudopotentials (lmaxx) =  3

     Subspace diagonalization in iterative solution of the eigenvalue problem:
     a serial algorithm will be used


     Parallelization info
     --------------------
     sticks:   dense  smooth     PW     G-vecs:    dense   smooth      PW
     Min          62      62     21                  765      765     148
     Max          63      63     22                  770      770     151
     Sum         313     313    109                 3839     3839     749



     bravais-lattice index     =            2
     lattice parameter (alat)  =       6.8300  a.u.
     unit-cell volume          =      79.6530 (a.u.)^3
     number of atoms/cell      =            1
     number of atomic types    =            1
     number of electrons       =        19.00
     number of Kohn-Sham states=           14
     kinetic-energy cutoff     =      50.0000  Ry
     charge density cutoff     =     200.0000  Ry
     convergence threshold     =      1.0E-08
     mixing beta               =       0.7000
     number of iterations used =            8  plain     mixing
     Exchange-correlation      = PBE ( 1  4  3  4 0 0)

     celldm(1)=   6.830000  celldm(2)=   0.000000  celldm(3)=   0.000000
     celldm(4)=   0.000000  celldm(5)=   0.000000  celldm(6)=   0.000000

     crystal axes: (cart. coord. in units of alat)
               a(1) = (  -0.500000   0.000000   0.500000 )  
               a(2) = (   0.000000   0.500000   0.500000 )  
               a(3) = (  -0.500000   0.500000   0.000000 )  

     reciprocal axes: (cart. coord. in units 2 pi/alat)
               b(1) = ( -1.000000 -1.000000  1.000000 )  
               b(2) = (  1.000000  1.000000  1.000000 )  
               b(3) = ( -1.000000  1.000000 -1.000000 )  


     PseudoPot. # 1 for Fr read from file:
     /home/lorenzo/pseudos/Fr/Fr.pbe-spdn-rrkjus_psl.1.0.0.UPF
     MD5 check sum: 07cabfa18982bd6b5b9d8ae5689d9732
     Pseudo is Ultrasoft + core correction, Zval = 19.0
     Generated using "atomic" code by A. Dal Corso v.6.2.2
     Using radial grid of 1287 points,  6 beta functions with: 
                l(1) =   0
                l(2) =   0
                l(3) =   1
                l(4) =   1
                l(5) =   2
                l(6) =   2
     Q(r) pseudized with 0 coefficients 


     atomic species   valence    mass     pseudopotential
        Fr            19.00   223.00000     Fr( 1.00)

     48 Sym. Ops., with inversion, found



   Cartesian axes

     site n.     atom                  positions (alat units)
         1           Fr  tau(   1) = (   0.0000000   0.0000000   0.0000000  )

     number of k points=    56  gaussian smearing, width (Ry)=  0.0100
                       cart. coord. in units 2pi/alat
        k(    1) = (   0.0000000   0.0000000   0.0000000), wk =   0.0015026
        k(    2) = (  -0.0909091   0.0909091  -0.0909091), wk =   0.0120210
        k(    3) = (  -0.1818182   0.1818182  -0.1818182), wk =   0.0120210
        k(    4) = (  -0.2727273   0.2727273  -0.2727273), wk =   0.0120210
        k(    5) = (  -0.3636364   0.3636364  -0.3636364), wk =   0.0120210
        k(    6) = (  -0.4545455   0.4545455  -0.4545455), wk =   0.0120210
        k(    7) = (   0.0000000   0.1818182   0.0000000), wk =   0.0090158
        k(    8) = (  -0.0909091   0.2727273  -0.0909091), wk =   0.0360631
        k(    9) = (  -0.1818182   0.3636364  -0.1818182), wk =   0.0360631
        k(   10) = (  -0.2727273   0.4545455  -0.2727273), wk =   0.0360631
        k(   11) = (  -0.3636364   0.5454545  -0.3636364), wk =   0.0360631
        k(   12) = (   0.5454545  -0.3636364   0.5454545), wk =   0.0360631
        k(   13) = (   0.4545455  -0.2727273   0.4545455), wk =   0.0360631
        k(   14) = (   0.3636364  -0.1818182   0.3636364), wk =   0.0360631
        k(   15) = (   0.2727273  -0.0909091   0.2727273), wk =   0.0360631
        k(   16) = (   0.1818182  -0.0000000   0.1818182), wk =   0.0180316
        k(   17) = (   0.0000000   0.3636364   0.0000000), wk =   0.0090158
        k(   18) = (  -0.0909091   0.4545455  -0.0909091), wk =   0.0360631
        k(   19) = (  -0.1818182   0.5454545  -0.1818182), wk =   0.0360631
        k(   20) = (  -0.2727273   0.6363636  -0.2727273), wk =   0.0360631
        k(   21) = (   0.6363636  -0.2727273   0.6363636), wk =   0.0360631
        k(   22) = (   0.5454545  -0.1818182   0.5454545), wk =   0.0360631
        k(   23) = (   0.4545455  -0.0909091   0.4545455), wk =   0.0360631
        k(   24) = (   0.3636364   0.0000000   0.3636364), wk =   0.0180316
        k(   25) = (   0.0000000   0.5454545   0.0000000), wk =   0.0090158
        k(   26) = (  -0.0909091   0.6363636  -0.0909091), wk =   0.0360631
        k(   27) = (  -0.1818182   0.7272727  -0.1818182), wk =   0.0360631
        k(   28) = (   0.7272727  -0.1818182   0.7272727), wk =   0.0360631
        k(   29) = (   0.6363636  -0.0909091   0.6363636), wk =   0.0360631
        k(   30) = (   0.5454545   0.0000000   0.5454545), wk =   0.0180316
        k(   31) = (   0.0000000   0.7272727   0.0000000), wk =   0.0090158
        k(   32) = (  -0.0909091   0.8181818  -0.0909091), wk =   0.0360631
        k(   33) = (   0.8181818  -0.0909091   0.8181818), wk =   0.0360631
        k(   34) = (   0.7272727   0.0000000   0.7272727), wk =   0.0180316
        k(   35) = (   0.0000000   0.9090909   0.0000000), wk =   0.0090158
        k(   36) = (   0.9090909  -0.0000000   0.9090909), wk =   0.0180316
        k(   37) = (  -0.1818182   0.3636364   0.0000000), wk =   0.0360631
        k(   38) = (  -0.2727273   0.4545455  -0.0909091), wk =   0.0721262
        k(   39) = (  -0.3636364   0.5454545  -0.1818182), wk =   0.0721262
        k(   40) = (   0.5454545  -0.3636364   0.7272727), wk =   0.0721262
        k(   41) = (  -0.1818182   0.5454545   0.0000000), wk =   0.0360631
        k(   42) = (  -0.2727273   0.6363636  -0.0909091), wk =   0.0721262
        k(   43) = (   0.6363636  -0.2727273   0.8181818), wk =   0.0721262
        k(   44) = (   0.5454545  -0.1818182   0.7272727), wk =   0.0721262
        k(   45) = (   0.4545455  -0.0909091   0.6363636), wk =   0.0721262
        k(   46) = (   0.3636364   0.0000000   0.5454545), wk =   0.0360631
        k(   47) = (  -0.1818182   0.7272727   0.0000000), wk =   0.0360631
        k(   48) = (   0.7272727  -0.1818182   0.9090909), wk =   0.0721262
        k(   49) = (   0.6363636  -0.0909091   0.8181818), wk =   0.0721262
        k(   50) = (   0.5454545   0.0000000   0.7272727), wk =   0.0360631
        k(   51) = (   0.8181818  -0.0909091   1.0000000), wk =   0.0360631
        k(   52) = (   0.7272727   0.0000000   0.9090909), wk =   0.0360631
        k(   53) = (   0.6363636  -0.2727273   1.0000000), wk =   0.0360631
        k(   54) = (   0.5454545  -0.1818182   0.9090909), wk =   0.0721262
        k(   55) = (   0.6363636  -0.0909091   1.0000000), wk =   0.0360631
        k(   56) = (   0.5454545   0.0000000   0.9090909), wk =   0.0360631

     Dense  grid:     3839 G-vectors     FFT dimensions: (  24,  24,  24)

     Estimated max dynamical RAM per process >       5.30 MB

     Estimated total dynamical RAM >      26.48 MB

     Check: negative/imaginary core charge=   -0.000008    0.000000

     Initial potential from superposition of free atoms

     starting charge   18.97009, renormalised to   19.00000
     Starting wfcs are   10 randomized atomic wfcs +    4 random wfcs

     total cpu time spent up to now is        1.3 secs

     Self-consistent Calculation

     iteration #  1     ecut=    50.00 Ry     beta= 0.70
     Davidson diagonalization with overlap
     ethr =  1.00E-02,  avg # of iterations =  4.6

     Threshold (ethr) on eigenvalues was too large:
     Diagonalizing with lowered threshold

     Davidson diagonalization with overlap
     ethr =  1.01E-04,  avg # of iterations =  1.8

     total cpu time spent up to now is        2.5 secs

     total energy              =    -282.82882483 Ry
     Harris-Foulkes estimate   =    -282.84055604 Ry
     estimated scf accuracy    <       0.01902868 Ry

     iteration #  2     ecut=    50.00 Ry     beta= 0.70
     Davidson diagonalization with overlap
     ethr =  1.00E-04,  avg # of iterations =  2.0

     total cpu time spent up to now is        3.1 secs

     total energy              =    -282.83167581 Ry
     Harris-Foulkes estimate   =    -282.83212648 Ry
     estimated scf accuracy    <       0.00066185 Ry

     iteration #  3     ecut=    50.00 Ry     beta= 0.70
     Davidson diagonalization with overlap
     ethr =  3.48E-06,  avg # of iterations =  2.5

     total cpu time spent up to now is        3.7 secs

     total energy              =    -282.83178223 Ry
     Harris-Foulkes estimate   =    -282.83179899 Ry
     estimated scf accuracy    <       0.00003910 Ry

     iteration #  4     ecut=    50.00 Ry     beta= 0.70
     Davidson diagonalization with overlap
     ethr =  2.06E-07,  avg # of iterations =  1.7

     total cpu time spent up to now is        4.2 secs

     total energy              =    -282.83178601 Ry
     Harris-Foulkes estimate   =    -282.83178599 Ry
     estimated scf accuracy    <       0.00000013 Ry

     iteration #  5     ecut=    50.00 Ry     beta= 0.70
     Davidson diagonalization with overlap
     ethr =  6.90E-10,  avg # of iterations =  2.6

     total cpu time spent up to now is        4.9 secs

     End of self-consistent calculation

          k = 0.0000 0.0000 0.0000 (   531 PWs)   bands (ev):

    -9.2799  -9.2799  -9.2799  -8.9380  -8.9380   9.4730  47.2950  47.2950
    47.2950  48.3127  53.8866  53.8866  53.8866  57.8198

          k =-0.0909 0.0909-0.0909 (   495 PWs)   bands (ev):

    -9.2756  -9.2519  -9.2519  -8.9361  -8.9361   9.8043  43.6574  46.7825
    46.7825  48.1996  54.7513  54.7513  55.8177  57.6758

          k =-0.1818 0.1818-0.1818 (   489 PWs)   bands (ev):

    -9.2694  -9.2029  -9.2029  -8.9160  -8.9160  10.8005  37.9954  45.6894
    45.6894  48.2310  54.7646  55.4959  55.4959  56.7987

          k =-0.2727 0.2727-0.2727 (   483 PWs)   bands (ev):

    -9.2652  -9.1880  -9.1880  -8.8363  -8.8363  12.4542  32.5296  44.5430
    44.5430  48.2344  53.0487  53.6854  53.6854  59.5130

          k =-0.3636 0.3636-0.3636 (   477 PWs)   bands (ev):

    -9.2645  -9.2057  -9.2057  -8.7285  -8.7285  14.6913  27.6601  43.6200
    43.6200  48.1654  51.8773  52.4819  52.4819  62.5158

          k =-0.4545 0.4545-0.4545 (   470 PWs)   bands (ev):

    -9.2661  -9.2228  -9.2228  -8.6572  -8.6572  17.0451  23.9677  43.1046
    43.1046  48.0767  51.3370  51.8972  51.8972  65.0384

          k = 0.0000 0.1818 0.0000 (   495 PWs)   bands (ev):

    -9.3042  -9.2264  -9.2264  -8.9634  -8.9137   9.9147  45.1369  45.1369
    45.6039  47.3029  54.2277  55.6481  56.3186  56.3186

          k =-0.0909 0.2727-0.0909 (   489 PWs)   bands (ev):

    -9.3147  -9.1721  -9.1676  -8.9802  -8.8833  10.6892  40.0369  43.6145
    45.1717  48.2565  51.5745  55.5336  57.9930  58.2733

          k =-0.1818 0.3636-0.1818 (   482 PWs)   bands (ev):

    -9.3024  -9.1543  -9.1361  -8.9369  -8.8105  12.1253  34.5003  42.4648
    43.9924  48.1311  51.8938  55.4745  56.5950  56.9362

          k =-0.2727 0.4545-0.2727 (   474 PWs)   bands (ev):

    -9.2840  -9.1762  -9.1485  -8.8335  -8.7116  14.1795  29.4407  41.8133
    42.5639  47.1108  53.3672  54.7651  54.9011  57.7770

          k =-0.3636 0.5455-0.3636 (   474 PWs)   bands (ev):

    -9.2704  -9.2003  -9.1714  -8.7344  -8.6507  16.5979  25.2697  41.2181
    41.7565  46.7465  53.4100  53.6307  54.3409  61.0375

          k = 0.5455-0.3636 0.5455 (   477 PWs)   bands (ev):

    -9.2542  -9.2153  -9.1826  -8.6813  -8.6609  17.7408  23.6886  40.2936
    42.3512  46.9793  52.5673  52.8301  55.1402  64.2879

          k = 0.4545-0.2727 0.4545 (   473 PWs)   bands (ev):

    -9.2417  -9.2118  -9.1741  -8.7429  -8.6907  15.7901  26.5268  39.9391
    43.5827  47.7525  51.9556  52.5041  56.3001  61.6785

          k = 0.3636-0.1818 0.3636 (   483 PWs)   bands (ev):

    -9.2532  -9.1860  -9.1557  -8.8665  -8.7566  13.4316  31.0667  40.1699
    45.3031  48.9449  51.5920  52.6677  57.7906  58.3732

          k = 0.2727-0.0909 0.2727 (   485 PWs)   bands (ev):

    -9.2706  -9.1726  -9.1633  -8.9565  -8.8426  11.5740  36.3020  40.9561
    47.0702  49.7047  52.0965  53.4590  55.6167  57.3964

          k = 0.1818-0.0000 0.1818 (   493 PWs)   bands (ev):

    -9.2811  -9.2204  -9.2015  -8.9614  -8.9038  10.3573  41.5220  42.5792
    47.7948  49.0539  54.0695  54.2095  55.1652  56.4730

          k = 0.0000 0.3636 0.0000 (   488 PWs)   bands (ev):

    -9.3750  -9.0845  -9.0845  -9.0396  -8.8551  11.2421  41.7817  41.7817
    41.8888  45.7148  48.6335  59.3751  59.8431  59.8431

          k =-0.0909 0.4545-0.0909 (   480 PWs)   bands (ev):

    -9.3934  -9.1000  -9.0209  -8.9803  -8.7951  12.4572  36.6714  40.4383
    41.2271  45.9688  47.9684  59.3210  59.9117  60.6749

          k =-0.1818 0.5455-0.1818 (   479 PWs)   bands (ev):

    -9.3709  -9.1337  -9.0187  -8.8978  -8.7013  14.3039  31.6277  39.3060
    39.7015  45.3538  51.1163  58.2291  58.4547  59.6489

          k =-0.2727 0.6364-0.2727 (   474 PWs)   bands (ev):

    -9.3349  -9.1342  -9.0416  -8.8370  -8.6419  16.6234  27.2628  37.4422
    39.6515  45.1567  55.1294  56.7060  57.1095  59.6366

          k = 0.6364-0.2727 0.6364 (   473 PWs)   bands (ev):

    -9.3006  -9.1234  -9.0611  -8.7910  -8.6579  18.4752  24.6115  36.0323
    40.3300  45.4611  55.5958  55.6309  59.7000  60.4008

          k = 0.5455-0.1818 0.5455 (   469 PWs)   bands (ev):

    -9.2602  -9.1394  -9.0641  -8.7531  -8.7497  17.3654  26.1829  35.2370
    41.7206  46.2707  54.6433  54.9180  60.9903  61.5649

          k = 0.4545-0.0909 0.4545 (   481 PWs)   bands (ev):

    -9.2159  -9.1873  -9.0505  -8.8907  -8.7435  15.0193  30.1936  35.1475
    43.7106  47.6045  53.5798  54.6447  57.8776  59.3777

          k = 0.3636 0.0000 0.3636 (   477 PWs)   bands (ev):

    -9.2404  -9.1780  -9.0664  -8.9871  -8.7756  12.9992  34.4540  36.3292
    45.9499  49.4681  51.9736  54.3828  55.2159  57.6871

          k = 0.0000 0.5455 0.0000 (   480 PWs)   bands (ev):

    -9.4665  -9.1466  -8.8932  -8.8932  -8.7771  13.4505  36.7368  38.8759
    38.8759  44.4384  45.2068  62.8817  62.8817  64.1418

          k =-0.0909 0.6364-0.0909 (   475 PWs)   bands (ev):

    -9.4791  -9.1899  -8.8563  -8.8137  -8.6990  15.0806  33.0837  36.7875
    37.9452  44.2096  46.3126  61.8387  62.6472  65.0951

          k =-0.1818 0.7273-0.1818 (   468 PWs)   bands (ev):

    -9.4371  -9.1831  -8.8746  -8.7915  -8.6337  17.2298  29.2445  34.2367
    37.7377  44.0259  50.0304  60.1260  61.0926  65.1659

          k = 0.7273-0.1818 0.7273 (   473 PWs)   bands (ev):

    -9.3796  -9.1035  -8.8988  -8.8328  -8.6490  19.3158  26.3673  32.2224
    38.2908  44.2644  54.4633  58.8094  59.6089  65.5330

          k = 0.6364-0.0909 0.6364 (   473 PWs)   bands (ev):

    -9.3230  -9.0096  -8.9156  -8.8874  -8.7430  19.1844  26.7429  30.9453
    39.5783  44.9365  57.8997  58.2910  59.1155  62.4011

          k = 0.5455 0.0000 0.5455 (   477 PWs)   bands (ev):

    -9.2654  -9.0838  -8.9332  -8.8725  -8.8074  17.0980  29.5235  31.0775
    41.4839  46.0581  56.4045  57.1394  58.8035  60.0033

          k = 0.0000 0.7273 0.0000 (   472 PWs)   bands (ev):

    -9.5486  -9.2540  -8.7126  -8.7126  -8.7049  16.4909  31.1290  36.7935
    36.7935  43.5177  43.6061  64.5579  66.4107  66.4107

          k =-0.0909 0.8182-0.0909 (   468 PWs)   bands (ev):

    -9.5442  -9.2746  -8.7250  -8.6732  -8.6265  18.4265  28.4895  34.4343
    36.3692  43.3109  45.4371  63.1945  65.7610  69.1540

          k = 0.8182-0.0909 0.8182 (   474 PWs)   bands (ev):

    -9.4780  -9.2270  -8.7511  -8.7166  -8.6313  20.3882  26.6961  31.2174
    36.7215  43.4616  49.4498  61.6790  64.1161  67.9974

          k = 0.7273 0.0000 0.7273 (   474 PWs)   bands (ev):

    -9.3969  -9.0949  -8.8277  -8.7974  -8.7004  20.6833  27.2484  28.7872
    37.8274  43.9992  54.1802  60.1439  62.0257  64.4488

          k = 0.0000 0.9091 0.0000 (   468 PWs)   bands (ev):

    -9.5987  -9.3216  -8.6615  -8.6030  -8.6030  20.0541  26.1637  35.7099
    35.7099  42.8054  43.1888  64.3957  70.2669  70.2699

          k = 0.9091-0.0000 0.9091 (   466 PWs)   bands (ev):

    -9.5682  -9.3083  -8.6741  -8.6190  -8.6013  21.1410  25.2011  33.7681
    35.8304  43.0306  45.1585  63.6046  68.3796  69.8444

          k =-0.1818 0.3636 0.0000 (   484 PWs)   bands (ev):

    -9.3271  -9.1350  -9.0913  -9.0037  -8.8296  11.6843  37.8984  39.4463
    45.2599  48.4292  49.7038  56.2173  56.7923  59.2227

          k =-0.2727 0.4545-0.0909 (   478 PWs)   bands (ev):

    -9.3036  -9.1519  -9.0575  -8.9475  -8.7531  13.3276  33.1288  37.9571
    43.4102  48.2231  51.4687  54.6617  57.0352  60.9501

          k =-0.3636 0.5455-0.1818 (   477 PWs)   bands (ev):

    -9.2685  -9.1857  -9.0705  -8.8406  -8.6911  15.5306  28.4361  37.4796
    41.4743  47.6283  52.4228  55.8876  57.4846  59.6093

          k = 0.5455-0.3636 0.7273 (   469 PWs)   bands (ev):

    -9.2416  -9.2135  -9.0756  -8.7663  -8.6644  17.8037  24.8851  37.4469
    40.2272  47.3195  52.0127  57.2551  58.3256  60.5627

          k =-0.1818 0.5455 0.0000 (   476 PWs)   bands (ev):

    -9.4063  -9.1384  -8.9673  -8.8986  -8.7356  13.8801  34.5356  36.8022
    40.0515  46.9912  47.2325  58.0168  61.3005  64.2026

          k =-0.2727 0.6364-0.0909 (   470 PWs)   bands (ev):

    -9.3670  -9.1595  -8.9691  -8.8265  -8.6813  15.8874  30.5611  35.2426
    38.2631  46.7603  50.5620  56.2227  61.8427  63.4193

          k = 0.6364-0.2727 0.8182 (   479 PWs)   bands (ev):

    -9.3155  -9.1438  -8.9675  -8.8302  -8.6556  18.1767  26.8479  34.2535
    37.4426  46.8248  53.9324  55.6768  61.4992  62.7200

          k = 0.5455-0.1818 0.7273 (   471 PWs)   bands (ev):

    -9.2733  -9.1337  -8.9349  -8.8670  -8.6796  19.1651  25.5457  33.3259
    37.9215  47.3371  53.5366  59.4769  60.5072  60.9873

          k = 0.4545-0.0909 0.6364 (   478 PWs)   bands (ev):

    -9.2308  -9.1749  -8.9701  -8.8341  -8.7391  17.3798  28.1447  32.8704
    39.3158  48.2927  52.8645  56.6892  59.7239  63.0246

          k = 0.3636 0.0000 0.5455 (   480 PWs)   bands (ev):

    -9.2501  -9.1857  -8.9911  -8.9073  -8.7352  15.1367  31.6851  33.7176
    41.3087  49.4339  51.5194  54.3519  58.8111  61.7250

          k =-0.1818 0.7273 0.0000 (   471 PWs)   bands (ev):

    -9.4802  -9.2235  -8.8377  -8.7150  -8.6689  16.8720  30.7050  34.8969
    36.0960  45.8761  45.9577  60.1587  66.1152  66.3750

          k = 0.7273-0.1818 0.9091 (   476 PWs)   bands (ev):

    -9.4192  -9.2046  -8.8615  -8.7243  -8.6384  19.0204  28.1821  32.2843
    35.4370  45.9418  49.7904  58.4430  64.5851  66.5993

          k = 0.6364-0.0909 0.8182 (   472 PWs)   bands (ev):

    -9.3471  -9.1044  -8.9117  -8.8070  -8.6523  20.4511  26.9152  30.0826
    36.0145  46.4062  54.3687  57.0882  61.4327  64.1699

          k = 0.5455 0.0000 0.7273 (   478 PWs)   bands (ev):

    -9.2862  -9.0403  -8.9706  -8.8413  -8.7253  19.4160  28.4419  29.1832
    37.3757  47.2881  55.5216  57.9643  59.2770  62.3050

          k = 0.8182-0.0909 1.0000 (   467 PWs)   bands (ev):

    -9.5234  -9.2819  -8.7228  -8.6597  -8.6030  20.2696  26.5049  33.8990
    34.4170  45.2479  45.4468  62.0538  66.7192  69.0841

          k = 0.7273 0.0000 0.9091 (   475 PWs)   bands (ev):

    -9.4388  -9.2256  -8.7771  -8.7405  -8.6056  21.2244  26.2334  31.0128
    34.7418  45.6774  49.5227  60.1240  63.6494  67.0049

          k = 0.6364-0.2727 1.0000 (   479 PWs)   bands (ev):

    -9.2925  -9.1846  -8.9727  -8.7331  -8.7207  17.9407  29.4730  31.8547
    36.1589  50.0585  50.4076  54.7806  64.1141  64.2005

          k = 0.5455-0.1818 0.9091 (   478 PWs)   bands (ev):

    -9.2248  -9.1627  -8.9840  -8.8184  -8.6528  19.9104  27.3284  30.9556
    34.8225  50.0653  52.7787  55.7137  59.9672  65.3558

          k = 0.6364-0.0909 1.0000 (   472 PWs)   bands (ev):

    -9.3203  -9.1963  -8.9153  -8.7656  -8.6036  20.7660  27.4628  30.8836
    32.9841  49.8242  50.1322  56.7573  61.0628  68.9208

          k = 0.5455 0.0000 0.9091 (   472 PWs)   bands (ev):

    -9.2306  -9.1107  -9.0417  -8.8122  -8.6047  21.1625  28.1950  28.9193
    33.1257  50.5109  54.6090  54.8918  57.3255  67.9750

     the Fermi energy is    46.8442 ev

!    total energy              =    -282.83178606 Ry
     Harris-Foulkes estimate   =    -282.83178607 Ry
     estimated scf accuracy    <          6.8E-09 Ry

     The total energy is the sum of the following terms:

     one-electron contribution =      -4.06967107 Ry
     hartree contribution      =      28.16058897 Ry
     xc contribution           =     -64.58905143 Ry
     ewald contribution        =    -242.33311993 Ry
     smearing contrib. (-TS)   =      -0.00053261 Ry

     convergence has been achieved in   5 iterations

     Forces acting on atoms (cartesian axes, Ry/au):

     atom    1 type  1   force =     0.00000000    0.00000000    0.00000000

     Total force =     0.000000     Total SCF correction =     0.000000


     Computing stress (Cartesian axis) and pressure

          total   stress  (Ry/bohr**3)                   (kbar)     P= 7152.47
   0.04862151  -0.00000000   0.00000000       7152.47     -0.00      0.00
   0.00000000   0.04862151   0.00000000          0.00   7152.47      0.00
  -0.00000000   0.00000000   0.04862151         -0.00      0.00   7152.47


     Writing output data file Fr.save/

     init_run     :      0.28s CPU      0.30s WALL (       1 calls)
     electrons    :      3.35s CPU      3.59s WALL (       1 calls)
     forces       :      0.04s CPU      0.04s WALL (       1 calls)
     stress       :      0.12s CPU      0.12s WALL (       1 calls)

     Called by init_run:
     wfcinit      :      0.14s CPU      0.15s WALL (       1 calls)
     potinit      :      0.01s CPU      0.01s WALL (       1 calls)
     hinit0       :      0.13s CPU      0.13s WALL (       1 calls)

     Called by electrons:
     c_bands      :      2.87s CPU      3.07s WALL (       6 calls)
     sum_band     :      0.43s CPU      0.46s WALL (       6 calls)
     v_of_rho     :      0.02s CPU      0.02s WALL (       6 calls)
     newd         :      0.04s CPU      0.04s WALL (       6 calls)
     mix_rho      :      0.00s CPU      0.00s WALL (       6 calls)

     Called by c_bands:
     init_us_2    :      0.06s CPU      0.06s WALL (     840 calls)
     cegterg      :      2.77s CPU      2.97s WALL (     336 calls)

     Called by sum_band:
     sum_band:bec :      0.00s CPU      0.00s WALL (     336 calls)
     addusdens    :      0.02s CPU      0.03s WALL (       6 calls)

     Called by *egterg:
     h_psi        :      1.90s CPU      2.06s WALL (    1243 calls)
     s_psi        :      0.06s CPU      0.07s WALL (    1243 calls)
     g_psi        :      0.01s CPU      0.01s WALL (     851 calls)
     cdiaghg      :      0.52s CPU      0.54s WALL (    1131 calls)

     Called by h_psi:
     h_psi:pot    :      1.89s CPU      2.05s WALL (    1243 calls)
     h_psi:calbec :      0.08s CPU      0.09s WALL (    1243 calls)
     vloc_psi     :      1.74s CPU      1.89s WALL (    1243 calls)
     add_vuspsi   :      0.05s CPU      0.06s WALL (    1243 calls)

     General routines
     calbec       :      0.13s CPU      0.14s WALL (    1859 calls)
     fft          :      0.02s CPU      0.02s WALL (      93 calls)
     ffts         :      0.00s CPU      0.00s WALL (       6 calls)
     fftw         :      1.94s CPU      2.09s WALL (   29820 calls)

     Parallel routines
     fft_scatt_xy :      0.17s CPU      0.18s WALL (   29919 calls)
     fft_scatt_yz :      0.67s CPU      0.72s WALL (   29919 calls)

     PWSCF        :     4.81s CPU         5.17s WALL


   This run was terminated on:  22:36:12   7Apr2024            

=------------------------------------------------------------------------------=
   JOB DONE.
=------------------------------------------------------------------------------=
