
     Program PWSCF v.6.3MaX starts on  7Apr2024 at 22:45:24 

     This program is part of the open-source Quantum ESPRESSO suite
     for quantum simulation of materials; please cite
         "P. Giannozzi et al., J. Phys.:Condens. Matter 21 395502 (2009);
         "P. Giannozzi et al., J. Phys.:Condens. Matter 29 465901 (2017);
          URL http://www.quantum-espresso.org", 
     in publications or presentations arising from this work. More details at
     http://www.quantum-espresso.org/quote

     Parallel version (MPI), running on     5 processors

     MPI processes distributed on     1 nodes
     R & G space division:  proc/nbgrp/npool/nimage =       5
     Waiting for input...
     Reading input from standard input

     Current dimensions of program PWSCF are:
     Max number of different atomic species (ntypx) = 10
     Max number of k-points (npk) =  40000
     Max angular momentum in pseudopotentials (lmaxx) =  3
               file Fr.pz-spdn-kjpaw_psl.1.0.0.UPF: wavefunction(s)  6P renormalized

     Subspace diagonalization in iterative solution of the eigenvalue problem:
     a serial algorithm will be used


     Parallelization info
     --------------------
     sticks:   dense  smooth     PW     G-vecs:    dense   smooth      PW
     Min          84      84     27                 1134     1134     213
     Max          85      85     28                 1137     1137     214
     Sum         421     421    139                 5673     5673    1067



     bravais-lattice index     =            2
     lattice parameter (alat)  =       6.8300  a.u.
     unit-cell volume          =      79.6530 (a.u.)^3
     number of atoms/cell      =            1
     number of atomic types    =            1
     number of electrons       =        19.00
     number of Kohn-Sham states=           14
     kinetic-energy cutoff     =      65.0000  Ry
     charge density cutoff     =     260.0000  Ry
     convergence threshold     =      1.0E-08
     mixing beta               =       0.7000
     number of iterations used =            8  plain     mixing
     Exchange-correlation      = SLA PZ NOGX NOGC ( 1  1  0  0 0 0)

     celldm(1)=   6.830000  celldm(2)=   0.000000  celldm(3)=   0.000000
     celldm(4)=   0.000000  celldm(5)=   0.000000  celldm(6)=   0.000000

     crystal axes: (cart. coord. in units of alat)
               a(1) = (  -0.500000   0.000000   0.500000 )  
               a(2) = (   0.000000   0.500000   0.500000 )  
               a(3) = (  -0.500000   0.500000   0.000000 )  

     reciprocal axes: (cart. coord. in units 2 pi/alat)
               b(1) = ( -1.000000 -1.000000  1.000000 )  
               b(2) = (  1.000000  1.000000  1.000000 )  
               b(3) = ( -1.000000  1.000000 -1.000000 )  


     PseudoPot. # 1 for Fr read from file:
     /home/lorenzo/pseudos/Fr/Fr.pz-spdn-kjpaw_psl.1.0.0.UPF
     MD5 check sum: 60dafd115682613df3cc92ec23a62a32
     Pseudo is Projector augmented-wave + core cor, Zval = 19.0
     Generated using "atomic" code by A. Dal Corso v.6.2.2
     Shape of augmentation charge: PSQ
     Using radial grid of 1287 points,  6 beta functions with: 
                l(1) =   0
                l(2) =   0
                l(3) =   1
                l(4) =   1
                l(5) =   2
                l(6) =   2
     Q(r) pseudized with 0 coefficients 


     atomic species   valence    mass     pseudopotential
        Fr            19.00   223.00000     Fr( 1.00)

     48 Sym. Ops., with inversion, found



   Cartesian axes

     site n.     atom                  positions (alat units)
         1           Fr  tau(   1) = (   0.0000000   0.0000000   0.0000000  )

     number of k points=    20  gaussian smearing, width (Ry)=  0.0100
                       cart. coord. in units 2pi/alat
        k(    1) = (   0.0000000   0.0000000   0.0000000), wk =   0.0058309
        k(    2) = (  -0.1428571   0.1428571  -0.1428571), wk =   0.0466472
        k(    3) = (  -0.2857143   0.2857143  -0.2857143), wk =   0.0466472
        k(    4) = (  -0.4285714   0.4285714  -0.4285714), wk =   0.0466472
        k(    5) = (   0.0000000   0.2857143   0.0000000), wk =   0.0349854
        k(    6) = (  -0.1428571   0.4285714  -0.1428571), wk =   0.1399417
        k(    7) = (  -0.2857143   0.5714286  -0.2857143), wk =   0.1399417
        k(    8) = (   0.5714286  -0.2857143   0.5714286), wk =   0.1399417
        k(    9) = (   0.4285714  -0.1428571   0.4285714), wk =   0.1399417
        k(   10) = (   0.2857143  -0.0000000   0.2857143), wk =   0.0699708
        k(   11) = (   0.0000000   0.5714286   0.0000000), wk =   0.0349854
        k(   12) = (  -0.1428571   0.7142857  -0.1428571), wk =   0.1399417
        k(   13) = (   0.7142857  -0.1428571   0.7142857), wk =   0.1399417
        k(   14) = (   0.5714286   0.0000000   0.5714286), wk =   0.0699708
        k(   15) = (   0.0000000   0.8571429   0.0000000), wk =   0.0349854
        k(   16) = (   0.8571429  -0.0000000   0.8571429), wk =   0.0699708
        k(   17) = (  -0.2857143   0.5714286   0.0000000), wk =   0.1399417
        k(   18) = (   0.5714286  -0.2857143   0.8571429), wk =   0.2798834
        k(   19) = (   0.7142857  -0.1428571   1.0000000), wk =   0.1399417
        k(   20) = (   0.5714286   0.0000000   0.8571429), wk =   0.1399417

     Dense  grid:     5673 G-vectors     FFT dimensions: (  25,  25,  25)

     Estimated max dynamical RAM per process >       6.25 MB

     Estimated total dynamical RAM >      31.26 MB

     Check: negative/imaginary core charge=   -0.000003    0.000000

     Initial potential from superposition of free atoms

     starting charge   18.97647, renormalised to   19.00000
     Starting wfcs are   10 randomized atomic wfcs +    4 random wfcs
     Checking if some PAW data can be deallocated... 

     total cpu time spent up to now is        1.3 secs

     Self-consistent Calculation

     iteration #  1     ecut=    65.00 Ry     beta= 0.70
     Davidson diagonalization with overlap
     ethr =  1.00E-02,  avg # of iterations =  4.5

     Threshold (ethr) on eigenvalues was too large:
     Diagonalizing with lowered threshold

     Davidson diagonalization with overlap
     ethr =  9.81E-05,  avg # of iterations =  1.8

     total cpu time spent up to now is        2.0 secs

     total energy              =   -1045.26182986 Ry
     Harris-Foulkes estimate   =   -1045.27504539 Ry
     estimated scf accuracy    <       0.01856472 Ry

     iteration #  2     ecut=    65.00 Ry     beta= 0.70
     Davidson diagonalization with overlap
     ethr =  9.77E-05,  avg # of iterations =  2.0

     total cpu time spent up to now is        2.4 secs

     total energy              =   -1045.26516316 Ry
     Harris-Foulkes estimate   =   -1045.26550472 Ry
     estimated scf accuracy    <       0.00062048 Ry

     iteration #  3     ecut=    65.00 Ry     beta= 0.70
     Davidson diagonalization with overlap
     ethr =  3.27E-06,  avg # of iterations =  3.3

     total cpu time spent up to now is        2.7 secs

     total energy              =   -1045.26524715 Ry
     Harris-Foulkes estimate   =   -1045.26525164 Ry
     estimated scf accuracy    <       0.00001782 Ry

     iteration #  4     ecut=    65.00 Ry     beta= 0.70
     Davidson diagonalization with overlap
     ethr =  9.38E-08,  avg # of iterations =  2.0

     total cpu time spent up to now is        3.0 secs

     total energy              =   -1045.26525215 Ry
     Harris-Foulkes estimate   =   -1045.26525161 Ry
     estimated scf accuracy    <       0.00000024 Ry

     iteration #  5     ecut=    65.00 Ry     beta= 0.70
     Davidson diagonalization with overlap
     ethr =  1.24E-09,  avg # of iterations =  2.3

     total cpu time spent up to now is        3.3 secs

     total energy              =   -1045.26525221 Ry
     Harris-Foulkes estimate   =   -1045.26525219 Ry
     estimated scf accuracy    <       0.00000002 Ry

     iteration #  6     ecut=    65.00 Ry     beta= 0.70
     Davidson diagonalization with overlap
     ethr =  1.28E-10,  avg # of iterations =  2.0

     total cpu time spent up to now is        3.5 secs

     End of self-consistent calculation

          k = 0.0000 0.0000 0.0000 (   725 PWs)   bands (ev):

    -9.4754  -9.4754  -9.4754  -9.1252  -9.1252   9.0921  46.8661  46.8661
    46.8661  48.0951  53.6816  53.6816  53.6816  57.5295

          k =-0.1429 0.1429-0.1429 (   712 PWs)   bands (ev):

    -9.4664  -9.4179  -9.4179  -9.1181  -9.1181   9.9095  40.0769  45.7778
    45.7778  47.9721  55.2420  55.5495  55.5495  56.1300

          k =-0.2857 0.2857-0.2857 (   697 PWs)   bands (ev):

    -9.4596  -9.3803  -9.3803  -9.0069  -9.0069  12.3523  31.4491  43.9900
    43.9900  47.9920  52.5553  53.2242  53.2242  59.6262

          k =-0.4286 0.4286-0.4286 (   709 PWs)   bands (ev):

    -9.4595  -9.4115  -9.4115  -8.8584  -8.8584  16.0247  24.5079  42.7987
    42.7987  47.8766  51.1239  51.7689  51.7689  64.1138

          k = 0.0000 0.2857 0.0000 (   697 PWs)   bands (ev):

    -9.5360  -9.3455  -9.3455  -9.1902  -9.0705  10.1815  42.8309  42.8309
    43.2237  46.1667  50.5830  57.3817  58.1750  58.1750

          k =-0.1429 0.4286-0.1429 (   706 PWs)   bands (ev):

    -9.5453  -9.3076  -9.2652  -9.1570  -8.9734  12.0857  34.6441  40.7649
    41.8909  46.4933  49.9676  57.0436  57.9529  58.3895

          k =-0.2857 0.5714-0.2857 (   713 PWs)   bands (ev):

    -9.5024  -9.3478  -9.2896  -9.0127  -8.8431  15.4451  27.1412  39.1624
    40.1322  45.5734  54.9377  55.4070  56.1128  57.4966

          k = 0.5714-0.2857 0.5714 (   705 PWs)   bands (ev):

    -9.4592  -9.3641  -9.3140  -8.9130  -8.8651  17.5686  23.9819  37.2688
    41.1933  46.0422  53.6363  53.8277  57.9948  62.6724

          k = 0.4286-0.1429 0.4286 (   696 PWs)   bands (ev):

    -9.4124  -9.3920  -9.2958  -9.0499  -8.9197  14.1942  29.4883  36.8766
    43.8671  47.8506  52.3140  53.2864  58.1823  59.4672

          k = 0.2857-0.0000 0.2857 (   698 PWs)   bands (ev):

    -9.4612  -9.3621  -9.3340  -9.1689  -9.0195  11.2712  36.9199  38.6024
    46.9265  50.2358  51.1113  53.5139  54.4416  56.7124

          k = 0.0000 0.5714 0.0000 (   709 PWs)   bands (ev):

    -9.6760  -9.3541  -9.0548  -9.0548  -8.9509  13.4442  35.5118  38.1701
    38.1701  44.0882  44.6523  63.0720  63.0720  64.4855

          k =-0.1429 0.7143-0.1429 (   697 PWs)   bands (ev):

    -9.6645  -9.3955  -9.0312  -8.9625  -8.8299  16.3142  30.0120  34.4077
    37.1429  43.6824  47.9041  60.7815  61.9054  65.5710

          k = 0.7143-0.1429 0.7143 (   704 PWs)   bands (ev):

    -9.5701  -9.2728  -9.0698  -9.0333  -8.8527  19.3195  25.9632  30.9998
    37.9646  44.0347  54.7680  58.6657  59.5432  65.0410

          k = 0.5714 0.0000 0.5714 (   700 PWs)   bands (ev):

    -9.4752  -9.2414  -9.1056  -9.0343  -9.0241  17.3085  28.7352  30.1355
    40.5120  45.4504  56.8653  57.2409  59.2539  60.0186

          k = 0.0000 0.8571 0.0000 (   708 PWs)   bands (ev):

    -9.7853  -9.4997  -8.8539  -8.8111  -8.8111  18.6186  27.0783  35.5652
    35.5652  42.6825  43.0594  64.1288  68.8829  68.8829

          k = 0.8571-0.0000 0.8571 (   706 PWs)   bands (ev):

    -9.7182  -9.4640  -8.8850  -8.8500  -8.8071  20.6789  25.2888  31.7811
    35.8587  42.9804  47.1957  62.4156  66.2812  67.9520

          k =-0.2857 0.5714 0.0000 (   700 PWs)   bands (ev):

    -9.5285  -9.3461  -9.1821  -9.0650  -8.9040  14.4789  32.0734  34.3898
    39.6620  48.7910  49.0447  54.8728  60.2752  63.2772

          k = 0.5714-0.2857 0.8571 (   707 PWs)   bands (ev):

    -9.4393  -9.3739  -9.1501  -9.0233  -8.8697  17.9192  26.5793  33.1214
    37.0125  48.3448  52.2129  56.1571  61.4696  62.2725

          k = 0.7143-0.1429 1.0000 (   698 PWs)   bands (ev):

    -9.6078  -9.4146  -9.0378  -8.8924  -8.8121  19.2673  27.4793  32.0489
    33.5934  47.6909  47.6971  58.1754  64.0101  68.3949

          k = 0.5714 0.0000 0.8571 (   713 PWs)   bands (ev):

    -9.4733  -9.2770  -9.1924  -9.0020  -8.8165  20.3955  27.7505  28.4666
    34.0718  48.5041  54.9109  55.4942  57.8901  65.9226

     the Fermi energy is    47.0034 ev

!    total energy              =   -1045.26525221 Ry
     Harris-Foulkes estimate   =   -1045.26525221 Ry
     estimated scf accuracy    <          1.6E-10 Ry

     total all-electron energy =    -48490.718225 Ry

     The total energy is the sum of the following terms:

     one-electron contribution =       1.46822414 Ry
     hartree contribution      =      28.20970416 Ry
     xc contribution           =     -63.89722023 Ry
     ewald contribution        =    -242.33311988 Ry
     one-center paw contrib.   =    -768.71265240 Ry
     smearing contrib. (-TS)   =      -0.00018800 Ry

     convergence has been achieved in   6 iterations

     Forces acting on atoms (cartesian axes, Ry/au):

     atom    1 type  1   force =     0.00000000    0.00000000    0.00000000

     Total force =     0.000000     Total SCF correction =     0.000000


     Computing stress (Cartesian axis) and pressure

          total   stress  (Ry/bohr**3)                   (kbar)     P= 6911.53
   0.04698362   0.00000000  -0.00000000       6911.53      0.00     -0.00
   0.00000000   0.04698362   0.00000000          0.00   6911.53      0.00
  -0.00000000   0.00000000   0.04698362         -0.00      0.00   6911.53


     Writing output data file Fr.save/

     init_run     :      0.33s CPU      0.34s WALL (       1 calls)
     electrons    :      2.13s CPU      2.24s WALL (       1 calls)
     forces       :      0.04s CPU      0.04s WALL (       1 calls)
     stress       :      0.13s CPU      0.13s WALL (       1 calls)

     Called by init_run:
     wfcinit      :      0.07s CPU      0.08s WALL (       1 calls)
     potinit      :      0.06s CPU      0.06s WALL (       1 calls)
     hinit0       :      0.19s CPU      0.19s WALL (       1 calls)

     Called by electrons:
     c_bands      :      1.52s CPU      1.61s WALL (       7 calls)
     sum_band     :      0.27s CPU      0.29s WALL (       7 calls)
     v_of_rho     :      0.00s CPU      0.00s WALL (       7 calls)
     newd         :      0.04s CPU      0.05s WALL (       7 calls)
     PAW_pot      :      0.33s CPU      0.34s WALL (       7 calls)
     mix_rho      :      0.00s CPU      0.00s WALL (       7 calls)

     Called by c_bands:
     init_us_2    :      0.03s CPU      0.03s WALL (     340 calls)
     cegterg      :      1.47s CPU      1.55s WALL (     140 calls)

     Called by sum_band:
     sum_band:bec :      0.00s CPU      0.00s WALL (     140 calls)
     addusdens    :      0.04s CPU      0.04s WALL (       7 calls)

     Called by *egterg:
     h_psi        :      1.06s CPU      1.13s WALL (     521 calls)
     s_psi        :      0.03s CPU      0.03s WALL (     521 calls)
     g_psi        :      0.00s CPU      0.00s WALL (     361 calls)
     cdiaghg      :      0.23s CPU      0.24s WALL (     481 calls)

     Called by h_psi:
     h_psi:pot    :      1.05s CPU      1.12s WALL (     521 calls)
     h_psi:calbec :      0.05s CPU      0.05s WALL (     521 calls)
     vloc_psi     :      0.97s CPU      1.03s WALL (     521 calls)
     add_vuspsi   :      0.03s CPU      0.03s WALL (     521 calls)

     General routines
     calbec       :      0.10s CPU      0.10s WALL (     761 calls)
     fft          :      0.02s CPU      0.02s WALL (      38 calls)
     ffts         :      0.00s CPU      0.00s WALL (       7 calls)
     fftw         :      1.08s CPU      1.15s WALL (   12258 calls)

     Parallel routines
     fft_scatt_xy :      0.08s CPU      0.09s WALL (   12303 calls)
     fft_scatt_yz :      0.35s CPU      0.37s WALL (   12303 calls)

     PWSCF        :     3.63s CPU         3.81s WALL


   This run was terminated on:  22:45:28   7Apr2024            

=------------------------------------------------------------------------------=
   JOB DONE.
=------------------------------------------------------------------------------=
