
     Program PWSCF v.6.3MaX starts on  7Apr2024 at 22:45: 3 

     This program is part of the open-source Quantum ESPRESSO suite
     for quantum simulation of materials; please cite
         "P. Giannozzi et al., J. Phys.:Condens. Matter 21 395502 (2009);
         "P. Giannozzi et al., J. Phys.:Condens. Matter 29 465901 (2017);
          URL http://www.quantum-espresso.org", 
     in publications or presentations arising from this work. More details at
     http://www.quantum-espresso.org/quote

     Parallel version (MPI), running on     5 processors

     MPI processes distributed on     1 nodes
     R & G space division:  proc/nbgrp/npool/nimage =       5
     Waiting for input...
     Reading input from standard input

     Current dimensions of program PWSCF are:
     Max number of different atomic species (ntypx) = 10
     Max number of k-points (npk) =  40000
     Max angular momentum in pseudopotentials (lmaxx) =  3

     Subspace diagonalization in iterative solution of the eigenvalue problem:
     a serial algorithm will be used


     Parallelization info
     --------------------
     sticks:   dense  smooth     PW     G-vecs:    dense   smooth      PW
     Min          84      84     27                 1134     1134     213
     Max          85      85     28                 1137     1137     214
     Sum         421     421    139                 5673     5673    1067



     bravais-lattice index     =            2
     lattice parameter (alat)  =       6.8300  a.u.
     unit-cell volume          =      79.6530 (a.u.)^3
     number of atoms/cell      =            1
     number of atomic types    =            1
     number of electrons       =        19.00
     number of Kohn-Sham states=           14
     kinetic-energy cutoff     =      65.0000  Ry
     charge density cutoff     =     260.0000  Ry
     convergence threshold     =      1.0E-08
     mixing beta               =       0.7000
     number of iterations used =            8  plain     mixing
     Exchange-correlation      = PBE ( 1  4  3  4 0 0)

     celldm(1)=   6.830000  celldm(2)=   0.000000  celldm(3)=   0.000000
     celldm(4)=   0.000000  celldm(5)=   0.000000  celldm(6)=   0.000000

     crystal axes: (cart. coord. in units of alat)
               a(1) = (  -0.500000   0.000000   0.500000 )  
               a(2) = (   0.000000   0.500000   0.500000 )  
               a(3) = (  -0.500000   0.500000   0.000000 )  

     reciprocal axes: (cart. coord. in units 2 pi/alat)
               b(1) = ( -1.000000 -1.000000  1.000000 )  
               b(2) = (  1.000000  1.000000  1.000000 )  
               b(3) = ( -1.000000  1.000000 -1.000000 )  


     PseudoPot. # 1 for Fr read from file:
     /home/lorenzo/pseudos/Fr/Fr.pbe-spdn-rrkjus_psl.1.0.0.UPF
     MD5 check sum: 07cabfa18982bd6b5b9d8ae5689d9732
     Pseudo is Ultrasoft + core correction, Zval = 19.0
     Generated using "atomic" code by A. Dal Corso v.6.2.2
     Using radial grid of 1287 points,  6 beta functions with: 
                l(1) =   0
                l(2) =   0
                l(3) =   1
                l(4) =   1
                l(5) =   2
                l(6) =   2
     Q(r) pseudized with 0 coefficients 


     atomic species   valence    mass     pseudopotential
        Fr            19.00   223.00000     Fr( 1.00)

     48 Sym. Ops., with inversion, found



   Cartesian axes

     site n.     atom                  positions (alat units)
         1           Fr  tau(   1) = (   0.0000000   0.0000000   0.0000000  )

     number of k points=    16  gaussian smearing, width (Ry)=  0.0100
                       cart. coord. in units 2pi/alat
        k(    1) = (   0.0000000   0.0000000   0.0000000), wk =   0.0092593
        k(    2) = (  -0.1666667   0.1666667  -0.1666667), wk =   0.0740741
        k(    3) = (  -0.3333333   0.3333333  -0.3333333), wk =   0.0740741
        k(    4) = (   0.5000000  -0.5000000   0.5000000), wk =   0.0370370
        k(    5) = (   0.0000000   0.3333333   0.0000000), wk =   0.0555556
        k(    6) = (  -0.1666667   0.5000000  -0.1666667), wk =   0.2222222
        k(    7) = (   0.6666667  -0.3333333   0.6666667), wk =   0.2222222
        k(    8) = (   0.5000000  -0.1666667   0.5000000), wk =   0.2222222
        k(    9) = (   0.3333333   0.0000000   0.3333333), wk =   0.1111111
        k(   10) = (   0.0000000   0.6666667   0.0000000), wk =   0.0555556
        k(   11) = (   0.8333333  -0.1666667   0.8333333), wk =   0.2222222
        k(   12) = (   0.6666667  -0.0000000   0.6666667), wk =   0.1111111
        k(   13) = (   0.0000000  -1.0000000   0.0000000), wk =   0.0277778
        k(   14) = (   0.6666667  -0.3333333   1.0000000), wk =   0.2222222
        k(   15) = (   0.5000000  -0.1666667   0.8333333), wk =   0.2222222
        k(   16) = (  -0.3333333  -1.0000000   0.0000000), wk =   0.1111111

     Dense  grid:     5673 G-vectors     FFT dimensions: (  25,  25,  25)

     Estimated max dynamical RAM per process >       6.13 MB

     Estimated total dynamical RAM >      30.66 MB

     Check: negative/imaginary core charge=   -0.000003    0.000000

     Initial potential from superposition of free atoms

     starting charge   18.97009, renormalised to   19.00000
     Starting wfcs are   10 randomized atomic wfcs +    4 random wfcs

     total cpu time spent up to now is        1.5 secs

     Self-consistent Calculation

     iteration #  1     ecut=    65.00 Ry     beta= 0.70
     Davidson diagonalization with overlap
     ethr =  1.00E-02,  avg # of iterations =  4.5

     Threshold (ethr) on eigenvalues was too large:
     Diagonalizing with lowered threshold

     Davidson diagonalization with overlap
     ethr =  1.12E-04,  avg # of iterations =  2.1

     total cpu time spent up to now is        2.1 secs

     total energy              =    -282.85818196 Ry
     Harris-Foulkes estimate   =    -282.87135663 Ry
     estimated scf accuracy    <       0.02107622 Ry

     iteration #  2     ecut=    65.00 Ry     beta= 0.70
     Davidson diagonalization with overlap
     ethr =  1.11E-04,  avg # of iterations =  2.0

     total cpu time spent up to now is        2.3 secs

     total energy              =    -282.86225372 Ry
     Harris-Foulkes estimate   =    -282.86303988 Ry
     estimated scf accuracy    <       0.00107446 Ry

     iteration #  3     ecut=    65.00 Ry     beta= 0.70
     Davidson diagonalization with overlap
     ethr =  5.66E-06,  avg # of iterations =  2.4

     total cpu time spent up to now is        2.5 secs

     total energy              =    -282.86247037 Ry
     Harris-Foulkes estimate   =    -282.86248269 Ry
     estimated scf accuracy    <       0.00003044 Ry

     iteration #  4     ecut=    65.00 Ry     beta= 0.70
     Davidson diagonalization with overlap
     ethr =  1.60E-07,  avg # of iterations =  2.0

     total cpu time spent up to now is        2.7 secs

     total energy              =    -282.86247329 Ry
     Harris-Foulkes estimate   =    -282.86247352 Ry
     estimated scf accuracy    <       0.00000053 Ry

     iteration #  5     ecut=    65.00 Ry     beta= 0.70
     Davidson diagonalization with overlap
     ethr =  2.79E-09,  avg # of iterations =  2.1

     total cpu time spent up to now is        2.9 secs

     total energy              =    -282.86247344 Ry
     Harris-Foulkes estimate   =    -282.86247346 Ry
     estimated scf accuracy    <       0.00000003 Ry

     iteration #  6     ecut=    65.00 Ry     beta= 0.70
     Davidson diagonalization with overlap
     ethr =  1.40E-10,  avg # of iterations =  2.0

     total cpu time spent up to now is        3.2 secs

     End of self-consistent calculation

          k = 0.0000 0.0000 0.0000 (   725 PWs)   bands (ev):

    -9.2723  -9.2723  -9.2723  -8.9286  -8.9286   9.4775  47.2944  47.2944
    47.2944  48.3178  53.8723  53.8723  53.8723  57.8101

          k =-0.1667 0.1667-0.1667 (   712 PWs)   bands (ev):

    -9.2615  -9.2024  -9.2024  -8.9136  -8.9136  10.5928  38.9363  45.8817
    45.8817  48.2212  55.0636  55.8210  55.8210  56.3669

          k =-0.3333 0.3333-0.3333 (   697 PWs)   bands (ev):

    -9.2549  -9.1887  -9.1887  -8.7527  -8.7527  13.8976  29.1951  43.8899
    43.8899  48.1870  52.1824  52.7736  52.7736  61.4837

          k = 0.5000-0.5000 0.5000 (   718 PWs)   bands (ev):

    -9.2573  -9.2182  -9.2182  -8.6387  -8.6387  17.5665  23.2832  43.0410
    43.0410  48.0566  51.2462  51.7771  51.7771  65.4867

          k = 0.0000 0.3333 0.0000 (   693 PWs)   bands (ev):

    -9.3527  -9.1016  -9.1016  -9.0141  -8.8569  10.9639  42.3202  42.3202
    42.6187  45.9522  49.4148  58.6482  59.3023  59.3023

          k =-0.1667 0.5000-0.1667 (   700 PWs)   bands (ev):

    -9.3549  -9.1166  -9.0297  -8.9155  -8.7226  13.5504  32.8874  40.2000
    40.5085  45.7737  50.7018  58.1228  58.1882  59.0497

          k = 0.6667-0.3333 0.6667 (   706 PWs)   bands (ev):

    -9.2965  -9.1306  -9.0694  -8.7860  -8.6315  17.7061  25.2447  37.3373
    40.2543  45.4568  55.5227  55.5426  58.4643  58.9978

          k = 0.5000-0.1667 0.5000 (   703 PWs)   bands (ev):

    -9.2289  -9.1620  -9.0751  -8.7831  -8.7232  16.2933  27.4221  35.9091
    42.6837  46.8980  53.7842  54.2640  60.2576  60.6139

          k = 0.3333 0.0000 0.3333 (   710 PWs)   bands (ev):

    -9.2445  -9.1639  -9.0878  -8.9786  -8.7865  12.4459  35.5191  37.3064
    46.6001  50.1624  51.3667  53.9590  54.9489  57.3689

          k = 0.0000 0.6667 0.0000 (   717 PWs)   bands (ev):

    -9.5171  -9.2131  -8.7582  -8.7582  -8.7169  15.3972  32.9813  37.3818
    37.3818  43.8033  43.9168  64.6212  65.1632  65.1632

          k = 0.8333-0.1667 0.8333 (   709 PWs)   bands (ev):

    -9.4720  -9.2188  -8.7721  -8.7151  -8.6127  19.0613  27.9197  32.3555
    36.8674  43.5154  48.8400  61.4865  63.3311  68.7640

          k = 0.6667-0.0000 0.6667 (   702 PWs)   bands (ev):

    -9.3393  -8.9767  -8.9070  -8.8384  -8.7409  19.8288  28.3242  28.3434
    38.8857  44.5221  57.4439  59.0068  60.0239  62.6505

          k = 0.0000-1.0000 0.0000 (   692 PWs)   bands (ev):

    -9.5943  -9.3216  -8.6438  -8.5761  -8.5761  21.1079  24.9399  35.5737
    35.5737  42.6957  43.1034  64.3798  70.3568  71.3309

          k = 0.6667-0.3333 1.0000 (   709 PWs)   bands (ev):

    -9.3054  -9.1677  -8.9693  -8.7671  -8.7055  16.7184  30.4951  32.8760
    37.5642  49.5682  49.9033  54.8424  62.6438  65.1321

          k = 0.5000-0.1667 0.8333 (   702 PWs)   bands (ev):

    -9.2204  -9.1475  -8.9370  -8.8508  -8.6466  19.9123  26.3429  31.8388
    35.4795  49.4136  52.6725  58.4340  58.4755  64.2264

          k =-0.3333-1.0000 0.0000 (   708 PWs)   bands (ev):

    -9.3553  -9.2060  -8.8472  -8.7534  -8.5777  21.3448  26.6643  31.2562
    32.7689  48.9375  49.2040  58.3152  61.2610  68.7450

     the Fermi energy is    46.7925 ev

!    total energy              =    -282.86247345 Ry
     Harris-Foulkes estimate   =    -282.86247345 Ry
     estimated scf accuracy    <          2.2E-09 Ry

     The total energy is the sum of the following terms:

     one-electron contribution =      -4.11592949 Ry
     hartree contribution      =      28.17728981 Ry
     xc contribution           =     -64.59032779 Ry
     ewald contribution        =    -242.33311988 Ry
     smearing contrib. (-TS)   =      -0.00038610 Ry

     convergence has been achieved in   6 iterations

     Forces acting on atoms (cartesian axes, Ry/au):

     atom    1 type  1   force =     0.00000000    0.00000000    0.00000000

     Total force =     0.000000     Total SCF correction =     0.000000


     Computing stress (Cartesian axis) and pressure

          total   stress  (Ry/bohr**3)                   (kbar)     P= 7147.84
   0.04859003  -0.00000000   0.00000000       7147.84     -0.00      0.00
   0.00000000   0.04859003  -0.00000000          0.00   7147.84     -0.00
   0.00000000  -0.00000000   0.04859003          0.00     -0.00   7147.84


     Writing output data file Fr.save/

     init_run     :      0.24s CPU      0.25s WALL (       1 calls)
     electrons    :      1.64s CPU      1.72s WALL (       1 calls)
     forces       :      0.04s CPU      0.04s WALL (       1 calls)
     stress       :      0.12s CPU      0.12s WALL (       1 calls)

     Called by init_run:
     wfcinit      :      0.05s CPU      0.06s WALL (       1 calls)
     potinit      :      0.01s CPU      0.01s WALL (       1 calls)
     hinit0       :      0.16s CPU      0.17s WALL (       1 calls)

     Called by electrons:
     c_bands      :      1.30s CPU      1.37s WALL (       7 calls)
     sum_band     :      0.28s CPU      0.29s WALL (       7 calls)
     v_of_rho     :      0.03s CPU      0.03s WALL (       7 calls)
     newd         :      0.05s CPU      0.05s WALL (       7 calls)
     mix_rho      :      0.00s CPU      0.00s WALL (       7 calls)

     Called by c_bands:
     init_us_2    :      0.03s CPU      0.03s WALL (     272 calls)
     cegterg      :      1.25s CPU      1.32s WALL (     112 calls)

     Called by sum_band:
     sum_band:bec :      0.00s CPU      0.00s WALL (     112 calls)
     addusdens    :      0.04s CPU      0.05s WALL (       7 calls)

     Called by *egterg:
     h_psi        :      0.90s CPU      0.96s WALL (     401 calls)
     s_psi        :      0.03s CPU      0.03s WALL (     401 calls)
     g_psi        :      0.00s CPU      0.00s WALL (     273 calls)
     cdiaghg      :      0.18s CPU      0.19s WALL (     369 calls)

     Called by h_psi:
     h_psi:pot    :      0.90s CPU      0.95s WALL (     401 calls)
     h_psi:calbec :      0.04s CPU      0.05s WALL (     401 calls)
     vloc_psi     :      0.82s CPU      0.87s WALL (     401 calls)
     add_vuspsi   :      0.03s CPU      0.03s WALL (     401 calls)

     General routines
     calbec       :      0.07s CPU      0.07s WALL (     593 calls)
     fft          :      0.03s CPU      0.03s WALL (     104 calls)
     ffts         :      0.00s CPU      0.00s WALL (       7 calls)
     fftw         :      0.95s CPU      1.00s WALL (    9976 calls)

     Parallel routines
     fft_scatt_xy :      0.07s CPU      0.08s WALL (   10087 calls)
     fft_scatt_yz :      0.29s CPU      0.31s WALL (   10087 calls)

     PWSCF        :     3.27s CPU         3.41s WALL


   This run was terminated on:  22:45: 6   7Apr2024            

=------------------------------------------------------------------------------=
   JOB DONE.
=------------------------------------------------------------------------------=
