
     Program PWSCF v.6.3MaX starts on  7Apr2024 at 22:27:58 

     This program is part of the open-source Quantum ESPRESSO suite
     for quantum simulation of materials; please cite
         "P. Giannozzi et al., J. Phys.:Condens. Matter 21 395502 (2009);
         "P. Giannozzi et al., J. Phys.:Condens. Matter 29 465901 (2017);
          URL http://www.quantum-espresso.org", 
     in publications or presentations arising from this work. More details at
     http://www.quantum-espresso.org/quote

     Parallel version (MPI), running on     5 processors

     MPI processes distributed on     1 nodes
     R & G space division:  proc/nbgrp/npool/nimage =       5
     Waiting for input...
     Reading input from standard input

     Current dimensions of program PWSCF are:
     Max number of different atomic species (ntypx) = 10
     Max number of k-points (npk) =  40000
     Max angular momentum in pseudopotentials (lmaxx) =  3
               file Fr.pbe-spdn-kjpaw_psl.1.0.0.UPF: wavefunction(s)  6P renormalized

     Subspace diagonalization in iterative solution of the eigenvalue problem:
     a serial algorithm will be used


     Parallelization info
     --------------------
     sticks:   dense  smooth     PW     G-vecs:    dense   smooth      PW
     Min          39      39     13                  361      361      77
     Max          40      40     15                  363      363      78
     Sum         199     199     73                 1807     1807     387



     bravais-lattice index     =            2
     lattice parameter (alat)  =       6.8300  a.u.
     unit-cell volume          =      79.6530 (a.u.)^3
     number of atoms/cell      =            1
     number of atomic types    =            1
     number of electrons       =        19.00
     number of Kohn-Sham states=           14
     kinetic-energy cutoff     =      30.0000  Ry
     charge density cutoff     =     120.0000  Ry
     convergence threshold     =      1.0E-08
     mixing beta               =       0.7000
     number of iterations used =            8  plain     mixing
     Exchange-correlation      = SLA PW PBX PBC ( 1  4  3  4 0 0)

     celldm(1)=   6.830000  celldm(2)=   0.000000  celldm(3)=   0.000000
     celldm(4)=   0.000000  celldm(5)=   0.000000  celldm(6)=   0.000000

     crystal axes: (cart. coord. in units of alat)
               a(1) = (  -0.500000   0.000000   0.500000 )  
               a(2) = (   0.000000   0.500000   0.500000 )  
               a(3) = (  -0.500000   0.500000   0.000000 )  

     reciprocal axes: (cart. coord. in units 2 pi/alat)
               b(1) = ( -1.000000 -1.000000  1.000000 )  
               b(2) = (  1.000000  1.000000  1.000000 )  
               b(3) = ( -1.000000  1.000000 -1.000000 )  


     PseudoPot. # 1 for Fr read from file:
     /home/lorenzo/pseudos/Fr/Fr.pbe-spdn-kjpaw_psl.1.0.0.UPF
     MD5 check sum: 362a188b966a64328b94f1ef5f32e8c4
     Pseudo is Projector augmented-wave + core cor, Zval = 19.0
     Generated using "atomic" code by A. Dal Corso v.6.2.2
     Shape of augmentation charge: PSQ
     Using radial grid of 1287 points,  6 beta functions with: 
                l(1) =   0
                l(2) =   0
                l(3) =   1
                l(4) =   1
                l(5) =   2
                l(6) =   2
     Q(r) pseudized with 0 coefficients 


     atomic species   valence    mass     pseudopotential
        Fr            19.00   223.00000     Fr( 1.00)

     48 Sym. Ops., with inversion, found



   Cartesian axes

     site n.     atom                  positions (alat units)
         1           Fr  tau(   1) = (   0.0000000   0.0000000   0.0000000  )

     number of k points=    16  gaussian smearing, width (Ry)=  0.0100
                       cart. coord. in units 2pi/alat
        k(    1) = (   0.0000000   0.0000000   0.0000000), wk =   0.0092593
        k(    2) = (  -0.1666667   0.1666667  -0.1666667), wk =   0.0740741
        k(    3) = (  -0.3333333   0.3333333  -0.3333333), wk =   0.0740741
        k(    4) = (   0.5000000  -0.5000000   0.5000000), wk =   0.0370370
        k(    5) = (   0.0000000   0.3333333   0.0000000), wk =   0.0555556
        k(    6) = (  -0.1666667   0.5000000  -0.1666667), wk =   0.2222222
        k(    7) = (   0.6666667  -0.3333333   0.6666667), wk =   0.2222222
        k(    8) = (   0.5000000  -0.1666667   0.5000000), wk =   0.2222222
        k(    9) = (   0.3333333   0.0000000   0.3333333), wk =   0.1111111
        k(   10) = (   0.0000000   0.6666667   0.0000000), wk =   0.0555556
        k(   11) = (   0.8333333  -0.1666667   0.8333333), wk =   0.2222222
        k(   12) = (   0.6666667  -0.0000000   0.6666667), wk =   0.1111111
        k(   13) = (   0.0000000  -1.0000000   0.0000000), wk =   0.0277778
        k(   14) = (   0.6666667  -0.3333333   1.0000000), wk =   0.2222222
        k(   15) = (   0.5000000  -0.1666667   0.8333333), wk =   0.2222222
        k(   16) = (  -0.3333333  -1.0000000   0.0000000), wk =   0.1111111

     Dense  grid:     1807 G-vectors     FFT dimensions: (  18,  18,  18)

     Estimated max dynamical RAM per process >       2.48 MB

     Estimated total dynamical RAM >      12.41 MB

     Check: negative/imaginary core charge=   -0.000066    0.000000

     Initial potential from superposition of free atoms

     starting charge   18.97009, renormalised to   19.00000
     Starting wfcs are   10 randomized atomic wfcs +    4 random wfcs
     Checking if some PAW data can be deallocated... 

     total cpu time spent up to now is        1.3 secs

     Self-consistent Calculation

     iteration #  1     ecut=    30.00 Ry     beta= 0.70
     Davidson diagonalization with overlap
     ethr =  1.00E-02,  avg # of iterations =  4.8

     total cpu time spent up to now is        1.6 secs

     total energy              =   -1068.15818230 Ry
     Harris-Foulkes estimate   =   -1068.33383345 Ry
     estimated scf accuracy    <       0.21966068 Ry

     iteration #  2     ecut=    30.00 Ry     beta= 0.70
     Davidson diagonalization with overlap
     ethr =  1.16E-03,  avg # of iterations =  2.2

     total cpu time spent up to now is        1.8 secs

     total energy              =   -1068.21443793 Ry
     Harris-Foulkes estimate   =   -1068.21806913 Ry
     estimated scf accuracy    <       0.01101951 Ry

     iteration #  3     ecut=    30.00 Ry     beta= 0.70
     Davidson diagonalization with overlap
     ethr =  5.80E-05,  avg # of iterations =  2.1

     total cpu time spent up to now is        2.0 secs

     total energy              =   -1068.21563217 Ry
     Harris-Foulkes estimate   =   -1068.21557999 Ry
     estimated scf accuracy    <       0.00047885 Ry

     iteration #  4     ecut=    30.00 Ry     beta= 0.70
     Davidson diagonalization with overlap
     ethr =  2.52E-06,  avg # of iterations =  3.2

     total cpu time spent up to now is        2.3 secs

     total energy              =   -1068.21566384 Ry
     Harris-Foulkes estimate   =   -1068.21566220 Ry
     estimated scf accuracy    <       0.00000245 Ry

     iteration #  5     ecut=    30.00 Ry     beta= 0.70
     Davidson diagonalization with overlap
     ethr =  1.29E-08,  avg # of iterations =  2.6

     total cpu time spent up to now is        2.5 secs

     total energy              =   -1068.21566453 Ry
     Harris-Foulkes estimate   =   -1068.21566459 Ry
     estimated scf accuracy    <       0.00000017 Ry

     iteration #  6     ecut=    30.00 Ry     beta= 0.70
     Davidson diagonalization with overlap
     ethr =  8.89E-10,  avg # of iterations =  2.0

     total cpu time spent up to now is        2.7 secs

     End of self-consistent calculation

          k = 0.0000 0.0000 0.0000 (   229 PWs)   bands (ev):

    -9.3234  -9.3234  -9.3234  -9.0670  -9.0670   9.3072  46.9636  46.9636
    46.9636  48.5615  55.5787  55.5787  55.5787  57.5352

          k =-0.1667 0.1667-0.1667 (   226 PWs)   bands (ev):

    -9.5989  -9.5204  -9.5204  -8.8927  -8.8927  10.4134  38.9126  45.7211
    45.7211  48.5642  55.1890  56.5625  56.5625  57.6243

          k =-0.3333 0.3333-0.3333 (   223 PWs)   bands (ev):

    -9.3303  -9.3303  -9.3024  -9.0571  -9.0571  13.6926  29.1591  43.6900
    43.6900  48.5701  52.6163  54.0553  54.0553  62.1711

          k = 0.5000-0.5000 0.5000 (   228 PWs)   bands (ev):

    -9.7584  -9.4785  -9.4785  -9.2052  -9.2052  17.2637  23.2908  42.7754
    42.7754  48.3057  51.8117  53.1827  53.1827  65.5049

          k = 0.0000 0.3333 0.0000 (   218 PWs)   bands (ev):

    -9.3728  -9.1767  -9.1767  -8.7751  -8.5378  10.7815  42.1652  42.3238
    42.3238  46.8216  50.1521  59.7484  59.8364  59.8364

          k =-0.1667 0.5000-0.1667 (   221 PWs)   bands (ev):

    -9.5086  -9.3546  -9.1817  -9.0447  -8.7586  13.3454  32.7978  40.1621
    40.4702  46.5652  51.2302  58.7701  59.0226  59.6726

          k = 0.6667-0.3333 0.6667 (   223 PWs)   bands (ev):

    -9.4767  -9.2999  -9.1549  -9.1442  -8.9343  17.4225  25.2357  37.3154
    40.1697  46.2011  56.1386  56.6925  58.9318  59.6879

          k = 0.5000-0.1667 0.5000 (   221 PWs)   bands (ev):

    -9.4077  -9.2996  -9.1139  -8.9494  -8.9121  16.0478  27.3892  35.9375
    42.5579  47.5269  54.3395  55.4746  60.8476  60.9352

          k = 0.3333 0.0000 0.3333 (   218 PWs)   bands (ev):

    -9.3203  -9.1777  -9.0197  -8.9522  -8.7341  12.2517  35.3436  37.5480
    46.3039  50.6535  51.6241  54.8920  56.3483  58.1832

          k = 0.0000 0.6667 0.0000 (   218 PWs)   bands (ev):

    -9.7152  -9.4958  -8.8447  -8.8447  -8.5215  15.1709  32.7003  37.3161
    37.3161  44.5963  44.9734  65.3678  65.3678  65.3768

          k = 0.8333-0.1667 0.8333 (   224 PWs)   bands (ev):

    -9.7045  -9.3335  -9.2332  -9.0903  -9.0872  18.7500  27.7711  32.5091
    36.7715  44.3971  49.5934  62.0918  63.6632  68.9326

          k = 0.6667-0.0000 0.6667 (   220 PWs)   bands (ev):

    -9.2275  -9.2233  -9.1248  -9.0534  -9.0130  19.4559  28.3734  28.4148
    38.8139  45.4401  57.9695  59.7387  60.4212  63.3346

          k = 0.0000-1.0000 0.0000 (   222 PWs)   bands (ev):

   -10.0132  -9.4127  -9.1778  -9.1778  -8.5289  20.6955  24.9195  35.4556
    35.4556  43.4371  44.2762  64.6263  70.4496  71.2711

          k = 0.6667-0.3333 1.0000 (   223 PWs)   bands (ev):

    -9.6236  -9.3673  -9.2983  -9.0514  -8.8595  16.4616  30.2955  33.0148
    37.7358  49.7917  50.8096  55.6385  63.2084  65.1370

          k = 0.5000-0.1667 0.8333 (   220 PWs)   bands (ev):

    -9.3836  -9.3046  -8.9959  -8.9956  -8.8526  19.5321  26.3994  31.8176
    35.7294  49.8436  53.7533  58.8055  59.0647  64.8119

          k =-0.3333-1.0000 0.0000 (   216 PWs)   bands (ev):

    -9.1316  -9.1195  -8.9742  -8.8801  -8.7748  20.8783  26.6857  31.3767
    33.0064  49.6617  50.0624  58.9663  61.6545  68.9030

     the Fermi energy is    47.2143 ev

!    total energy              =   -1068.21566455 Ry
     Harris-Foulkes estimate   =   -1068.21566455 Ry
     estimated scf accuracy    <          1.6E-09 Ry

     total all-electron energy =    -48513.825976 Ry

     The total energy is the sum of the following terms:

     one-electron contribution =       3.79371687 Ry
     hartree contribution      =      26.60869693 Ry
     xc contribution           =     -63.98023371 Ry
     ewald contribution        =    -242.33311990 Ry
     one-center paw contrib.   =    -792.30471888 Ry
     smearing contrib. (-TS)   =      -0.00000586 Ry

     convergence has been achieved in   6 iterations

     Forces acting on atoms (cartesian axes, Ry/au):

     atom    1 type  1   force =     0.00000000    0.00000000    0.00000000

     Total force =     0.000000     Total SCF correction =     0.000000


     Computing stress (Cartesian axis) and pressure

          total   stress  (Ry/bohr**3)                   (kbar)     P=-5358.36
  -0.03642541  -0.00000000   0.00000000      -5358.36     -0.00      0.00
  -0.00000000  -0.03642541  -0.00000000         -0.00  -5358.36     -0.00
   0.00000000  -0.00000000  -0.03642541          0.00     -0.00  -5358.36


     Writing output data file Fr.save/

     init_run     :      0.26s CPU      0.29s WALL (       1 calls)
     electrons    :      1.28s CPU      1.44s WALL (       1 calls)
     forces       :      0.01s CPU      0.01s WALL (       1 calls)
     stress       :      0.03s CPU      0.03s WALL (       1 calls)

     Called by init_run:
     wfcinit      :      0.03s CPU      0.03s WALL (       1 calls)
     potinit      :      0.10s CPU      0.12s WALL (       1 calls)
     hinit0       :      0.11s CPU      0.12s WALL (       1 calls)

     Called by electrons:
     c_bands      :      0.57s CPU      0.62s WALL (       6 calls)
     sum_band     :      0.10s CPU      0.10s WALL (       6 calls)
     v_of_rho     :      0.01s CPU      0.01s WALL (       7 calls)
     newd         :      0.01s CPU      0.01s WALL (       7 calls)
     PAW_pot      :      0.69s CPU      0.80s WALL (       7 calls)
     mix_rho      :      0.00s CPU      0.00s WALL (       6 calls)

     Called by c_bands:
     init_us_2    :      0.01s CPU      0.01s WALL (     240 calls)
     cegterg      :      0.56s CPU      0.61s WALL (      96 calls)

     Called by sum_band:
     sum_band:bec :      0.00s CPU      0.00s WALL (      96 calls)
     addusdens    :      0.01s CPU      0.01s WALL (       6 calls)

     Called by *egterg:
     h_psi        :      0.33s CPU      0.37s WALL (     381 calls)
     s_psi        :      0.01s CPU      0.01s WALL (     381 calls)
     g_psi        :      0.00s CPU      0.00s WALL (     269 calls)
     cdiaghg      :      0.17s CPU      0.18s WALL (     365 calls)

     Called by h_psi:
     h_psi:pot    :      0.33s CPU      0.37s WALL (     381 calls)
     h_psi:calbec :      0.02s CPU      0.02s WALL (     381 calls)
     vloc_psi     :      0.30s CPU      0.34s WALL (     381 calls)
     add_vuspsi   :      0.01s CPU      0.01s WALL (     381 calls)

     General routines
     calbec       :      0.02s CPU      0.03s WALL (     557 calls)
     fft          :      0.01s CPU      0.01s WALL (     103 calls)
     ffts         :      0.00s CPU      0.00s WALL (       6 calls)
     fftw         :      0.34s CPU      0.37s WALL (    8756 calls)

     Parallel routines
     fft_scatt_xy :      0.03s CPU      0.03s WALL (    8865 calls)
     fft_scatt_yz :      0.11s CPU      0.12s WALL (    8865 calls)

     PWSCF        :     2.58s CPU         2.82s WALL


   This run was terminated on:  22:28: 0   7Apr2024            

=------------------------------------------------------------------------------=
   JOB DONE.
=------------------------------------------------------------------------------=
