
     Program PWSCF v.6.3MaX starts on  7Apr2024 at 22:14:50 

     This program is part of the open-source Quantum ESPRESSO suite
     for quantum simulation of materials; please cite
         "P. Giannozzi et al., J. Phys.:Condens. Matter 21 395502 (2009);
         "P. Giannozzi et al., J. Phys.:Condens. Matter 29 465901 (2017);
          URL http://www.quantum-espresso.org", 
     in publications or presentations arising from this work. More details at
     http://www.quantum-espresso.org/quote

     Parallel version (MPI), running on     5 processors

     MPI processes distributed on     1 nodes
     R & G space division:  proc/nbgrp/npool/nimage =       5
     Waiting for input...
     Reading input from standard input

     Current dimensions of program PWSCF are:
     Max number of different atomic species (ntypx) = 10
     Max number of k-points (npk) =  40000
     Max angular momentum in pseudopotentials (lmaxx) =  3

     Subspace diagonalization in iterative solution of the eigenvalue problem:
     a serial algorithm will be used


     Parallelization info
     --------------------
     sticks:   dense  smooth     PW     G-vecs:    dense   smooth      PW
     Min         129     129     39                 2168     2168     381
     Max         130     130     40                 2171     2171     384
     Sum         649     649    199                10849    10849    1917



     bravais-lattice index     =            2
     lattice parameter (alat)  =       6.8300  a.u.
     unit-cell volume          =      79.6530 (a.u.)^3
     number of atoms/cell      =            1
     number of atomic types    =            1
     number of electrons       =        19.00
     number of Kohn-Sham states=           14
     kinetic-energy cutoff     =     100.0000  Ry
     charge density cutoff     =     400.0000  Ry
     convergence threshold     =      1.0E-08
     mixing beta               =       0.7000
     number of iterations used =            8  plain     mixing
     Exchange-correlation      = PBE ( 1  4  3  4 0 0)

     celldm(1)=   6.830000  celldm(2)=   0.000000  celldm(3)=   0.000000
     celldm(4)=   0.000000  celldm(5)=   0.000000  celldm(6)=   0.000000

     crystal axes: (cart. coord. in units of alat)
               a(1) = (  -0.500000   0.000000   0.500000 )  
               a(2) = (   0.000000   0.500000   0.500000 )  
               a(3) = (  -0.500000   0.500000   0.000000 )  

     reciprocal axes: (cart. coord. in units 2 pi/alat)
               b(1) = ( -1.000000 -1.000000  1.000000 )  
               b(2) = (  1.000000  1.000000  1.000000 )  
               b(3) = ( -1.000000  1.000000 -1.000000 )  


     PseudoPot. # 1 for Fr read from file:
     /home/lorenzo/pseudos/Fr/Fr.pbe-spdn-rrkjus_psl.1.0.0.UPF
     MD5 check sum: 07cabfa18982bd6b5b9d8ae5689d9732
     Pseudo is Ultrasoft + core correction, Zval = 19.0
     Generated using "atomic" code by A. Dal Corso v.6.2.2
     Using radial grid of 1287 points,  6 beta functions with: 
                l(1) =   0
                l(2) =   0
                l(3) =   1
                l(4) =   1
                l(5) =   2
                l(6) =   2
     Q(r) pseudized with 0 coefficients 


     atomic species   valence    mass     pseudopotential
        Fr            19.00   223.00000     Fr( 1.00)

     48 Sym. Ops., with inversion, found



   Cartesian axes

     site n.     atom                  positions (alat units)
         1           Fr  tau(   1) = (   0.0000000   0.0000000   0.0000000  )

     number of k points=    47  gaussian smearing, width (Ry)=  0.0100
                       cart. coord. in units 2pi/alat
        k(    1) = (   0.0000000   0.0000000   0.0000000), wk =   0.0020000
        k(    2) = (  -0.1000000   0.1000000  -0.1000000), wk =   0.0160000
        k(    3) = (  -0.2000000   0.2000000  -0.2000000), wk =   0.0160000
        k(    4) = (  -0.3000000   0.3000000  -0.3000000), wk =   0.0160000
        k(    5) = (  -0.4000000   0.4000000  -0.4000000), wk =   0.0160000
        k(    6) = (   0.5000000  -0.5000000   0.5000000), wk =   0.0080000
        k(    7) = (   0.0000000   0.2000000   0.0000000), wk =   0.0120000
        k(    8) = (  -0.1000000   0.3000000  -0.1000000), wk =   0.0480000
        k(    9) = (  -0.2000000   0.4000000  -0.2000000), wk =   0.0480000
        k(   10) = (  -0.3000000   0.5000000  -0.3000000), wk =   0.0480000
        k(   11) = (   0.6000000  -0.4000000   0.6000000), wk =   0.0480000
        k(   12) = (   0.5000000  -0.3000000   0.5000000), wk =   0.0480000
        k(   13) = (   0.4000000  -0.2000000   0.4000000), wk =   0.0480000
        k(   14) = (   0.3000000  -0.1000000   0.3000000), wk =   0.0480000
        k(   15) = (   0.2000000   0.0000000   0.2000000), wk =   0.0240000
        k(   16) = (   0.0000000   0.4000000   0.0000000), wk =   0.0120000
        k(   17) = (  -0.1000000   0.5000000  -0.1000000), wk =   0.0480000
        k(   18) = (  -0.2000000   0.6000000  -0.2000000), wk =   0.0480000
        k(   19) = (   0.7000000  -0.3000000   0.7000000), wk =   0.0480000
        k(   20) = (   0.6000000  -0.2000000   0.6000000), wk =   0.0480000
        k(   21) = (   0.5000000  -0.1000000   0.5000000), wk =   0.0480000
        k(   22) = (   0.4000000   0.0000000   0.4000000), wk =   0.0240000
        k(   23) = (   0.0000000   0.6000000   0.0000000), wk =   0.0120000
        k(   24) = (  -0.1000000   0.7000000  -0.1000000), wk =   0.0480000
        k(   25) = (   0.8000000  -0.2000000   0.8000000), wk =   0.0480000
        k(   26) = (   0.7000000  -0.1000000   0.7000000), wk =   0.0480000
        k(   27) = (   0.6000000  -0.0000000   0.6000000), wk =   0.0240000
        k(   28) = (   0.0000000   0.8000000   0.0000000), wk =   0.0120000
        k(   29) = (   0.9000000  -0.1000000   0.9000000), wk =   0.0480000
        k(   30) = (   0.8000000   0.0000000   0.8000000), wk =   0.0240000
        k(   31) = (   0.0000000  -1.0000000   0.0000000), wk =   0.0060000
        k(   32) = (  -0.2000000   0.4000000   0.0000000), wk =   0.0480000
        k(   33) = (  -0.3000000   0.5000000  -0.1000000), wk =   0.0960000
        k(   34) = (   0.6000000  -0.4000000   0.8000000), wk =   0.0960000
        k(   35) = (   0.5000000  -0.3000000   0.7000000), wk =   0.0480000
        k(   36) = (  -0.2000000   0.6000000   0.0000000), wk =   0.0480000
        k(   37) = (   0.7000000  -0.3000000   0.9000000), wk =   0.0960000
        k(   38) = (   0.6000000  -0.2000000   0.8000000), wk =   0.0960000
        k(   39) = (   0.5000000  -0.1000000   0.7000000), wk =   0.0960000
        k(   40) = (   0.4000000   0.0000000   0.6000000), wk =   0.0480000
        k(   41) = (   0.8000000  -0.2000000   1.0000000), wk =   0.0480000
        k(   42) = (   0.7000000  -0.1000000   0.9000000), wk =   0.0960000
        k(   43) = (   0.6000000   0.0000000   0.8000000), wk =   0.0480000
        k(   44) = (  -0.2000000  -1.0000000   0.0000000), wk =   0.0240000
        k(   45) = (   0.6000000  -0.2000000   1.0000000), wk =   0.0480000
        k(   46) = (   0.5000000  -0.1000000   0.9000000), wk =   0.0480000
        k(   47) = (  -0.4000000  -1.0000000   0.0000000), wk =   0.0240000

     Dense  grid:    10849 G-vectors     FFT dimensions: (  32,  32,  32)

     Estimated max dynamical RAM per process >      12.63 MB

     Estimated total dynamical RAM >      63.15 MB

     Initial potential from superposition of free atoms

     starting charge   18.97009, renormalised to   19.00000
     Starting wfcs are   10 randomized atomic wfcs +    4 random wfcs

     total cpu time spent up to now is        1.4 secs

     Self-consistent Calculation

     iteration #  1     ecut=   100.00 Ry     beta= 0.70
     Davidson diagonalization with overlap
     ethr =  1.00E-02,  avg # of iterations =  4.8

     Threshold (ethr) on eigenvalues was too large:
     Diagonalizing with lowered threshold

     Davidson diagonalization with overlap
     ethr =  1.04E-04,  avg # of iterations =  1.9

     total cpu time spent up to now is        3.4 secs

     total energy              =    -282.84548304 Ry
     Harris-Foulkes estimate   =    -282.85767681 Ry
     estimated scf accuracy    <       0.01961380 Ry

     iteration #  2     ecut=   100.00 Ry     beta= 0.70
     Davidson diagonalization with overlap
     ethr =  1.03E-04,  avg # of iterations =  2.0

     total cpu time spent up to now is        4.2 secs

     total energy              =    -282.84878224 Ry
     Harris-Foulkes estimate   =    -282.84935004 Ry
     estimated scf accuracy    <       0.00077773 Ry

     iteration #  3     ecut=   100.00 Ry     beta= 0.70
     Davidson diagonalization with overlap
     ethr =  4.09E-06,  avg # of iterations =  2.4

     total cpu time spent up to now is        5.1 secs

     total energy              =    -282.84893405 Ry
     Harris-Foulkes estimate   =    -282.84895069 Ry
     estimated scf accuracy    <       0.00003637 Ry

     iteration #  4     ecut=   100.00 Ry     beta= 0.70
     Davidson diagonalization with overlap
     ethr =  1.91E-07,  avg # of iterations =  1.5

     total cpu time spent up to now is        5.9 secs

     total energy              =    -282.84893754 Ry
     Harris-Foulkes estimate   =    -282.84893755 Ry
     estimated scf accuracy    <       0.00000016 Ry

     iteration #  5     ecut=   100.00 Ry     beta= 0.70
     Davidson diagonalization with overlap
     ethr =  8.20E-10,  avg # of iterations =  2.2

     total cpu time spent up to now is        7.0 secs

     End of self-consistent calculation

          k = 0.0000 0.0000 0.0000 (  1363 PWs)   bands (ev):

    -9.2740  -9.2740  -9.2740  -8.9307  -8.9307   9.4724  47.2889  47.2889
    47.2889  48.3083  53.8663  53.8663  53.8663  57.8169

          k =-0.1000 0.1000-0.1000 (  1357 PWs)   bands (ev):

    -9.2701  -9.2429  -9.2429  -8.9301  -8.9301   9.8734  43.0958  46.6787
    46.6787  48.1935  54.8678  54.8678  55.8557  57.4405

          k =-0.2000 0.2000-0.2000 (  1345 PWs)   bands (ev):

    -9.2629  -9.1905  -9.1905  -8.8984  -8.8984  11.0788  36.8597  45.4427
    45.4427  48.2236  54.3911  55.0588  55.0588  57.2634

          k =-0.3000 0.3000-0.3000 (  1356 PWs)   bands (ev):

    -9.2589  -9.1860  -9.1860  -8.7967  -8.7967  13.0709  30.9849  44.2235
    44.2235  48.2087  52.6136  53.2184  53.2184  60.3689

          k =-0.4000 0.4000-0.4000 (  1362 PWs)   bands (ev):

    -9.2594  -9.2085  -9.2085  -8.6862  -8.6862  15.6831  25.9682  43.3496
    43.3496  48.1184  51.5616  52.1299  52.1299  63.6403

          k = 0.5000-0.5000 0.5000 (  1350 PWs)   bands (ev):

    -9.2603  -9.2199  -9.2199  -8.6407  -8.6407  17.5606  23.2787  43.0318
    43.0318  48.0571  51.2372  51.7755  51.7755  65.4827

          k = 0.0000 0.2000 0.0000 (  1343 PWs)   bands (ev):

    -9.3055  -9.2106  -9.2106  -8.9630  -8.9039  10.0069  44.7928  44.7928
    45.2966  47.1270  53.5941  55.9202  56.6550  56.6550

          k =-0.1000 0.3000-0.1000 (  1346 PWs)   bands (ev):

    -9.3161  -9.1504  -9.1447  -8.9791  -8.8640  10.9442  39.1161  43.1329
    44.7479  48.2029  50.9201  55.7580  58.1580  58.3908

          k =-0.2000 0.4000-0.2000 (  1342 PWs)   bands (ev):

    -9.2992  -9.1465  -9.1221  -8.9124  -8.7719  12.6774  33.1253  41.9838
    43.3208  47.5421  52.3259  55.5931  56.3393  56.8558

          k =-0.3000 0.5000-0.3000 (  1345 PWs)   bands (ev):

    -9.2783  -9.1755  -9.1422  -8.7962  -8.6721  15.1135  27.8197  41.4956
    41.6667  46.6760  53.9944  54.5913  54.6390  58.4319

          k = 0.6000-0.4000 0.6000 (  1346 PWs)   bands (ev):

    -9.2603  -9.1965  -9.1639  -8.7037  -8.6379  17.5731  24.0370  40.2974
    41.7751  46.6080  53.2115  53.3799  55.1331  62.3433

          k = 0.5000-0.3000 0.5000 (  1348 PWs)   bands (ev):

    -9.2369  -9.2088  -9.1658  -8.6968  -8.6765  16.8752  25.0080  39.5529
    42.8592  47.2251  52.3598  52.7249  56.2387  62.9585

          k = 0.4000-0.2000 0.4000 (  1355 PWs)   bands (ev):

    -9.2383  -9.1903  -9.1478  -8.8244  -8.7226  14.2362  29.5020  39.5307
    44.6500  48.4712  51.7523  52.6312  57.7660  59.2299

          k = 0.3000-0.1000 0.3000 (  1351 PWs)   bands (ev):

    -9.2599  -9.1663  -9.1437  -8.9432  -8.8117  12.0130  35.0672  40.2144
    46.7399  49.8308  51.6290  53.1861  55.9662  57.6984

          k = 0.2000 0.0000 0.2000 (  1353 PWs)   bands (ev):

    -9.2750  -9.2038  -9.1868  -8.9590  -8.8885  10.5426  40.7556  41.9144
    47.8215  49.2574  53.6090  54.2313  54.7335  56.4824

          k = 0.0000 0.4000 0.0000 (  1343 PWs)   bands (ev):

    -9.3877  -9.0533  -9.0421  -9.0421  -8.8335  11.6133  40.9548  41.1359
    41.1359  45.4017  47.7369  60.2296  60.4399  60.4399

          k =-0.1000 0.5000-0.1000 (  1339 PWs)   bands (ev):

    -9.4054  -9.1124  -8.9800  -8.9354  -8.7586  13.0801  35.4973  39.7707
    40.0676  45.4458  47.7784  60.0060  60.1220  61.2334

          k =-0.2000 0.6000-0.2000 (  1345 PWs)   bands (ev):

    -9.3725  -9.1355  -8.9895  -8.8612  -8.6608  15.2819  30.2107  37.8201
    39.1855  44.9176  51.6371  58.2382  58.6497  60.5968

          k = 0.7000-0.3000 0.7000 (  1344 PWs)   bands (ev):

    -9.3284  -9.1111  -9.0159  -8.8216  -8.6304  17.8396  25.9752  35.8675
    39.4681  44.9560  56.1822  56.7113  57.2390  60.9365

          k = 0.6000-0.2000 0.6000 (  1350 PWs)   bands (ev):

    -9.2842  -9.0980  -9.0311  -8.7855  -8.6981  18.4477  25.1841  34.5834
    40.6380  45.5780  55.7042  55.7053  60.8468  62.5003

          k = 0.5000-0.1000 0.5000 (  1342 PWs)   bands (ev):

    -9.2325  -9.1441  -9.0240  -8.8418  -8.7478  16.0983  28.8120  34.1348
    42.6096  46.8059  54.5324  55.2264  58.9331  60.1379

          k = 0.4000 0.0000 0.4000 (  1344 PWs)   bands (ev):

    -9.2143  -9.1847  -9.0237  -8.9786  -8.7516  13.7247  33.2497  35.1675
    45.0730  48.6525  52.7388  54.9971  55.4729  58.0288

          k = 0.0000 0.6000 0.0000 (  1351 PWs)   bands (ev):

    -9.4887  -9.1755  -8.8279  -8.8279  -8.7460  14.2792  35.0428  38.1460
    38.1460  44.1081  44.5391  63.8719  63.8719  64.7076

          k =-0.1000 0.7000-0.1000 (  1341 PWs)   bands (ev):

    -9.4946  -9.2146  -8.8056  -8.7543  -8.6574  16.2245  31.4318  35.5370
    37.3232  43.8071  46.2807  62.1326  63.3976  66.6871

          k = 0.8000-0.2000 0.8000 (  1341 PWs)   bands (ev):

    -9.4355  -9.1798  -8.8311  -8.7641  -8.6195  18.6500  27.9502  32.5078
    37.4059  43.7924  50.6357  60.3563  61.6315  66.9365

          k = 0.7000-0.1000 0.7000 (  1333 PWs)   bands (ev):

    -9.3646  -9.0495  -8.8579  -8.8544  -8.6846  20.0532  26.4847  30.3571
    38.4085  44.2788  55.7250  59.0492  60.0517  64.4137

          k = 0.6000-0.0000 0.6000 (  1336 PWs)   bands (ev):

    -9.2956  -9.0062  -8.8929  -8.8688  -8.8090  18.4149  28.6931  29.7535
    40.2355  45.2832  57.8977  57.9616  60.3260  60.4549

          k = 0.0000 0.8000 0.0000 (  1347 PWs)   bands (ev):

    -9.5698  -9.2817  -8.6747  -8.6494  -8.6494  17.8999  28.9945  36.2275
    36.2275  43.1138  43.3452  64.4678  67.9615  67.9615

          k = 0.9000-0.1000 0.9000 (  1341 PWs)   bands (ev):

    -9.5497  -9.2869  -8.6876  -8.6342  -8.6020  20.0227  26.5469  33.6764
    36.0417  43.1098  45.5833  63.3115  66.8402  69.7590

          k = 0.8000 0.0000 0.8000 (  1348 PWs)   bands (ev):

    -9.4602  -9.2032  -8.7317  -8.7203  -8.6421  21.1149  26.1901  30.3403
    36.7968  43.4620  50.2869  61.5617  64.5229  66.5281

          k = 0.0000-1.0000 0.0000 (  1362 PWs)   bands (ev):

    -9.6007  -9.3239  -8.6475  -8.5801  -8.5801  21.1025  24.9322  35.5673
    35.5673  42.7006  43.0951  64.3750  70.3539  71.3278

          k =-0.2000 0.4000 0.0000 (  1352 PWs)   bands (ev):

    -9.3273  -9.1239  -9.0505  -9.0015  -8.7988  12.1467  36.8461  38.5333
    44.4723  48.5143  49.2969  55.9700  57.3223  59.8435

          k =-0.3000 0.5000-0.1000 (  1345 PWs)   bands (ev):

    -9.2932  -9.1540  -9.0351  -8.9122  -8.7208  14.1186  31.7648  37.0355
    42.2527  48.1073  51.8050  54.5476  57.6333  61.4269

          k = 0.6000-0.4000 0.8000 (  1352 PWs)   bands (ev):

    -9.2519  -9.1890  -9.0438  -8.8101  -8.6710  16.6662  26.9696  36.6992
    40.3099  47.5922  52.2526  57.1249  58.1133  59.8702

          k = 0.5000-0.3000 0.7000 (  1350 PWs)   bands (ev):

    -9.2324  -9.2079  -9.0424  -8.7690  -8.6571  18.4385  24.4307  36.7257
    39.4940  47.4124  51.9795  58.2825  58.8253  61.7256

          k =-0.2000 0.6000 0.0000 (  1345 PWs)   bands (ev):

    -9.4129  -9.1559  -8.9360  -8.8333  -8.7014  14.7874  33.2269  35.8252
    38.6954  47.0023  47.0961  58.0015  62.4878  65.3549

          k = 0.7000-0.3000 0.9000 (  1340 PWs)   bands (ev):

    -9.3567  -9.1617  -8.9459  -8.7805  -8.6604  17.1320  29.2625  34.0484
    36.9840  46.8426  51.1187  56.1127  63.0695  64.0976

          k = 0.6000-0.2000 0.8000 (  1338 PWs)   bands (ev):

    -9.2967  -9.1168  -8.9342  -8.8402  -8.6509  19.3453  26.1171  32.7767
    36.7750  47.1571  54.2384  56.4578  61.7937  62.8787

          k = 0.5000-0.1000 0.7000 (  1345 PWs)   bands (ev):

    -9.2476  -9.1258  -8.9331  -8.8463  -8.7103  18.6806  27.1143  31.9087
    37.9022  48.0143  53.4937  57.7909  61.0249  61.3845

          k = 0.4000 0.0000 0.6000 (  1344 PWs)   bands (ev):

    -9.2151  -9.1967  -8.9764  -8.8426  -8.7369  16.2496  30.5219  32.4833
    39.8914  49.2187  52.1131  54.6563  59.8811  62.8427

          k = 0.8000-0.2000 1.0000 (  1336 PWs)   bands (ev):

    -9.4830  -9.2400  -8.7960  -8.6546  -8.6510  18.3076  28.9454  34.0769
    35.0454  45.9429  46.0461  60.4207  66.3330  67.9181

          k = 0.7000-0.1000 0.9000 (  1345 PWs)   bands (ev):

    -9.3989  -9.1921  -8.8365  -8.7344  -8.6125  20.4402  27.1033  30.9720
    34.8473  46.2253  50.5400  58.6271  63.3714  66.4916

          k = 0.6000 0.0000 0.8000 (  1353 PWs)   bands (ev):

    -9.3155  -9.0501  -8.9526  -8.8140  -8.6585  20.5431  27.9929  28.5585
    35.9678  46.9665  55.8242  56.7532  59.3899  64.2088

          k =-0.2000-1.0000 0.0000 (  1338 PWs)   bands (ev):

    -9.5097  -9.2758  -8.6916  -8.6846  -8.5800  21.2074  25.5647  33.4720
    34.0219  45.5798  45.7291  61.9532  66.2129  68.4627

          k = 0.6000-0.2000 1.0000 (  1336 PWs)   bands (ev):

    -9.2504  -9.1815  -8.9695  -8.7597  -8.6550  19.3738  28.5535  30.7629
    34.6215  50.7668  51.0586  54.7177  61.9026  65.9481

          k = 0.5000-0.1000 0.9000 (  1344 PWs)   bands (ev):

    -9.2020  -9.1266  -9.0239  -8.8156  -8.6149  20.7375  27.4969  29.9601
    33.6723  50.8491  53.0914  56.3613  57.3014  67.1172

          k =-0.4000-1.0000 0.0000 (  1350 PWs)   bands (ev):

    -9.2657  -9.1760  -8.9510  -8.7852  -8.5800  21.3920  27.3844  30.1697
    32.3625  50.6966  51.1894  56.3657  58.8881  69.2081

     the Fermi energy is    46.8625 ev

!    total energy              =    -282.84893759 Ry
     Harris-Foulkes estimate   =    -282.84893759 Ry
     estimated scf accuracy    <          4.8E-09 Ry

     The total energy is the sum of the following terms:

     one-electron contribution =      -4.10474740 Ry
     hartree contribution      =      28.18271366 Ry
     xc contribution           =     -64.59317243 Ry
     ewald contribution        =    -242.33311988 Ry
     smearing contrib. (-TS)   =      -0.00061154 Ry

     convergence has been achieved in   5 iterations

     Forces acting on atoms (cartesian axes, Ry/au):

     atom    1 type  1   force =     0.00000000    0.00000000    0.00000000

     Total force =     0.000000     Total SCF correction =     0.000000


     Computing stress (Cartesian axis) and pressure

          total   stress  (Ry/bohr**3)                   (kbar)     P= 7273.31
   0.04944300   0.00000000   0.00000000       7273.31      0.00      0.00
   0.00000000   0.04944300  -0.00000000          0.00   7273.31     -0.00
   0.00000000  -0.00000000   0.04944300          0.00     -0.00   7273.31


     Writing output data file Fr.save/

     init_run     :      0.50s CPU      0.53s WALL (       1 calls)
     electrons    :      5.16s CPU      5.55s WALL (       1 calls)
     forces       :      0.08s CPU      0.08s WALL (       1 calls)
     stress       :      0.26s CPU      0.26s WALL (       1 calls)

     Called by init_run:
     wfcinit      :      0.26s CPU      0.28s WALL (       1 calls)
     potinit      :      0.01s CPU      0.01s WALL (       1 calls)
     hinit0       :      0.21s CPU      0.21s WALL (       1 calls)

     Called by electrons:
     c_bands      :      4.29s CPU      4.61s WALL (       6 calls)
     sum_band     :      0.77s CPU      0.83s WALL (       6 calls)
     v_of_rho     :      0.05s CPU      0.05s WALL (       6 calls)
     newd         :      0.07s CPU      0.07s WALL (       6 calls)
     mix_rho      :      0.00s CPU      0.00s WALL (       6 calls)

     Called by c_bands:
     init_us_2    :      0.11s CPU      0.12s WALL (     705 calls)
     cegterg      :      4.12s CPU      4.44s WALL (     282 calls)

     Called by sum_band:
     sum_band:bec :      0.00s CPU      0.00s WALL (     282 calls)
     addusdens    :      0.06s CPU      0.06s WALL (       6 calls)

     Called by *egterg:
     h_psi        :      3.07s CPU      3.36s WALL (    1024 calls)
     s_psi        :      0.11s CPU      0.12s WALL (    1024 calls)
     g_psi        :      0.01s CPU      0.01s WALL (     695 calls)
     cdiaghg      :      0.44s CPU      0.46s WALL (     930 calls)

     Called by h_psi:
     h_psi:pot    :      3.05s CPU      3.34s WALL (    1024 calls)
     h_psi:calbec :      0.17s CPU      0.18s WALL (    1024 calls)
     vloc_psi     :      2.77s CPU      3.03s WALL (    1024 calls)
     add_vuspsi   :      0.11s CPU      0.12s WALL (    1024 calls)

     General routines
     calbec       :      0.29s CPU      0.31s WALL (    1541 calls)
     fft          :      0.03s CPU      0.03s WALL (      93 calls)
     ffts         :      0.00s CPU      0.00s WALL (       6 calls)
     fftw         :      3.07s CPU      3.36s WALL (   25068 calls)

     Parallel routines
     fft_scatt_xy :      0.29s CPU      0.32s WALL (   25167 calls)
     fft_scatt_yz :      1.04s CPU      1.14s WALL (   25167 calls)

     PWSCF        :     6.93s CPU         7.44s WALL


   This run was terminated on:  22:14:58   7Apr2024            

=------------------------------------------------------------------------------=
   JOB DONE.
=------------------------------------------------------------------------------=
