
     Program PWSCF v.6.3MaX starts on  7Apr2024 at 22:27:35 

     This program is part of the open-source Quantum ESPRESSO suite
     for quantum simulation of materials; please cite
         "P. Giannozzi et al., J. Phys.:Condens. Matter 21 395502 (2009);
         "P. Giannozzi et al., J. Phys.:Condens. Matter 29 465901 (2017);
          URL http://www.quantum-espresso.org", 
     in publications or presentations arising from this work. More details at
     http://www.quantum-espresso.org/quote

     Parallel version (MPI), running on     5 processors

     MPI processes distributed on     1 nodes
     R & G space division:  proc/nbgrp/npool/nimage =       5
     Waiting for input...
     Reading input from standard input

     Current dimensions of program PWSCF are:
     Max number of different atomic species (ntypx) = 10
     Max number of k-points (npk) =  40000
     Max angular momentum in pseudopotentials (lmaxx) =  3

     Subspace diagonalization in iterative solution of the eigenvalue problem:
     a serial algorithm will be used


     Parallelization info
     --------------------
     sticks:   dense  smooth     PW     G-vecs:    dense   smooth      PW
     Min          39      39     12                  361      361      66
     Max          40      40     13                  363      363      67
     Sum         199     199     61                 1807     1807     331



     bravais-lattice index     =            2
     lattice parameter (alat)  =       6.8300  a.u.
     unit-cell volume          =      79.6530 (a.u.)^3
     number of atoms/cell      =            1
     number of atomic types    =            1
     number of electrons       =        19.00
     number of Kohn-Sham states=           14
     kinetic-energy cutoff     =      30.0000  Ry
     charge density cutoff     =     120.0000  Ry
     convergence threshold     =      1.0E-08
     mixing beta               =       0.7000
     number of iterations used =            8  plain     mixing
     Exchange-correlation      = PBE ( 1  4  3  4 0 0)

     celldm(1)=   6.830000  celldm(2)=   0.000000  celldm(3)=   0.000000
     celldm(4)=   0.000000  celldm(5)=   0.000000  celldm(6)=   0.000000

     crystal axes: (cart. coord. in units of alat)
               a(1) = (  -0.500000   0.000000   0.500000 )  
               a(2) = (   0.000000   0.500000   0.500000 )  
               a(3) = (  -0.500000   0.500000   0.000000 )  

     reciprocal axes: (cart. coord. in units 2 pi/alat)
               b(1) = ( -1.000000 -1.000000  1.000000 )  
               b(2) = (  1.000000  1.000000  1.000000 )  
               b(3) = ( -1.000000  1.000000 -1.000000 )  


     PseudoPot. # 1 for Fr read from file:
     /home/lorenzo/pseudos/Fr/Fr.pbe-spdn-rrkjus_psl.1.0.0.UPF
     MD5 check sum: 07cabfa18982bd6b5b9d8ae5689d9732
     Pseudo is Ultrasoft + core correction, Zval = 19.0
     Generated using "atomic" code by A. Dal Corso v.6.2.2
     Using radial grid of 1287 points,  6 beta functions with: 
                l(1) =   0
                l(2) =   0
                l(3) =   1
                l(4) =   1
                l(5) =   2
                l(6) =   2
     Q(r) pseudized with 0 coefficients 


     atomic species   valence    mass     pseudopotential
        Fr            19.00   223.00000     Fr( 1.00)

     48 Sym. Ops., with inversion, found



   Cartesian axes

     site n.     atom                  positions (alat units)
         1           Fr  tau(   1) = (   0.0000000   0.0000000   0.0000000  )

     number of k points=     4  gaussian smearing, width (Ry)=  0.0100
                       cart. coord. in units 2pi/alat
        k(    1) = (   0.0000000   0.0000000   0.0000000), wk =   0.0740741
        k(    2) = (  -0.3333333   0.3333333  -0.3333333), wk =   0.5925926
        k(    3) = (   0.0000000   0.6666667   0.0000000), wk =   0.4444444
        k(    4) = (   0.6666667  -0.0000000   0.6666667), wk =   0.8888889

     Dense  grid:     1807 G-vectors     FFT dimensions: (  18,  18,  18)

     Estimated max dynamical RAM per process >       2.37 MB

     Estimated total dynamical RAM >      11.84 MB

     Check: negative/imaginary core charge=   -0.000066    0.000000

     Initial potential from superposition of free atoms

     starting charge   18.97009, renormalised to   19.00000
     Starting wfcs are   10 randomized atomic wfcs +    4 random wfcs

     total cpu time spent up to now is        1.1 secs

     Self-consistent Calculation

     iteration #  1     ecut=    30.00 Ry     beta= 0.70
     Davidson diagonalization with overlap
     ethr =  1.00E-02,  avg # of iterations =  4.8

     total cpu time spent up to now is        1.1 secs

     total energy              =    -280.95139128 Ry
     Harris-Foulkes estimate   =    -281.11101943 Ry
     estimated scf accuracy    <       0.21428393 Ry

     iteration #  2     ecut=    30.00 Ry     beta= 0.70
     Davidson diagonalization with overlap
     ethr =  1.13E-03,  avg # of iterations =  2.0

     total cpu time spent up to now is        1.1 secs

     total energy              =    -281.00113863 Ry
     Harris-Foulkes estimate   =    -281.00664997 Ry
     estimated scf accuracy    <       0.00995759 Ry

     iteration #  3     ecut=    30.00 Ry     beta= 0.70
     Davidson diagonalization with overlap
     ethr =  5.24E-05,  avg # of iterations =  2.2

     total cpu time spent up to now is        1.2 secs

     total energy              =    -281.00280601 Ry
     Harris-Foulkes estimate   =    -281.00286871 Ry
     estimated scf accuracy    <       0.00044948 Ry

     iteration #  4     ecut=    30.00 Ry     beta= 0.70
     Davidson diagonalization with overlap
     ethr =  2.37E-06,  avg # of iterations =  2.8

     total cpu time spent up to now is        1.2 secs

     total energy              =    -281.00283197 Ry
     Harris-Foulkes estimate   =    -281.00283048 Ry
     estimated scf accuracy    <       0.00000209 Ry

     iteration #  5     ecut=    30.00 Ry     beta= 0.70
     Davidson diagonalization with overlap
     ethr =  1.10E-08,  avg # of iterations =  2.5

     total cpu time spent up to now is        1.2 secs

     total energy              =    -281.00283281 Ry
     Harris-Foulkes estimate   =    -281.00283285 Ry
     estimated scf accuracy    <       0.00000012 Ry

     iteration #  6     ecut=    30.00 Ry     beta= 0.70
     Davidson diagonalization with overlap
     ethr =  6.20E-10,  avg # of iterations =  2.0

     total cpu time spent up to now is        1.3 secs

     total energy              =    -281.00283281 Ry
     Harris-Foulkes estimate   =    -281.00283282 Ry
     estimated scf accuracy    <       0.00000001 Ry

     iteration #  7     ecut=    30.00 Ry     beta= 0.70
     Davidson diagonalization with overlap
     ethr =  6.18E-11,  avg # of iterations =  1.8

     total cpu time spent up to now is        1.3 secs

     End of self-consistent calculation

          k = 0.0000 0.0000 0.0000 (   229 PWs)   bands (ev):

    -9.1293  -9.1293  -9.1293  -8.8788  -8.8788   9.3761  46.9936  46.9936
    46.9936  48.6021  55.6390  55.6390  55.6390  57.5711

          k =-0.3333 0.3333-0.3333 (   223 PWs)   bands (ev):

    -9.1390  -9.1390  -9.1097  -8.8626  -8.8626  13.7676  29.2047  43.7277
    43.7277  48.5971  52.6826  54.0966  54.0966  62.2021

          k = 0.0000 0.6667 0.0000 (   218 PWs)   bands (ev):

    -9.5230  -9.3103  -8.6464  -8.6464  -8.3355  15.2461  32.7654  37.3482
    37.3482  44.6218  45.0407  65.3811  65.3811  65.3974

          k = 0.6667-0.0000 0.6667 (   220 PWs)   bands (ev):

    -9.0354  -9.0206  -8.9350  -8.8562  -8.8295  19.5527  28.4112  28.4544
    38.8488  45.4807  58.0051  59.7678  60.4545  63.3773

     the Fermi energy is    45.4501 ev

!    total energy              =    -281.00283281 Ry
     Harris-Foulkes estimate   =    -281.00283281 Ry
     estimated scf accuracy    <          8.9E-11 Ry

     The total energy is the sum of the following terms:

     one-electron contribution =      -1.26698733 Ry
     hartree contribution      =      26.55812206 Ry
     xc contribution           =     -63.95846410 Ry
     ewald contribution        =    -242.33311990 Ry
     smearing contrib. (-TS)   =      -0.00238355 Ry

     convergence has been achieved in   7 iterations

     Forces acting on atoms (cartesian axes, Ry/au):

     atom    1 type  1   force =     0.00000000    0.00000000    0.00000000

     Total force =     0.000000     Total SCF correction =     0.000000


     Computing stress (Cartesian axis) and pressure

          total   stress  (Ry/bohr**3)                   (kbar)     P=-5165.55
  -0.03511472   0.00000000   0.00000000      -5165.55      0.00      0.00
   0.00000000  -0.03511472  -0.00000000          0.00  -5165.55     -0.00
   0.00000000  -0.00000000  -0.03511472          0.00     -0.00  -5165.55


     Writing output data file Fr.save/

     init_run     :      0.16s CPU      0.16s WALL (       1 calls)
     electrons    :      0.21s CPU      0.23s WALL (       1 calls)
     forces       :      0.01s CPU      0.01s WALL (       1 calls)
     stress       :      0.03s CPU      0.03s WALL (       1 calls)

     Called by init_run:
     wfcinit      :      0.01s CPU      0.01s WALL (       1 calls)
     potinit      :      0.00s CPU      0.00s WALL (       1 calls)
     hinit0       :      0.14s CPU      0.14s WALL (       1 calls)

     Called by electrons:
     c_bands      :      0.15s CPU      0.16s WALL (       7 calls)
     sum_band     :      0.04s CPU      0.04s WALL (       7 calls)
     v_of_rho     :      0.01s CPU      0.01s WALL (       8 calls)
     newd         :      0.02s CPU      0.02s WALL (       8 calls)
     mix_rho      :      0.00s CPU      0.00s WALL (       7 calls)

     Called by c_bands:
     init_us_2    :      0.00s CPU      0.00s WALL (      68 calls)
     cegterg      :      0.15s CPU      0.16s WALL (      28 calls)

     Called by sum_band:
     sum_band:bec :      0.00s CPU      0.00s WALL (      28 calls)
     addusdens    :      0.01s CPU      0.01s WALL (       7 calls)

     Called by *egterg:
     h_psi        :      0.09s CPU      0.10s WALL (     104 calls)
     s_psi        :      0.00s CPU      0.00s WALL (     104 calls)
     g_psi        :      0.00s CPU      0.00s WALL (      72 calls)
     cdiaghg      :      0.04s CPU      0.04s WALL (     100 calls)

     Called by h_psi:
     h_psi:pot    :      0.09s CPU      0.10s WALL (     104 calls)
     h_psi:calbec :      0.00s CPU      0.00s WALL (     104 calls)
     vloc_psi     :      0.09s CPU      0.09s WALL (     104 calls)
     add_vuspsi   :      0.00s CPU      0.00s WALL (     104 calls)

     General routines
     calbec       :      0.01s CPU      0.01s WALL (     152 calls)
     fft          :      0.01s CPU      0.01s WALL (     114 calls)
     ffts         :      0.00s CPU      0.00s WALL (       7 calls)
     fftw         :      0.10s CPU      0.10s WALL (    2484 calls)

     Parallel routines
     fft_scatt_xy :      0.01s CPU      0.01s WALL (    2605 calls)
     fft_scatt_yz :      0.05s CPU      0.05s WALL (    2605 calls)

     PWSCF        :     1.32s CPU         1.38s WALL


   This run was terminated on:  22:27:37   7Apr2024            

=------------------------------------------------------------------------------=
   JOB DONE.
=------------------------------------------------------------------------------=
