
     Program PWSCF v.6.3MaX starts on  7Apr2024 at 22:41:52 

     This program is part of the open-source Quantum ESPRESSO suite
     for quantum simulation of materials; please cite
         "P. Giannozzi et al., J. Phys.:Condens. Matter 21 395502 (2009);
         "P. Giannozzi et al., J. Phys.:Condens. Matter 29 465901 (2017);
          URL http://www.quantum-espresso.org", 
     in publications or presentations arising from this work. More details at
     http://www.quantum-espresso.org/quote

     Parallel version (MPI), running on     5 processors

     MPI processes distributed on     1 nodes
     R & G space division:  proc/nbgrp/npool/nimage =       5
     Waiting for input...
     Reading input from standard input

     Current dimensions of program PWSCF are:
     Max number of different atomic species (ntypx) = 10
     Max number of k-points (npk) =  40000
     Max angular momentum in pseudopotentials (lmaxx) =  3
               file Fr.pz-spdn-kjpaw_psl.1.0.0.UPF: wavefunction(s)  6P renormalized

     Subspace diagonalization in iterative solution of the eigenvalue problem:
     a serial algorithm will be used


     Parallelization info
     --------------------
     sticks:   dense  smooth     PW     G-vecs:    dense   smooth      PW
     Min          75      75     24                 1003     1003     173
     Max          76      76     25                 1007     1007     174
     Sum         379     379    121                 5029     5029     869



     bravais-lattice index     =            2
     lattice parameter (alat)  =       6.8300  a.u.
     unit-cell volume          =      79.6530 (a.u.)^3
     number of atoms/cell      =            1
     number of atomic types    =            1
     number of electrons       =        19.00
     number of Kohn-Sham states=           14
     kinetic-energy cutoff     =      60.0000  Ry
     charge density cutoff     =     240.0000  Ry
     convergence threshold     =      1.0E-08
     mixing beta               =       0.7000
     number of iterations used =            8  plain     mixing
     Exchange-correlation      = SLA PZ NOGX NOGC ( 1  1  0  0 0 0)

     celldm(1)=   6.830000  celldm(2)=   0.000000  celldm(3)=   0.000000
     celldm(4)=   0.000000  celldm(5)=   0.000000  celldm(6)=   0.000000

     crystal axes: (cart. coord. in units of alat)
               a(1) = (  -0.500000   0.000000   0.500000 )  
               a(2) = (   0.000000   0.500000   0.500000 )  
               a(3) = (  -0.500000   0.500000   0.000000 )  

     reciprocal axes: (cart. coord. in units 2 pi/alat)
               b(1) = ( -1.000000 -1.000000  1.000000 )  
               b(2) = (  1.000000  1.000000  1.000000 )  
               b(3) = ( -1.000000  1.000000 -1.000000 )  


     PseudoPot. # 1 for Fr read from file:
     /home/lorenzo/pseudos/Fr/Fr.pz-spdn-kjpaw_psl.1.0.0.UPF
     MD5 check sum: 60dafd115682613df3cc92ec23a62a32
     Pseudo is Projector augmented-wave + core cor, Zval = 19.0
     Generated using "atomic" code by A. Dal Corso v.6.2.2
     Shape of augmentation charge: PSQ
     Using radial grid of 1287 points,  6 beta functions with: 
                l(1) =   0
                l(2) =   0
                l(3) =   1
                l(4) =   1
                l(5) =   2
                l(6) =   2
     Q(r) pseudized with 0 coefficients 


     atomic species   valence    mass     pseudopotential
        Fr            19.00   223.00000     Fr( 1.00)

     48 Sym. Ops., with inversion, found



   Cartesian axes

     site n.     atom                  positions (alat units)
         1           Fr  tau(   1) = (   0.0000000   0.0000000   0.0000000  )

     number of k points=     4  gaussian smearing, width (Ry)=  0.0100
                       cart. coord. in units 2pi/alat
        k(    1) = (   0.0000000   0.0000000   0.0000000), wk =   0.0740741
        k(    2) = (  -0.3333333   0.3333333  -0.3333333), wk =   0.5925926
        k(    3) = (   0.0000000   0.6666667   0.0000000), wk =   0.4444444
        k(    4) = (   0.6666667  -0.0000000   0.6666667), wk =   0.8888889

     Dense  grid:     5029 G-vectors     FFT dimensions: (  24,  24,  24)

     Estimated max dynamical RAM per process >       5.23 MB

     Estimated total dynamical RAM >      26.13 MB

     Check: negative/imaginary core charge=   -0.000002    0.000000

     Initial potential from superposition of free atoms

     starting charge   18.97647, renormalised to   19.00000
     Starting wfcs are   10 randomized atomic wfcs +    4 random wfcs
     Checking if some PAW data can be deallocated... 

     total cpu time spent up to now is        1.1 secs

     Self-consistent Calculation

     iteration #  1     ecut=    60.00 Ry     beta= 0.70
     Davidson diagonalization with overlap
     ethr =  1.00E-02,  avg # of iterations =  4.2

     Threshold (ethr) on eigenvalues was too large:
     Diagonalizing with lowered threshold

     Davidson diagonalization with overlap
     ethr =  6.49E-05,  avg # of iterations =  1.8

     total cpu time spent up to now is        1.3 secs

     total energy              =   -1045.18137302 Ry
     Harris-Foulkes estimate   =   -1045.18997426 Ry
     estimated scf accuracy    <       0.01211292 Ry

     iteration #  2     ecut=    60.00 Ry     beta= 0.70
     Davidson diagonalization with overlap
     ethr =  6.38E-05,  avg # of iterations =  2.0

     total cpu time spent up to now is        1.4 secs

     total energy              =   -1045.18313781 Ry
     Harris-Foulkes estimate   =   -1045.18334089 Ry
     estimated scf accuracy    <       0.00041385 Ry

     iteration #  3     ecut=    60.00 Ry     beta= 0.70
     Davidson diagonalization with overlap
     ethr =  2.18E-06,  avg # of iterations =  2.5

     total cpu time spent up to now is        1.4 secs

     total energy              =   -1045.18317234 Ry
     Harris-Foulkes estimate   =   -1045.18317723 Ry
     estimated scf accuracy    <       0.00001686 Ry

     iteration #  4     ecut=    60.00 Ry     beta= 0.70
     Davidson diagonalization with overlap
     ethr =  8.87E-08,  avg # of iterations =  2.2

     total cpu time spent up to now is        1.5 secs

     total energy              =   -1045.18317673 Ry
     Harris-Foulkes estimate   =   -1045.18317645 Ry
     estimated scf accuracy    <       0.00000030 Ry

     iteration #  5     ecut=    60.00 Ry     beta= 0.70
     Davidson diagonalization with overlap
     ethr =  1.55E-09,  avg # of iterations =  1.8

     total cpu time spent up to now is        1.6 secs

     total energy              =   -1045.18317676 Ry
     Harris-Foulkes estimate   =   -1045.18317677 Ry
     estimated scf accuracy    <       0.00000002 Ry

     iteration #  6     ecut=    60.00 Ry     beta= 0.70
     Davidson diagonalization with overlap
     ethr =  9.82E-11,  avg # of iterations =  2.0

     total cpu time spent up to now is        1.7 secs

     End of self-consistent calculation

          k = 0.0000 0.0000 0.0000 (   609 PWs)   bands (ev):

    -9.3353  -9.3353  -9.3353  -8.9923  -8.9923   9.1225  46.9008  46.9008
    46.9008  48.0969  53.7040  53.7040  53.7040  57.4863

          k =-0.3333 0.3333-0.3333 (   613 PWs)   bands (ev):

    -9.3217  -9.2549  -9.2549  -8.8149  -8.8149  13.5339  28.8819  43.5285
    43.5285  47.9508  51.9164  52.5750  52.5750  61.2099

          k = 0.0000 0.6667 0.0000 (   624 PWs)   bands (ev):

    -9.5838  -9.2820  -8.8176  -8.8176  -8.7797  15.0304  32.6163  37.0597
    37.0597  43.6409  43.6790  64.3655  64.8784  64.8784

          k = 0.6667-0.0000 0.6667 (   634 PWs)   bands (ev):

    -9.4082  -9.0430  -8.9709  -8.9038  -8.8023  19.4139  28.0274  28.0663
    38.5593  44.3073  57.1748  58.7775  59.7641  62.3535

     the Fermi energy is    44.2766 ev

!    total energy              =   -1045.18317677 Ry
     Harris-Foulkes estimate   =   -1045.18317677 Ry
     estimated scf accuracy    <          5.9E-10 Ry

     total all-electron energy =    -48490.636150 Ry

     The total energy is the sum of the following terms:

     one-electron contribution =       1.46631124 Ry
     hartree contribution      =      28.33286102 Ry
     xc contribution           =     -63.92034056 Ry
     ewald contribution        =    -242.33311991 Ry
     one-center paw contrib.   =    -768.72650517 Ry
     smearing contrib. (-TS)   =      -0.00238339 Ry

     convergence has been achieved in   6 iterations

     Forces acting on atoms (cartesian axes, Ry/au):

     atom    1 type  1   force =     0.00000000    0.00000000    0.00000000

     Total force =     0.000000     Total SCF correction =     0.000000


     Computing stress (Cartesian axis) and pressure

          total   stress  (Ry/bohr**3)                   (kbar)     P= 7200.37
   0.04894714  -0.00000000  -0.00000000       7200.37     -0.00     -0.00
  -0.00000000   0.04894714   0.00000000         -0.00   7200.37      0.00
  -0.00000000   0.00000000   0.04894714         -0.00      0.00   7200.37


     Writing output data file Fr.save/

     init_run     :      0.22s CPU      0.22s WALL (       1 calls)
     electrons    :      0.56s CPU      0.60s WALL (       1 calls)
     forces       :      0.01s CPU      0.01s WALL (       1 calls)
     stress       :      0.05s CPU      0.05s WALL (       1 calls)

     Called by init_run:
     wfcinit      :      0.01s CPU      0.01s WALL (       1 calls)
     potinit      :      0.05s CPU      0.05s WALL (       1 calls)
     hinit0       :      0.15s CPU      0.15s WALL (       1 calls)

     Called by electrons:
     c_bands      :      0.21s CPU      0.23s WALL (       7 calls)
     sum_band     :      0.07s CPU      0.07s WALL (       7 calls)
     v_of_rho     :      0.00s CPU      0.00s WALL (       7 calls)
     newd         :      0.04s CPU      0.04s WALL (       7 calls)
     PAW_pot      :      0.29s CPU      0.30s WALL (       7 calls)
     mix_rho      :      0.00s CPU      0.00s WALL (       7 calls)

     Called by c_bands:
     init_us_2    :      0.01s CPU      0.01s WALL (      68 calls)
     cegterg      :      0.20s CPU      0.22s WALL (      28 calls)

     Called by sum_band:
     sum_band:bec :      0.00s CPU      0.00s WALL (      28 calls)
     addusdens    :      0.03s CPU      0.03s WALL (       7 calls)

     Called by *egterg:
     h_psi        :      0.14s CPU      0.15s WALL (      98 calls)
     s_psi        :      0.00s CPU      0.01s WALL (      98 calls)
     g_psi        :      0.00s CPU      0.00s WALL (      66 calls)
     cdiaghg      :      0.03s CPU      0.04s WALL (      90 calls)

     Called by h_psi:
     h_psi:pot    :      0.14s CPU      0.15s WALL (      98 calls)
     h_psi:calbec :      0.01s CPU      0.01s WALL (      98 calls)
     vloc_psi     :      0.12s CPU      0.14s WALL (      98 calls)
     add_vuspsi   :      0.00s CPU      0.01s WALL (      98 calls)

     General routines
     calbec       :      0.01s CPU      0.01s WALL (     146 calls)
     fft          :      0.01s CPU      0.01s WALL (      38 calls)
     ffts         :      0.00s CPU      0.00s WALL (       7 calls)
     fftw         :      0.13s CPU      0.15s WALL (    2450 calls)

     Parallel routines
     fft_scatt_xy :      0.01s CPU      0.01s WALL (    2495 calls)
     fft_scatt_yz :      0.04s CPU      0.04s WALL (    2495 calls)

     PWSCF        :     1.73s CPU         1.82s WALL


   This run was terminated on:  22:41:54   7Apr2024            

=------------------------------------------------------------------------------=
   JOB DONE.
=------------------------------------------------------------------------------=
