
     Program PWSCF v.6.3MaX starts on  7Apr2024 at 22:50:51 

     This program is part of the open-source Quantum ESPRESSO suite
     for quantum simulation of materials; please cite
         "P. Giannozzi et al., J. Phys.:Condens. Matter 21 395502 (2009);
         "P. Giannozzi et al., J. Phys.:Condens. Matter 29 465901 (2017);
          URL http://www.quantum-espresso.org", 
     in publications or presentations arising from this work. More details at
     http://www.quantum-espresso.org/quote

     Parallel version (MPI), running on     5 processors

     MPI processes distributed on     1 nodes
     R & G space division:  proc/nbgrp/npool/nimage =       5
     Waiting for input...
     Reading input from standard input

     Current dimensions of program PWSCF are:
     Max number of different atomic species (ntypx) = 10
     Max number of k-points (npk) =  40000
     Max angular momentum in pseudopotentials (lmaxx) =  3

     Subspace diagonalization in iterative solution of the eigenvalue problem:
     a serial algorithm will be used


     Parallelization info
     --------------------
     sticks:   dense  smooth     PW     G-vecs:    dense   smooth      PW
     Min          95      95     30                 1375     1375     248
     Max          95      95     31                 1376     1376     251
     Sum         475     475    151                 6879     6879    1243



     bravais-lattice index     =            2
     lattice parameter (alat)  =       6.8300  a.u.
     unit-cell volume          =      79.6530 (a.u.)^3
     number of atoms/cell      =            1
     number of atomic types    =            1
     number of electrons       =        19.00
     number of Kohn-Sham states=           14
     kinetic-energy cutoff     =      75.0000  Ry
     charge density cutoff     =     300.0000  Ry
     convergence threshold     =      1.0E-08
     mixing beta               =       0.7000
     number of iterations used =            8  plain     mixing
     Exchange-correlation      = PBE ( 1  4  3  4 0 0)

     celldm(1)=   6.830000  celldm(2)=   0.000000  celldm(3)=   0.000000
     celldm(4)=   0.000000  celldm(5)=   0.000000  celldm(6)=   0.000000

     crystal axes: (cart. coord. in units of alat)
               a(1) = (  -0.500000   0.000000   0.500000 )  
               a(2) = (   0.000000   0.500000   0.500000 )  
               a(3) = (  -0.500000   0.500000   0.000000 )  

     reciprocal axes: (cart. coord. in units 2 pi/alat)
               b(1) = ( -1.000000 -1.000000  1.000000 )  
               b(2) = (  1.000000  1.000000  1.000000 )  
               b(3) = ( -1.000000  1.000000 -1.000000 )  


     PseudoPot. # 1 for Fr read from file:
     /home/lorenzo/pseudos/Fr/Fr.pbe-spdn-rrkjus_psl.1.0.0.UPF
     MD5 check sum: 07cabfa18982bd6b5b9d8ae5689d9732
     Pseudo is Ultrasoft + core correction, Zval = 19.0
     Generated using "atomic" code by A. Dal Corso v.6.2.2
     Using radial grid of 1287 points,  6 beta functions with: 
                l(1) =   0
                l(2) =   0
                l(3) =   1
                l(4) =   1
                l(5) =   2
                l(6) =   2
     Q(r) pseudized with 0 coefficients 


     atomic species   valence    mass     pseudopotential
        Fr            19.00   223.00000     Fr( 1.00)

     48 Sym. Ops., with inversion, found



   Cartesian axes

     site n.     atom                  positions (alat units)
         1           Fr  tau(   1) = (   0.0000000   0.0000000   0.0000000  )

     number of k points=     8  gaussian smearing, width (Ry)=  0.0100
                       cart. coord. in units 2pi/alat
        k(    1) = (   0.0000000   0.0000000   0.0000000), wk =   0.0312500
        k(    2) = (  -0.2500000   0.2500000  -0.2500000), wk =   0.2500000
        k(    3) = (   0.5000000  -0.5000000   0.5000000), wk =   0.1250000
        k(    4) = (   0.0000000   0.5000000   0.0000000), wk =   0.1875000
        k(    5) = (   0.7500000  -0.2500000   0.7500000), wk =   0.7500000
        k(    6) = (   0.5000000   0.0000000   0.5000000), wk =   0.3750000
        k(    7) = (   0.0000000  -1.0000000   0.0000000), wk =   0.0937500
        k(    8) = (  -0.5000000  -1.0000000   0.0000000), wk =   0.1875000

     Dense  grid:     6879 G-vectors     FFT dimensions: (  27,  27,  27)

     Estimated max dynamical RAM per process >       6.99 MB

     Estimated total dynamical RAM >      34.93 MB

     Initial potential from superposition of free atoms

     starting charge   18.97009, renormalised to   19.00000
     Starting wfcs are   10 randomized atomic wfcs +    4 random wfcs

     total cpu time spent up to now is        1.2 secs

     Self-consistent Calculation

     iteration #  1     ecut=    75.00 Ry     beta= 0.70
     Davidson diagonalization with overlap
     ethr =  1.00E-02,  avg # of iterations =  4.9

     Threshold (ethr) on eigenvalues was too large:
     Diagonalizing with lowered threshold

     Davidson diagonalization with overlap
     ethr =  7.49E-05,  avg # of iterations =  1.9

     total cpu time spent up to now is        1.5 secs

     total energy              =    -282.86539675 Ry
     Harris-Foulkes estimate   =    -282.87398470 Ry
     estimated scf accuracy    <       0.01392761 Ry

     iteration #  2     ecut=    75.00 Ry     beta= 0.70
     Davidson diagonalization with overlap
     ethr =  7.33E-05,  avg # of iterations =  2.0

     total cpu time spent up to now is        1.6 secs

     total energy              =    -282.86727506 Ry
     Harris-Foulkes estimate   =    -282.86757750 Ry
     estimated scf accuracy    <       0.00051186 Ry

     iteration #  3     ecut=    75.00 Ry     beta= 0.70
     Davidson diagonalization with overlap
     ethr =  2.69E-06,  avg # of iterations =  2.5

     total cpu time spent up to now is        1.8 secs

     total energy              =    -282.86733309 Ry
     Harris-Foulkes estimate   =    -282.86734552 Ry
     estimated scf accuracy    <       0.00003020 Ry

     iteration #  4     ecut=    75.00 Ry     beta= 0.70
     Davidson diagonalization with overlap
     ethr =  1.59E-07,  avg # of iterations =  1.6

     total cpu time spent up to now is        1.9 secs

     total energy              =    -282.86733553 Ry
     Harris-Foulkes estimate   =    -282.86733554 Ry
     estimated scf accuracy    <       0.00000010 Ry

     iteration #  5     ecut=    75.00 Ry     beta= 0.70
     Davidson diagonalization with overlap
     ethr =  5.19E-10,  avg # of iterations =  2.4

     total cpu time spent up to now is        2.0 secs

     End of self-consistent calculation

          k = 0.0000 0.0000 0.0000 (   893 PWs)   bands (ev):

    -9.1875  -9.1875  -9.1875  -8.8570  -8.8570   9.4991  47.2966  47.2966
    47.2966  48.3689  53.8949  53.8949  53.8949  57.7357

          k =-0.2500 0.2500-0.2500 (   881 PWs)   bands (ev):

    -9.1724  -9.0984  -9.0984  -8.7767  -8.7767  12.0086  33.8609  44.8353
    44.8353  48.2482  53.4423  54.0480  54.0480  58.7705

          k = 0.5000-0.5000 0.5000 (   862 PWs)   bands (ev):

    -9.1722  -9.1405  -9.1405  -8.5571  -8.5571  17.6019  23.2845  43.0694
    43.0694  48.0329  51.2941  51.7688  51.7688  65.4950

          k = 0.0000 0.5000 0.0000 (   881 PWs)   bands (ev):

    -9.3516  -9.0403  -8.8474  -8.8474  -8.7163  12.8453  38.1566  39.5427
    39.5427  44.7382  45.7833  62.0829  62.0829  62.8887

          k = 0.7500-0.2500 0.7500 (   866 PWs)   bands (ev):

    -9.2935  -9.0462  -8.8439  -8.7317  -8.5410  18.2044  27.1388  33.9040
    38.3909  44.3026  53.4683  58.5628  59.2460  63.9925

          k = 0.5000 0.0000 0.5000 (   883 PWs)   bands (ev):

    -9.1525  -9.0412  -8.8777  -8.8270  -8.6826  16.0209  30.4871  32.2900
    42.6017  46.7448  55.1916  56.5464  57.4184  59.3227

          k = 0.0000-1.0000 0.0000 (   846 PWs)   bands (ev):

    -9.5126  -9.2519  -8.5720  -8.4884  -8.4884  21.1427  24.9630  35.5855
    35.5855  42.6437  43.1428  64.4032  70.3663  71.3343

          k =-0.5000-1.0000 0.0000 (   876 PWs)   bands (ev):

    -9.0824  -9.0222  -9.0222  -8.7322  -8.4896  21.4709  28.7062  28.7062
    32.1096  53.3312  53.5067  53.5067  56.5029  70.1904

     the Fermi energy is    44.9845 ev

!    total energy              =    -282.86733556 Ry
     Harris-Foulkes estimate   =    -282.86733556 Ry
     estimated scf accuracy    <          2.9E-09 Ry

     The total energy is the sum of the following terms:

     one-electron contribution =      -4.18689002 Ry
     hartree contribution      =      28.25726100 Ry
     xc contribution           =     -64.60414258 Ry
     ewald contribution        =    -242.33311988 Ry
     smearing contrib. (-TS)   =      -0.00044409 Ry

     convergence has been achieved in   5 iterations

     Forces acting on atoms (cartesian axes, Ry/au):

     atom    1 type  1   force =     0.00000000    0.00000000    0.00000000

     Total force =     0.000000     Total SCF correction =     0.000000


     Computing stress (Cartesian axis) and pressure

          total   stress  (Ry/bohr**3)                   (kbar)     P= 7296.46
   0.04960033   0.00000000   0.00000000       7296.46      0.00      0.00
   0.00000000   0.04960033   0.00000000          0.00   7296.46      0.00
   0.00000000   0.00000000   0.04960033          0.00      0.00   7296.46


     Writing output data file Fr.save/

     init_run     :      0.26s CPU      0.27s WALL (       1 calls)
     electrons    :      0.84s CPU      0.88s WALL (       1 calls)
     forces       :      0.04s CPU      0.04s WALL (       1 calls)
     stress       :      0.11s CPU      0.11s WALL (       1 calls)

     Called by init_run:
     wfcinit      :      0.05s CPU      0.05s WALL (       1 calls)
     potinit      :      0.01s CPU      0.01s WALL (       1 calls)
     hinit0       :      0.19s CPU      0.19s WALL (       1 calls)

     Called by electrons:
     c_bands      :      0.64s CPU      0.67s WALL (       6 calls)
     sum_band     :      0.15s CPU      0.15s WALL (       6 calls)
     v_of_rho     :      0.03s CPU      0.03s WALL (       6 calls)
     newd         :      0.04s CPU      0.05s WALL (       6 calls)
     mix_rho      :      0.00s CPU      0.00s WALL (       6 calls)

     Called by c_bands:
     init_us_2    :      0.02s CPU      0.02s WALL (     120 calls)
     cegterg      :      0.62s CPU      0.65s WALL (      48 calls)

     Called by sum_band:
     sum_band:bec :      0.00s CPU      0.00s WALL (      48 calls)
     addusdens    :      0.04s CPU      0.04s WALL (       6 calls)

     Called by *egterg:
     h_psi        :      0.47s CPU      0.50s WALL (     178 calls)
     s_psi        :      0.02s CPU      0.02s WALL (     178 calls)
     g_psi        :      0.00s CPU      0.00s WALL (     122 calls)
     cdiaghg      :      0.08s CPU      0.08s WALL (     162 calls)

     Called by h_psi:
     h_psi:pot    :      0.47s CPU      0.50s WALL (     178 calls)
     h_psi:calbec :      0.02s CPU      0.02s WALL (     178 calls)
     vloc_psi     :      0.43s CPU      0.46s WALL (     178 calls)
     add_vuspsi   :      0.01s CPU      0.02s WALL (     178 calls)

     General routines
     calbec       :      0.04s CPU      0.05s WALL (     266 calls)
     fft          :      0.02s CPU      0.03s WALL (      93 calls)
     ffts         :      0.00s CPU      0.00s WALL (       6 calls)
     fftw         :      0.48s CPU      0.50s WALL (    4218 calls)

     Parallel routines
     fft_scatt_xy :      0.04s CPU      0.04s WALL (    4317 calls)
     fft_scatt_yz :      0.13s CPU      0.14s WALL (    4317 calls)

     PWSCF        :     2.14s CPU         2.23s WALL


   This run was terminated on:  22:50:53   7Apr2024            

=------------------------------------------------------------------------------=
   JOB DONE.
=------------------------------------------------------------------------------=
