
     Program PWSCF v.6.3MaX starts on  7Apr2024 at 22:48:43 

     This program is part of the open-source Quantum ESPRESSO suite
     for quantum simulation of materials; please cite
         "P. Giannozzi et al., J. Phys.:Condens. Matter 21 395502 (2009);
         "P. Giannozzi et al., J. Phys.:Condens. Matter 29 465901 (2017);
          URL http://www.quantum-espresso.org", 
     in publications or presentations arising from this work. More details at
     http://www.quantum-espresso.org/quote

     Parallel version (MPI), running on     5 processors

     MPI processes distributed on     1 nodes
     R & G space division:  proc/nbgrp/npool/nimage =       5
     Waiting for input...
     Reading input from standard input

     Current dimensions of program PWSCF are:
     Max number of different atomic species (ntypx) = 10
     Max number of k-points (npk) =  40000
     Max angular momentum in pseudopotentials (lmaxx) =  3
               file Fr.pz-spdn-kjpaw_psl.1.0.0.UPF: wavefunction(s)  6P renormalized

     Subspace diagonalization in iterative solution of the eigenvalue problem:
     a serial algorithm will be used


     Parallelization info
     --------------------
     sticks:   dense  smooth     PW     G-vecs:    dense   smooth      PW
     Min          87      87     30                 1245     1245     241
     Max          88      88     31                 1247     1247     244
     Sum         439     439    151                 6231     6231    1211



     bravais-lattice index     =            2
     lattice parameter (alat)  =       6.8300  a.u.
     unit-cell volume          =      79.6530 (a.u.)^3
     number of atoms/cell      =            1
     number of atomic types    =            1
     number of electrons       =        19.00
     number of Kohn-Sham states=           14
     kinetic-energy cutoff     =      70.0000  Ry
     charge density cutoff     =     280.0000  Ry
     convergence threshold     =      1.0E-08
     mixing beta               =       0.7000
     number of iterations used =            8  plain     mixing
     Exchange-correlation      = SLA PZ NOGX NOGC ( 1  1  0  0 0 0)

     celldm(1)=   6.830000  celldm(2)=   0.000000  celldm(3)=   0.000000
     celldm(4)=   0.000000  celldm(5)=   0.000000  celldm(6)=   0.000000

     crystal axes: (cart. coord. in units of alat)
               a(1) = (  -0.500000   0.000000   0.500000 )  
               a(2) = (   0.000000   0.500000   0.500000 )  
               a(3) = (  -0.500000   0.500000   0.000000 )  

     reciprocal axes: (cart. coord. in units 2 pi/alat)
               b(1) = ( -1.000000 -1.000000  1.000000 )  
               b(2) = (  1.000000  1.000000  1.000000 )  
               b(3) = ( -1.000000  1.000000 -1.000000 )  


     PseudoPot. # 1 for Fr read from file:
     /home/lorenzo/pseudos/Fr/Fr.pz-spdn-kjpaw_psl.1.0.0.UPF
     MD5 check sum: 60dafd115682613df3cc92ec23a62a32
     Pseudo is Projector augmented-wave + core cor, Zval = 19.0
     Generated using "atomic" code by A. Dal Corso v.6.2.2
     Shape of augmentation charge: PSQ
     Using radial grid of 1287 points,  6 beta functions with: 
                l(1) =   0
                l(2) =   0
                l(3) =   1
                l(4) =   1
                l(5) =   2
                l(6) =   2
     Q(r) pseudized with 0 coefficients 


     atomic species   valence    mass     pseudopotential
        Fr            19.00   223.00000     Fr( 1.00)

     48 Sym. Ops., with inversion, found



   Cartesian axes

     site n.     atom                  positions (alat units)
         1           Fr  tau(   1) = (   0.0000000   0.0000000   0.0000000  )

     number of k points=    29  gaussian smearing, width (Ry)=  0.0100
                       cart. coord. in units 2pi/alat
        k(    1) = (   0.0000000   0.0000000   0.0000000), wk =   0.0039062
        k(    2) = (  -0.1250000   0.1250000  -0.1250000), wk =   0.0312500
        k(    3) = (  -0.2500000   0.2500000  -0.2500000), wk =   0.0312500
        k(    4) = (  -0.3750000   0.3750000  -0.3750000), wk =   0.0312500
        k(    5) = (   0.5000000  -0.5000000   0.5000000), wk =   0.0156250
        k(    6) = (   0.0000000   0.2500000   0.0000000), wk =   0.0234375
        k(    7) = (  -0.1250000   0.3750000  -0.1250000), wk =   0.0937500
        k(    8) = (  -0.2500000   0.5000000  -0.2500000), wk =   0.0937500
        k(    9) = (   0.6250000  -0.3750000   0.6250000), wk =   0.0937500
        k(   10) = (   0.5000000  -0.2500000   0.5000000), wk =   0.0937500
        k(   11) = (   0.3750000  -0.1250000   0.3750000), wk =   0.0937500
        k(   12) = (   0.2500000   0.0000000   0.2500000), wk =   0.0468750
        k(   13) = (   0.0000000   0.5000000   0.0000000), wk =   0.0234375
        k(   14) = (  -0.1250000   0.6250000  -0.1250000), wk =   0.0937500
        k(   15) = (   0.7500000  -0.2500000   0.7500000), wk =   0.0937500
        k(   16) = (   0.6250000  -0.1250000   0.6250000), wk =   0.0937500
        k(   17) = (   0.5000000   0.0000000   0.5000000), wk =   0.0468750
        k(   18) = (   0.0000000   0.7500000   0.0000000), wk =   0.0234375
        k(   19) = (   0.8750000  -0.1250000   0.8750000), wk =   0.0937500
        k(   20) = (   0.7500000   0.0000000   0.7500000), wk =   0.0468750
        k(   21) = (   0.0000000  -1.0000000   0.0000000), wk =   0.0117188
        k(   22) = (  -0.2500000   0.5000000   0.0000000), wk =   0.0937500
        k(   23) = (   0.6250000  -0.3750000   0.8750000), wk =   0.1875000
        k(   24) = (   0.5000000  -0.2500000   0.7500000), wk =   0.0937500
        k(   25) = (   0.7500000  -0.2500000   1.0000000), wk =   0.0937500
        k(   26) = (   0.6250000  -0.1250000   0.8750000), wk =   0.1875000
        k(   27) = (   0.5000000   0.0000000   0.7500000), wk =   0.0937500
        k(   28) = (  -0.2500000  -1.0000000   0.0000000), wk =   0.0468750
        k(   29) = (  -0.5000000  -1.0000000   0.0000000), wk =   0.0234375

     Dense  grid:     6231 G-vectors     FFT dimensions: (  25,  25,  25)

     Estimated max dynamical RAM per process >       7.06 MB

     Estimated total dynamical RAM >      35.30 MB

     Check: negative/imaginary core charge=   -0.000002    0.000000

     Initial potential from superposition of free atoms

     starting charge   18.97647, renormalised to   19.00000
     Starting wfcs are   10 randomized atomic wfcs +    4 random wfcs
     Checking if some PAW data can be deallocated... 

     total cpu time spent up to now is        1.4 secs

     Self-consistent Calculation

     iteration #  1     ecut=    70.00 Ry     beta= 0.70
     Davidson diagonalization with overlap
     ethr =  1.00E-02,  avg # of iterations =  4.7

     Threshold (ethr) on eigenvalues was too large:
     Diagonalizing with lowered threshold

     Davidson diagonalization with overlap
     ethr =  9.98E-05,  avg # of iterations =  2.0

     total cpu time spent up to now is        2.3 secs

     total energy              =   -1045.25545782 Ry
     Harris-Foulkes estimate   =   -1045.26877340 Ry
     estimated scf accuracy    <       0.01879314 Ry

     iteration #  2     ecut=    70.00 Ry     beta= 0.70
     Davidson diagonalization with overlap
     ethr =  9.89E-05,  avg # of iterations =  2.0

     total cpu time spent up to now is        2.7 secs

     total energy              =   -1045.25848105 Ry
     Harris-Foulkes estimate   =   -1045.25880914 Ry
     estimated scf accuracy    <       0.00054836 Ry

     iteration #  3     ecut=    70.00 Ry     beta= 0.70
     Davidson diagonalization with overlap
     ethr =  2.89E-06,  avg # of iterations =  2.6

     total cpu time spent up to now is        3.1 secs

     total energy              =   -1045.25854876 Ry
     Harris-Foulkes estimate   =   -1045.25855675 Ry
     estimated scf accuracy    <       0.00001817 Ry

     iteration #  4     ecut=    70.00 Ry     beta= 0.70
     Davidson diagonalization with overlap
     ethr =  9.56E-08,  avg # of iterations =  2.1

     total cpu time spent up to now is        3.5 secs

     total energy              =   -1045.25855370 Ry
     Harris-Foulkes estimate   =   -1045.25855324 Ry
     estimated scf accuracy    <       0.00000024 Ry

     iteration #  5     ecut=    70.00 Ry     beta= 0.70
     Davidson diagonalization with overlap
     ethr =  1.29E-09,  avg # of iterations =  2.2

     total cpu time spent up to now is        3.9 secs

     total energy              =   -1045.25855377 Ry
     Harris-Foulkes estimate   =   -1045.25855374 Ry
     estimated scf accuracy    <       0.00000001 Ry

     iteration #  6     ecut=    70.00 Ry     beta= 0.70
     Davidson diagonalization with overlap
     ethr =  7.50E-11,  avg # of iterations =  2.0

     total cpu time spent up to now is        4.3 secs

     End of self-consistent calculation

          k = 0.0000 0.0000 0.0000 (   749 PWs)   bands (ev):

    -9.4953  -9.4953  -9.4953  -9.1455  -9.1455   9.0850  46.8607  46.8607
    46.8607  48.0865  53.6760  53.6760  53.6760  57.5463

          k =-0.1250 0.1250-0.1250 (   791 PWs)   bands (ev):

    -9.4924  -9.4519  -9.4519  -9.1458  -9.1458   9.7104  41.1889  45.9860
    45.9860  47.9590  55.1478  55.1478  55.5059  56.5589

          k =-0.2500 0.2500-0.2500 (   797 PWs)   bands (ev):

    -9.4851  -9.4046  -9.4046  -9.0733  -9.0733  11.5865  33.5018  44.4058
    44.4058  47.9968  53.1548  53.8259  53.8259  58.4909

          k =-0.3750 0.3750-0.3750 (   784 PWs)   bands (ev):

    -9.4826  -9.4249  -9.4249  -8.9274  -8.9274  14.5894  26.7820  43.1167
    43.1167  47.9310  51.4688  52.1391  52.1391  62.5451

          k = 0.5000-0.5000 0.5000 (   778 PWs)   bands (ev):

    -9.4826  -9.4416  -9.4416  -8.8581  -8.8581  17.1085  22.9966  42.6235
    42.6235  47.8509  50.9496  51.5933  51.5933  65.1237

          k = 0.0000 0.2500 0.0000 (   797 PWs)   bands (ev):

    -9.5468  -9.4007  -9.4007  -9.1993  -9.1077   9.9187  43.4885  43.4885
    43.9424  46.4753  51.7027  56.6454  57.4596  57.4596

          k =-0.1250 0.3750-0.1250 (   800 PWs)   bands (ev):

    -9.5592  -9.3395  -9.3213  -9.1991  -9.0368  11.3789  36.3122  41.5474
    43.0318  47.2751  49.8732  56.3656  57.9768  58.2829

          k =-0.2500 0.5000-0.2500 (   788 PWs)   bands (ev):

    -9.5274  -9.3725  -9.3255  -9.0729  -8.9064  14.0303  29.3014  40.5905
    40.8090  46.0989  53.7835  55.6218  55.6518  56.8718

          k = 0.6250-0.3750 0.6250 (   795 PWs)   bands (ev):

    -9.4959  -9.3977  -9.3563  -8.9529  -8.8541  17.1573  24.1411  38.8363
    40.8461  45.9563  53.7639  53.9099  56.2435  60.6520

          k = 0.5000-0.2500 0.5000 (   790 PWs)   bands (ev):

    -9.4563  -9.4193  -9.3589  -8.9446  -8.9113  16.2061  25.5204  37.8426
    42.3945  46.8658  52.5834  53.0221  57.6807  61.6506

          k = 0.3750-0.1250 0.3750 (   796 PWs)   bands (ev):

    -9.4621  -9.4022  -9.3364  -9.1211  -8.9693  13.0238  31.5420  38.0277
    44.9960  48.8095  51.5472  52.9404  57.0319  58.5503

          k = 0.2500 0.0000 0.2500 (   799 PWs)   bands (ev):

    -9.4954  -9.3925  -9.3902  -9.1882  -9.0729  10.7538  38.3234  39.8310
    47.2421  49.6612  52.0500  53.7228  54.2480  56.4669

          k = 0.0000 0.5000 0.0000 (   817 PWs)   bands (ev):

    -9.6656  -9.3348  -9.1592  -9.1592  -9.0076  12.4207  37.6708  39.1727
    39.1727  44.5056  45.6456  61.8300  61.8300  62.6047

          k =-0.1250 0.6250-0.1250 (   792 PWs)   bands (ev):

    -9.6712  -9.3892  -9.1126  -9.0488  -8.8963  14.6708  32.0515  36.5071
    37.9145  44.1785  47.5936  60.4150  61.1064  63.3877

          k = 0.7500-0.2500 0.7500 (   788 PWs)   bands (ev):

    -9.6037  -9.3434  -9.1435  -9.0396  -8.8421  17.7298  26.7959  33.5510
    38.0144  44.1144  53.1935  58.3003  58.9628  63.6688

          k = 0.6250-0.1250 0.6250 (   787 PWs)   bands (ev):

    -9.5313  -9.2536  -9.1673  -9.0691  -8.9431  18.4797  25.9126  31.7089
    39.5174  44.8898  56.9824  57.1929  59.4268  62.2140

          k = 0.5000 0.0000 0.5000 (   792 PWs)   bands (ev):

    -9.4555  -9.3524  -9.1701  -9.1373  -8.9805  15.5734  30.1129  31.9623
    42.1902  46.5406  54.8951  56.2950  57.1531  59.0226

          k = 0.0000 0.7500 0.0000 (   789 PWs)   bands (ev):

    -9.7817  -9.4807  -8.9054  -8.9046  -8.9046  16.5064  30.0566  36.2476
    36.2476  43.1501  43.3139  64.2247  66.5927  66.5927

          k = 0.8750-0.1250 0.8750 (   780 PWs)   bands (ev):

    -9.7514  -9.4860  -8.9310  -8.8810  -8.8245  19.1919  26.8025  32.7367
    35.9570  43.0431  46.4993  62.4310  65.2296  68.9885

          k = 0.7500 0.0000 0.7500 (   786 PWs)   bands (ev):

    -9.6374  -9.3467  -9.0075  -8.9885  -8.8951  20.3812  26.5845  28.8771
    37.1186  43.5917  52.6665  60.3016  62.5135  64.7356

          k = 0.0000-1.0000 0.0000 (   790 PWs)   bands (ev):

    -9.8297  -9.5453  -8.8631  -8.7979  -8.7979  20.6061  24.6350  35.2215
    35.2215  42.4852  42.9257  64.0686  70.0299  70.9499

          k =-0.2500 0.5000 0.0000 (   788 PWs)   bands (ev):

    -9.5588  -9.3548  -9.2172  -9.1677  -8.9545  13.2357  33.7764  35.9001
    41.5475  48.6657  48.6809  55.1756  58.8440  61.6302

          k = 0.6250-0.3750 0.8750 (   788 PWs)   bands (ev):

    -9.4892  -9.3969  -9.2125  -9.0543  -8.9046  16.1427  28.2078  34.4784
    38.8721  47.9779  52.0895  54.9954  59.5735  62.2332

          k = 0.5000-0.2500 0.7500 (   782 PWs)   bands (ev):

    -9.4567  -9.4097  -9.1824  -9.0480  -8.8784  18.4568  24.7720  34.4202
    37.6662  47.7346  51.9746  59.7577  60.2401  60.9000

          k = 0.7500-0.2500 1.0000 (   793 PWs)   bands (ev):

    -9.6496  -9.4251  -9.0954  -8.9091  -8.8896  17.1853  29.4853  33.2640
    35.2179  47.0990  47.1664  57.9179  65.6708  65.8353

          k = 0.6250-0.1250 0.8750 (   783 PWs)   bands (ev):

    -9.5419  -9.3553  -9.1485  -9.0005  -8.8451  19.7983  26.8700  30.3942
    34.5374  47.4696  52.9629  55.9038  61.1021  65.3998

          k = 0.5000 0.0000 0.7500 (   779 PWs)   bands (ev):

    -9.4642  -9.3221  -9.1946  -9.0315  -8.9157  18.8880  28.1864  29.3111
    36.1055  48.5524  53.8306  56.0385  59.7262  63.1224

          k =-0.2500-1.0000 0.0000 (   778 PWs)   bands (ev):

    -9.6865  -9.4713  -8.9592  -8.9303  -8.7968  20.7510  25.6178  32.3346
    33.2061  46.5873  46.6540  60.4027  64.0295  68.1193

          k =-0.5000-1.0000 0.0000 (   772 PWs)   bands (ev):

    -9.3720  -9.3322  -9.3322  -9.0232  -8.7969  20.9093  28.3782  28.3782
    31.8595  53.0307  53.2435  53.2435  56.2333  69.8432

     the Fermi energy is    46.9102 ev

!    total energy              =   -1045.25855377 Ry
     Harris-Foulkes estimate   =   -1045.25855377 Ry
     estimated scf accuracy    <          1.7E-10 Ry

     total all-electron energy =    -48490.711527 Ry

     The total energy is the sum of the following terms:

     one-electron contribution =       1.48930261 Ry
     hartree contribution      =      28.18859387 Ry
     xc contribution           =     -63.89370190 Ry
     ewald contribution        =    -242.33311988 Ry
     one-center paw contrib.   =    -768.70931067 Ry
     smearing contrib. (-TS)   =      -0.00031780 Ry

     convergence has been achieved in   6 iterations

     Forces acting on atoms (cartesian axes, Ry/au):

     atom    1 type  1   force =     0.00000000    0.00000000    0.00000000

     Total force =     0.000000     Total SCF correction =     0.000000


     Computing stress (Cartesian axis) and pressure

          total   stress  (Ry/bohr**3)                   (kbar)     P= 6916.55
   0.04701776   0.00000000   0.00000000       6916.55      0.00      0.00
   0.00000000   0.04701776  -0.00000000          0.00   6916.55     -0.00
   0.00000000   0.00000000   0.04701776          0.00      0.00   6916.55


     Writing output data file Fr.save/

     init_run     :      0.38s CPU      0.39s WALL (       1 calls)
     electrons    :      2.79s CPU      2.92s WALL (       1 calls)
     forces       :      0.04s CPU      0.04s WALL (       1 calls)
     stress       :      0.12s CPU      0.12s WALL (       1 calls)

     Called by init_run:
     wfcinit      :      0.14s CPU      0.15s WALL (       1 calls)
     potinit      :      0.05s CPU      0.05s WALL (       1 calls)
     hinit0       :      0.17s CPU      0.17s WALL (       1 calls)

     Called by electrons:
     c_bands      :      2.12s CPU      2.21s WALL (       7 calls)
     sum_band     :      0.36s CPU      0.38s WALL (       7 calls)
     v_of_rho     :      0.00s CPU      0.00s WALL (       7 calls)
     newd         :      0.04s CPU      0.05s WALL (       7 calls)
     PAW_pot      :      0.31s CPU      0.31s WALL (       7 calls)
     mix_rho      :      0.00s CPU      0.00s WALL (       7 calls)

     Called by c_bands:
     init_us_2    :      0.06s CPU      0.06s WALL (     493 calls)
     cegterg      :      2.04s CPU      2.14s WALL (     203 calls)

     Called by sum_band:
     sum_band:bec :      0.00s CPU      0.00s WALL (     203 calls)
     addusdens    :      0.04s CPU      0.04s WALL (       7 calls)

     Called by *egterg:
     h_psi        :      1.48s CPU      1.55s WALL (     743 calls)
     s_psi        :      0.05s CPU      0.05s WALL (     743 calls)
     g_psi        :      0.00s CPU      0.00s WALL (     511 calls)
     cdiaghg      :      0.31s CPU      0.32s WALL (     685 calls)

     Called by h_psi:
     h_psi:pot    :      1.47s CPU      1.54s WALL (     743 calls)
     h_psi:calbec :      0.08s CPU      0.08s WALL (     743 calls)
     vloc_psi     :      1.34s CPU      1.40s WALL (     743 calls)
     add_vuspsi   :      0.05s CPU      0.05s WALL (     743 calls)

     General routines
     calbec       :      0.11s CPU      0.12s WALL (    1091 calls)
     fft          :      0.01s CPU      0.01s WALL (      38 calls)
     ffts         :      0.00s CPU      0.00s WALL (       7 calls)
     fftw         :      1.49s CPU      1.57s WALL (   17872 calls)

     Parallel routines
     fft_scatt_xy :      0.12s CPU      0.12s WALL (   17917 calls)
     fft_scatt_yz :      0.42s CPU      0.44s WALL (   17917 calls)

     PWSCF        :     4.35s CPU         4.57s WALL


   This run was terminated on:  22:48:48   7Apr2024            

=------------------------------------------------------------------------------=
   JOB DONE.
=------------------------------------------------------------------------------=
