
     Program PWSCF v.6.3MaX starts on  7Apr2024 at 22:37: 6 

     This program is part of the open-source Quantum ESPRESSO suite
     for quantum simulation of materials; please cite
         "P. Giannozzi et al., J. Phys.:Condens. Matter 21 395502 (2009);
         "P. Giannozzi et al., J. Phys.:Condens. Matter 29 465901 (2017);
          URL http://www.quantum-espresso.org", 
     in publications or presentations arising from this work. More details at
     http://www.quantum-espresso.org/quote

     Parallel version (MPI), running on     5 processors

     MPI processes distributed on     1 nodes
     R & G space division:  proc/nbgrp/npool/nimage =       5
     Waiting for input...
     Reading input from standard input

     Current dimensions of program PWSCF are:
     Max number of different atomic species (ntypx) = 10
     Max number of k-points (npk) =  40000
     Max angular momentum in pseudopotentials (lmaxx) =  3

     Subspace diagonalization in iterative solution of the eigenvalue problem:
     a serial algorithm will be used


     Parallelization info
     --------------------
     sticks:   dense  smooth     PW     G-vecs:    dense   smooth      PW
     Min          62      62     21                  765      765     144
     Max          63      63     22                  770      770     146
     Sum         313     313    109                 3839     3839     725



     bravais-lattice index     =            2
     lattice parameter (alat)  =       6.8300  a.u.
     unit-cell volume          =      79.6530 (a.u.)^3
     number of atoms/cell      =            1
     number of atomic types    =            1
     number of electrons       =        19.00
     number of Kohn-Sham states=           14
     kinetic-energy cutoff     =      50.0000  Ry
     charge density cutoff     =     200.0000  Ry
     convergence threshold     =      1.0E-08
     mixing beta               =       0.7000
     number of iterations used =            8  plain     mixing
     Exchange-correlation      = LDA ( 1  1  0  0 0 0)

     celldm(1)=   6.830000  celldm(2)=   0.000000  celldm(3)=   0.000000
     celldm(4)=   0.000000  celldm(5)=   0.000000  celldm(6)=   0.000000

     crystal axes: (cart. coord. in units of alat)
               a(1) = (  -0.500000   0.000000   0.500000 )  
               a(2) = (   0.000000   0.500000   0.500000 )  
               a(3) = (  -0.500000   0.500000   0.000000 )  

     reciprocal axes: (cart. coord. in units 2 pi/alat)
               b(1) = ( -1.000000 -1.000000  1.000000 )  
               b(2) = (  1.000000  1.000000  1.000000 )  
               b(3) = ( -1.000000  1.000000 -1.000000 )  


     PseudoPot. # 1 for Fr read from file:
     /home/lorenzo/pseudos/Fr/Fr.pz-spdn-rrkjus_psl.1.0.0.UPF
     MD5 check sum: 5665a43a3d1ea02b0b7dc7a0ae9ace04
     Pseudo is Ultrasoft + core correction, Zval = 19.0
     Generated using "atomic" code by A. Dal Corso v.6.2.2
     Using radial grid of 1287 points,  6 beta functions with: 
                l(1) =   0
                l(2) =   0
                l(3) =   1
                l(4) =   1
                l(5) =   2
                l(6) =   2
     Q(r) pseudized with 0 coefficients 


     atomic species   valence    mass     pseudopotential
        Fr            19.00   223.00000     Fr( 1.00)

     48 Sym. Ops., with inversion, found



   Cartesian axes

     site n.     atom                  positions (alat units)
         1           Fr  tau(   1) = (   0.0000000   0.0000000   0.0000000  )

     number of k points=    10  gaussian smearing, width (Ry)=  0.0100
                       cart. coord. in units 2pi/alat
        k(    1) = (   0.0000000   0.0000000   0.0000000), wk =   0.0160000
        k(    2) = (  -0.2000000   0.2000000  -0.2000000), wk =   0.1280000
        k(    3) = (  -0.4000000   0.4000000  -0.4000000), wk =   0.1280000
        k(    4) = (   0.0000000   0.4000000   0.0000000), wk =   0.0960000
        k(    5) = (  -0.2000000   0.6000000  -0.2000000), wk =   0.3840000
        k(    6) = (   0.6000000  -0.2000000   0.6000000), wk =   0.3840000
        k(    7) = (   0.4000000   0.0000000   0.4000000), wk =   0.1920000
        k(    8) = (   0.0000000   0.8000000   0.0000000), wk =   0.0960000
        k(    9) = (   0.8000000   0.0000000   0.8000000), wk =   0.1920000
        k(   10) = (   0.6000000  -0.2000000   1.0000000), wk =   0.3840000

     Dense  grid:     3839 G-vectors     FFT dimensions: (  24,  24,  24)

     Estimated max dynamical RAM per process >       4.36 MB

     Estimated total dynamical RAM >      21.82 MB

     Check: negative/imaginary core charge=   -0.000007    0.000000

     Initial potential from superposition of free atoms

     starting charge   18.97647, renormalised to   19.00000
     Starting wfcs are   10 randomized atomic wfcs +    4 random wfcs

     total cpu time spent up to now is        1.1 secs

     Self-consistent Calculation

     iteration #  1     ecut=    50.00 Ry     beta= 0.70
     Davidson diagonalization with overlap
     ethr =  1.00E-02,  avg # of iterations =  4.7

     Threshold (ethr) on eigenvalues was too large:
     Diagonalizing with lowered threshold

     Davidson diagonalization with overlap
     ethr =  8.92E-05,  avg # of iterations =  1.8

     total cpu time spent up to now is        1.4 secs

     total energy              =    -282.49632704 Ry
     Harris-Foulkes estimate   =    -282.50777905 Ry
     estimated scf accuracy    <       0.01660413 Ry

     iteration #  2     ecut=    50.00 Ry     beta= 0.70
     Davidson diagonalization with overlap
     ethr =  8.74E-05,  avg # of iterations =  2.0

     total cpu time spent up to now is        1.5 secs

     total energy              =    -282.49958550 Ry
     Harris-Foulkes estimate   =    -282.50014778 Ry
     estimated scf accuracy    <       0.00075169 Ry

     iteration #  3     ecut=    50.00 Ry     beta= 0.70
     Davidson diagonalization with overlap
     ethr =  3.96E-06,  avg # of iterations =  2.4

     total cpu time spent up to now is        1.6 secs

     total energy              =    -282.49972696 Ry
     Harris-Foulkes estimate   =    -282.49973980 Ry
     estimated scf accuracy    <       0.00002274 Ry

     iteration #  4     ecut=    50.00 Ry     beta= 0.70
     Davidson diagonalization with overlap
     ethr =  1.20E-07,  avg # of iterations =  2.0

     total cpu time spent up to now is        1.7 secs

     total energy              =    -282.49972930 Ry
     Harris-Foulkes estimate   =    -282.49972947 Ry
     estimated scf accuracy    <       0.00000031 Ry

     iteration #  5     ecut=    50.00 Ry     beta= 0.70
     Davidson diagonalization with overlap
     ethr =  1.65E-09,  avg # of iterations =  2.1

     total cpu time spent up to now is        1.8 secs

     total energy              =    -282.49972938 Ry
     Harris-Foulkes estimate   =    -282.49972939 Ry
     estimated scf accuracy    <       0.00000001 Ry

     iteration #  6     ecut=    50.00 Ry     beta= 0.70
     Davidson diagonalization with overlap
     ethr =  6.74E-11,  avg # of iterations =  2.0

     total cpu time spent up to now is        1.9 secs

     End of self-consistent calculation

          k = 0.0000 0.0000 0.0000 (   531 PWs)   bands (ev):

    -9.4305  -9.4305  -9.4305  -9.0875  -9.0875   9.1134  46.9072  46.9072
    46.9072  48.1084  53.7045  53.7045  53.7045  57.5078

          k =-0.2000 0.2000-0.2000 (   483 PWs)   bands (ev):

    -9.4191  -9.3456  -9.3456  -9.0534  -9.0534  10.7176  36.5498  45.0968
    45.0968  48.0102  54.1300  54.8510  54.8510  57.0681

          k =-0.4000 0.4000-0.4000 (   477 PWs)   bands (ev):

    -9.4166  -9.3653  -9.3653  -8.8395  -8.8395  15.3043  25.6742  43.0002
    43.0002  47.8953  51.3313  51.9746  51.9746  63.3578

          k = 0.0000 0.4000 0.0000 (   480 PWs)   bands (ev):

    -9.5440  -9.2104  -9.1961  -9.1961  -8.9881  11.2514  40.5548  40.8245
    40.8245  45.2525  47.5364  60.0416  60.1897  60.1897

          k =-0.2000 0.6000-0.2000 (   475 PWs)   bands (ev):

    -9.5291  -9.2919  -9.1443  -9.0149  -8.8140  14.9092  29.8952  37.5174
    38.8725  44.7384  51.4007  58.0275  58.4155  60.3640

          k = 0.6000-0.2000 0.6000 (   471 PWs)   bands (ev):

    -9.4414  -9.2533  -9.1856  -8.9400  -8.8505  18.0386  24.9135  34.2886
    40.3190  45.3814  55.4753  55.5220  60.5741  62.2683

          k = 0.4000 0.0000 0.4000 (   475 PWs)   bands (ev):

    -9.3697  -9.3406  -9.1772  -9.1345  -8.9050  13.3575  32.9072  34.9104
    44.7258  48.4337  52.5005  54.7667  55.3123  57.7959

          k = 0.0000 0.8000 0.0000 (   468 PWs)   bands (ev):

    -9.7274  -9.4409  -8.8298  -8.8014  -8.8014  17.5159  28.6605  35.9171
    35.9171  42.8924  43.2283  64.1984  67.6739  67.6739

          k = 0.8000 0.0000 0.8000 (   474 PWs)   bands (ev):

    -9.6177  -9.3628  -8.8869  -8.8733  -8.7945  20.6626  25.9258  30.0759
    36.4858  43.2848  50.0609  61.3229  64.2786  66.2228

          k = 0.6000-0.2000 1.0000 (   481 PWs)   bands (ev):

    -9.4070  -9.3398  -9.1254  -8.9146  -8.8074  18.9633  28.2390  30.4987
    34.3584  50.4837  50.8681  54.5080  61.6271  65.6921

     the Fermi energy is    45.3820 ev

!    total energy              =    -282.49972939 Ry
     Harris-Foulkes estimate   =    -282.49972939 Ry
     estimated scf accuracy    <          4.0E-10 Ry

     The total energy is the sum of the following terms:

     one-electron contribution =      -4.52419833 Ry
     hartree contribution      =      28.26729484 Ry
     xc contribution           =     -63.90850445 Ry
     ewald contribution        =    -242.33311993 Ry
     smearing contrib. (-TS)   =      -0.00120152 Ry

     convergence has been achieved in   6 iterations

     Forces acting on atoms (cartesian axes, Ry/au):

     atom    1 type  1   force =     0.00000000    0.00000000    0.00000000

     Total force =     0.000000     Total SCF correction =     0.000000


     Computing stress (Cartesian axis) and pressure

          total   stress  (Ry/bohr**3)                   (kbar)     P= 6992.25
   0.04753239  -0.00000000  -0.00000000       6992.25     -0.00     -0.00
  -0.00000000   0.04753239   0.00000000         -0.00   6992.25      0.00
  -0.00000000   0.00000000   0.04753239         -0.00      0.00   6992.25


     Writing output data file Fr.save/

     init_run     :      0.19s CPU      0.19s WALL (       1 calls)
     electrons    :      0.78s CPU      0.83s WALL (       1 calls)
     forces       :      0.02s CPU      0.02s WALL (       1 calls)
     stress       :      0.06s CPU      0.06s WALL (       1 calls)

     Called by init_run:
     wfcinit      :      0.04s CPU      0.05s WALL (       1 calls)
     potinit      :      0.00s CPU      0.00s WALL (       1 calls)
     hinit0       :      0.13s CPU      0.13s WALL (       1 calls)

     Called by electrons:
     c_bands      :      0.62s CPU      0.66s WALL (       7 calls)
     sum_band     :      0.12s CPU      0.13s WALL (       7 calls)
     v_of_rho     :      0.00s CPU      0.00s WALL (       7 calls)
     newd         :      0.03s CPU      0.03s WALL (       7 calls)
     mix_rho      :      0.00s CPU      0.00s WALL (       7 calls)

     Called by c_bands:
     init_us_2    :      0.02s CPU      0.02s WALL (     170 calls)
     cegterg      :      0.60s CPU      0.63s WALL (      70 calls)

     Called by sum_band:
     sum_band:bec :      0.00s CPU      0.00s WALL (      70 calls)
     addusdens    :      0.03s CPU      0.03s WALL (       7 calls)

     Called by *egterg:
     h_psi        :      0.43s CPU      0.46s WALL (     250 calls)
     s_psi        :      0.01s CPU      0.01s WALL (     250 calls)
     g_psi        :      0.00s CPU      0.00s WALL (     170 calls)
     cdiaghg      :      0.11s CPU      0.11s WALL (     230 calls)

     Called by h_psi:
     h_psi:pot    :      0.43s CPU      0.46s WALL (     250 calls)
     h_psi:calbec :      0.02s CPU      0.02s WALL (     250 calls)
     vloc_psi     :      0.39s CPU      0.42s WALL (     250 calls)
     add_vuspsi   :      0.01s CPU      0.01s WALL (     250 calls)

     General routines
     calbec       :      0.03s CPU      0.03s WALL (     370 calls)
     fft          :      0.01s CPU      0.01s WALL (      38 calls)
     ffts         :      0.00s CPU      0.00s WALL (       7 calls)
     fftw         :      0.43s CPU      0.46s WALL (    6208 calls)

     Parallel routines
     fft_scatt_xy :      0.04s CPU      0.04s WALL (    6253 calls)
     fft_scatt_yz :      0.12s CPU      0.13s WALL (    6253 calls)

     PWSCF        :     1.94s CPU         2.04s WALL


   This run was terminated on:  22:37: 8   7Apr2024            

=------------------------------------------------------------------------------=
   JOB DONE.
=------------------------------------------------------------------------------=
