
     Program PWSCF v.6.3MaX starts on  7Apr2024 at 22:45: 6 

     This program is part of the open-source Quantum ESPRESSO suite
     for quantum simulation of materials; please cite
         "P. Giannozzi et al., J. Phys.:Condens. Matter 21 395502 (2009);
         "P. Giannozzi et al., J. Phys.:Condens. Matter 29 465901 (2017);
          URL http://www.quantum-espresso.org", 
     in publications or presentations arising from this work. More details at
     http://www.quantum-espresso.org/quote

     Parallel version (MPI), running on     5 processors

     MPI processes distributed on     1 nodes
     R & G space division:  proc/nbgrp/npool/nimage =       5
     Waiting for input...
     Reading input from standard input

     Current dimensions of program PWSCF are:
     Max number of different atomic species (ntypx) = 10
     Max number of k-points (npk) =  40000
     Max angular momentum in pseudopotentials (lmaxx) =  3
               file Fr.pz-spdn-kjpaw_psl.1.0.0.UPF: wavefunction(s)  6P renormalized

     Subspace diagonalization in iterative solution of the eigenvalue problem:
     a serial algorithm will be used


     Parallelization info
     --------------------
     sticks:   dense  smooth     PW     G-vecs:    dense   smooth      PW
     Min          84      84     27                 1134     1134     213
     Max          85      85     28                 1137     1137     214
     Sum         421     421    139                 5673     5673    1067



     bravais-lattice index     =            2
     lattice parameter (alat)  =       6.8300  a.u.
     unit-cell volume          =      79.6530 (a.u.)^3
     number of atoms/cell      =            1
     number of atomic types    =            1
     number of electrons       =        19.00
     number of Kohn-Sham states=           14
     kinetic-energy cutoff     =      65.0000  Ry
     charge density cutoff     =     260.0000  Ry
     convergence threshold     =      1.0E-08
     mixing beta               =       0.7000
     number of iterations used =            8  plain     mixing
     Exchange-correlation      = SLA PZ NOGX NOGC ( 1  1  0  0 0 0)

     celldm(1)=   6.830000  celldm(2)=   0.000000  celldm(3)=   0.000000
     celldm(4)=   0.000000  celldm(5)=   0.000000  celldm(6)=   0.000000

     crystal axes: (cart. coord. in units of alat)
               a(1) = (  -0.500000   0.000000   0.500000 )  
               a(2) = (   0.000000   0.500000   0.500000 )  
               a(3) = (  -0.500000   0.500000   0.000000 )  

     reciprocal axes: (cart. coord. in units 2 pi/alat)
               b(1) = ( -1.000000 -1.000000  1.000000 )  
               b(2) = (  1.000000  1.000000  1.000000 )  
               b(3) = ( -1.000000  1.000000 -1.000000 )  


     PseudoPot. # 1 for Fr read from file:
     /home/lorenzo/pseudos/Fr/Fr.pz-spdn-kjpaw_psl.1.0.0.UPF
     MD5 check sum: 60dafd115682613df3cc92ec23a62a32
     Pseudo is Projector augmented-wave + core cor, Zval = 19.0
     Generated using "atomic" code by A. Dal Corso v.6.2.2
     Shape of augmentation charge: PSQ
     Using radial grid of 1287 points,  6 beta functions with: 
                l(1) =   0
                l(2) =   0
                l(3) =   1
                l(4) =   1
                l(5) =   2
                l(6) =   2
     Q(r) pseudized with 0 coefficients 


     atomic species   valence    mass     pseudopotential
        Fr            19.00   223.00000     Fr( 1.00)

     48 Sym. Ops., with inversion, found



   Cartesian axes

     site n.     atom                  positions (alat units)
         1           Fr  tau(   1) = (   0.0000000   0.0000000   0.0000000  )

     number of k points=    16  gaussian smearing, width (Ry)=  0.0100
                       cart. coord. in units 2pi/alat
        k(    1) = (   0.0000000   0.0000000   0.0000000), wk =   0.0092593
        k(    2) = (  -0.1666667   0.1666667  -0.1666667), wk =   0.0740741
        k(    3) = (  -0.3333333   0.3333333  -0.3333333), wk =   0.0740741
        k(    4) = (   0.5000000  -0.5000000   0.5000000), wk =   0.0370370
        k(    5) = (   0.0000000   0.3333333   0.0000000), wk =   0.0555556
        k(    6) = (  -0.1666667   0.5000000  -0.1666667), wk =   0.2222222
        k(    7) = (   0.6666667  -0.3333333   0.6666667), wk =   0.2222222
        k(    8) = (   0.5000000  -0.1666667   0.5000000), wk =   0.2222222
        k(    9) = (   0.3333333   0.0000000   0.3333333), wk =   0.1111111
        k(   10) = (   0.0000000   0.6666667   0.0000000), wk =   0.0555556
        k(   11) = (   0.8333333  -0.1666667   0.8333333), wk =   0.2222222
        k(   12) = (   0.6666667  -0.0000000   0.6666667), wk =   0.1111111
        k(   13) = (   0.0000000  -1.0000000   0.0000000), wk =   0.0277778
        k(   14) = (   0.6666667  -0.3333333   1.0000000), wk =   0.2222222
        k(   15) = (   0.5000000  -0.1666667   0.8333333), wk =   0.2222222
        k(   16) = (  -0.3333333  -1.0000000   0.0000000), wk =   0.1111111

     Dense  grid:     5673 G-vectors     FFT dimensions: (  25,  25,  25)

     Estimated max dynamical RAM per process >       6.13 MB

     Estimated total dynamical RAM >      30.66 MB

     Check: negative/imaginary core charge=   -0.000003    0.000000

     Initial potential from superposition of free atoms

     starting charge   18.97647, renormalised to   19.00000
     Starting wfcs are   10 randomized atomic wfcs +    4 random wfcs
     Checking if some PAW data can be deallocated... 

     total cpu time spent up to now is        1.4 secs

     Self-consistent Calculation

     iteration #  1     ecut=    65.00 Ry     beta= 0.70
     Davidson diagonalization with overlap
     ethr =  1.00E-02,  avg # of iterations =  4.4

     Threshold (ethr) on eigenvalues was too large:
     Diagonalizing with lowered threshold

     Davidson diagonalization with overlap
     ethr =  9.19E-05,  avg # of iterations =  2.2

     total cpu time spent up to now is        2.2 secs

     total energy              =   -1045.27682726 Ry
     Harris-Foulkes estimate   =   -1045.28907108 Ry
     estimated scf accuracy    <       0.01716723 Ry

     iteration #  2     ecut=    65.00 Ry     beta= 0.70
     Davidson diagonalization with overlap
     ethr =  9.04E-05,  avg # of iterations =  2.0

     total cpu time spent up to now is        2.6 secs

     total energy              =   -1045.28000949 Ry
     Harris-Foulkes estimate   =   -1045.28033646 Ry
     estimated scf accuracy    <       0.00058962 Ry

     iteration #  3     ecut=    65.00 Ry     beta= 0.70
     Davidson diagonalization with overlap
     ethr =  3.10E-06,  avg # of iterations =  3.3

     total cpu time spent up to now is        2.9 secs

     total energy              =   -1045.28008459 Ry
     Harris-Foulkes estimate   =   -1045.28008959 Ry
     estimated scf accuracy    <       0.00001782 Ry

     iteration #  4     ecut=    65.00 Ry     beta= 0.70
     Davidson diagonalization with overlap
     ethr =  9.38E-08,  avg # of iterations =  2.0

     total cpu time spent up to now is        3.2 secs

     total energy              =   -1045.28008928 Ry
     Harris-Foulkes estimate   =   -1045.28008881 Ry
     estimated scf accuracy    <       0.00000019 Ry

     iteration #  5     ecut=    65.00 Ry     beta= 0.70
     Davidson diagonalization with overlap
     ethr =  9.97E-10,  avg # of iterations =  2.2

     total cpu time spent up to now is        3.5 secs

     total energy              =   -1045.28008935 Ry
     Harris-Foulkes estimate   =   -1045.28008932 Ry
     estimated scf accuracy    <       0.00000003 Ry

     iteration #  6     ecut=    65.00 Ry     beta= 0.70
     Davidson diagonalization with overlap
     ethr =  1.33E-10,  avg # of iterations =  2.0

     total cpu time spent up to now is        3.7 secs

     End of self-consistent calculation

          k = 0.0000 0.0000 0.0000 (   725 PWs)   bands (ev):

    -9.4405  -9.4405  -9.4405  -9.0922  -9.0922   9.0985  46.8715  46.8715
    46.8715  48.0999  53.6871  53.6871  53.6871  57.5151

          k =-0.1667 0.1667-0.1667 (   712 PWs)   bands (ev):

    -9.4298  -9.3699  -9.3699  -9.0772  -9.0772  10.2117  38.5905  45.4858
    45.4858  47.9846  54.7956  55.5680  55.5680  56.1323

          k =-0.3333 0.3333-0.3333 (   697 PWs)   bands (ev):

    -9.4234  -9.3557  -9.3557  -8.9152  -8.9152  13.5060  28.8657  43.4959
    43.4959  47.9618  51.9065  52.5702  52.5702  61.1925

          k = 0.5000-0.5000 0.5000 (   718 PWs)   bands (ev):

    -9.4261  -9.3853  -9.3853  -8.8001  -8.8001  17.1308  22.9986  42.6431
    42.6431  47.8364  50.9700  51.5912  51.5912  65.1322

          k = 0.0000 0.3333 0.0000 (   693 PWs)   bands (ev):

    -9.5217  -9.2683  -9.2683  -9.1787  -9.0198  10.5820  41.9643  41.9643
    42.1746  45.7627  49.1991  58.4303  59.0601  59.0601

          k =-0.1667 0.5000-0.1667 (   700 PWs)   bands (ev):

    -9.5241  -9.2826  -9.1952  -9.0801  -8.8847  13.1613  32.5383  39.8482
    40.1439  45.5777  50.4339  57.8932  57.9373  58.7537

          k = 0.6667-0.3333 0.6667 (   706 PWs)   bands (ev):

    -9.4649  -9.2973  -9.2351  -8.9491  -8.7928  17.2802  24.9428  36.9928
    39.8951  45.2497  55.2747  55.2929  58.1768  58.7329

          k = 0.5000-0.1667 0.5000 (   703 PWs)   bands (ev):

    -9.3964  -9.3294  -9.2408  -8.9460  -8.8855  15.8863  27.1006  35.5779
    42.3072  46.6761  53.5226  54.0424  59.9696  60.3262

          k = 0.3333 0.0000 0.3333 (   710 PWs)   bands (ev):

    -9.4126  -9.3309  -9.2543  -9.1428  -8.9492  12.0602  35.1446  37.0087
    46.1680  49.9240  51.0982  53.7243  54.7463  57.0976

          k = 0.0000 0.6667 0.0000 (   717 PWs)   bands (ev):

    -9.6877  -9.3798  -8.9214  -8.9214  -8.8784  15.0019  32.5844  37.0386
    37.0386  43.6333  43.6967  64.3456  64.8778  64.8778

          k = 0.8333-0.1667 0.8333 (   709 PWs)   bands (ev):

    -9.6423  -9.3857  -8.9346  -8.8780  -8.7740  18.6324  27.5693  32.0637
    36.5234  43.3136  48.5917  61.2214  63.0503  68.4025

          k = 0.6667-0.0000 0.6667 (   702 PWs)   bands (ev):

    -9.5081  -9.1415  -9.0719  -9.0012  -8.9039  19.3723  28.0170  28.0518
    38.5355  44.3128  57.1650  58.7636  59.7601  62.3374

          k = 0.0000-1.0000 0.0000 (   692 PWs)   bands (ev):

    -9.7657  -9.4895  -8.8045  -8.7375  -8.7375  20.6300  24.6460  35.2317
    35.2317  42.4639  42.9400  64.0809  70.0345  70.9543

          k = 0.6667-0.3333 1.0000 (   709 PWs)   bands (ev):

    -9.4741  -9.3341  -9.1341  -8.9304  -8.8675  16.3118  30.1244  32.5792
    37.2607  49.2682  49.6793  54.6014  62.3863  64.7892

          k = 0.5000-0.1667 0.8333 (   702 PWs)   bands (ev):

    -9.3876  -9.3147  -9.1016  -9.0140  -8.8085  19.4513  26.0576  31.5103
    35.1895  49.1374  52.4451  58.1483  58.1913  63.9716

          k =-0.3333-1.0000 0.0000 (   708 PWs)   bands (ev):

    -9.5245  -9.3726  -9.0114  -8.9154  -8.7391  20.8538  26.3715  30.9573
    32.4851  48.7225  48.9133  58.0668  60.9473  68.4318

     the Fermi energy is    46.5654 ev

!    total energy              =   -1045.28008935 Ry
     Harris-Foulkes estimate   =   -1045.28008935 Ry
     estimated scf accuracy    <          1.0E-10 Ry

     total all-electron energy =    -48490.733062 Ry

     The total energy is the sum of the following terms:

     one-electron contribution =       1.43291630 Ry
     hartree contribution      =      28.23934508 Ry
     xc contribution           =     -63.90318442 Ry
     ewald contribution        =    -242.33311988 Ry
     one-center paw contrib.   =    -768.71572255 Ry
     smearing contrib. (-TS)   =      -0.00032388 Ry

     convergence has been achieved in   6 iterations

     Forces acting on atoms (cartesian axes, Ry/au):

     atom    1 type  1   force =     0.00000000    0.00000000    0.00000000

     Total force =     0.000000     Total SCF correction =     0.000000


     Computing stress (Cartesian axis) and pressure

          total   stress  (Ry/bohr**3)                   (kbar)     P= 6955.93
   0.04728544  -0.00000000  -0.00000000       6955.93     -0.00     -0.00
  -0.00000000   0.04728544   0.00000000         -0.00   6955.93      0.00
  -0.00000000   0.00000000   0.04728544         -0.00      0.00   6955.93


     Writing output data file Fr.save/

     init_run     :      0.31s CPU      0.32s WALL (       1 calls)
     electrons    :      2.27s CPU      2.37s WALL (       1 calls)
     forces       :      0.04s CPU      0.04s WALL (       1 calls)
     stress       :      0.13s CPU      0.13s WALL (       1 calls)

     Called by init_run:
     wfcinit      :      0.07s CPU      0.07s WALL (       1 calls)
     potinit      :      0.06s CPU      0.06s WALL (       1 calls)
     hinit0       :      0.17s CPU      0.17s WALL (       1 calls)

     Called by electrons:
     c_bands      :      1.56s CPU      1.63s WALL (       7 calls)
     sum_band     :      0.34s CPU      0.35s WALL (       7 calls)
     v_of_rho     :      0.01s CPU      0.01s WALL (       7 calls)
     newd         :      0.06s CPU      0.06s WALL (       7 calls)
     PAW_pot      :      0.37s CPU      0.37s WALL (       7 calls)
     mix_rho      :      0.00s CPU      0.00s WALL (       7 calls)

     Called by c_bands:
     init_us_2    :      0.03s CPU      0.04s WALL (     272 calls)
     cegterg      :      1.50s CPU      1.57s WALL (     112 calls)

     Called by sum_band:
     sum_band:bec :      0.00s CPU      0.00s WALL (     112 calls)
     addusdens    :      0.04s CPU      0.05s WALL (       7 calls)

     Called by *egterg:
     h_psi        :      1.07s CPU      1.13s WALL (     419 calls)
     s_psi        :      0.03s CPU      0.03s WALL (     419 calls)
     g_psi        :      0.00s CPU      0.00s WALL (     291 calls)
     cdiaghg      :      0.21s CPU      0.22s WALL (     387 calls)

     Called by h_psi:
     h_psi:pot    :      1.07s CPU      1.12s WALL (     419 calls)
     h_psi:calbec :      0.06s CPU      0.06s WALL (     419 calls)
     vloc_psi     :      0.98s CPU      1.03s WALL (     419 calls)
     add_vuspsi   :      0.03s CPU      0.03s WALL (     419 calls)

     General routines
     calbec       :      0.09s CPU      0.09s WALL (     611 calls)
     fft          :      0.01s CPU      0.01s WALL (      38 calls)
     ffts         :      0.00s CPU      0.00s WALL (       7 calls)
     fftw         :      1.14s CPU      1.19s WALL (    9780 calls)

     Parallel routines
     fft_scatt_xy :      0.08s CPU      0.09s WALL (    9825 calls)
     fft_scatt_yz :      0.44s CPU      0.46s WALL (    9825 calls)

     PWSCF        :     3.85s CPU         4.00s WALL


   This run was terminated on:  22:45:10   7Apr2024            

=------------------------------------------------------------------------------=
   JOB DONE.
=------------------------------------------------------------------------------=
