
     Program PWSCF v.6.3MaX starts on  7Apr2024 at 22:25:53 

     This program is part of the open-source Quantum ESPRESSO suite
     for quantum simulation of materials; please cite
         "P. Giannozzi et al., J. Phys.:Condens. Matter 21 395502 (2009);
         "P. Giannozzi et al., J. Phys.:Condens. Matter 29 465901 (2017);
          URL http://www.quantum-espresso.org", 
     in publications or presentations arising from this work. More details at
     http://www.quantum-espresso.org/quote

     Parallel version (MPI), running on     5 processors

     MPI processes distributed on     1 nodes
     R & G space division:  proc/nbgrp/npool/nimage =       5
     Waiting for input...
     Reading input from standard input

     Current dimensions of program PWSCF are:
     Max number of different atomic species (ntypx) = 10
     Max number of k-points (npk) =  40000
     Max angular momentum in pseudopotentials (lmaxx) =  3
               file Fr.pz-spdn-kjpaw_psl.1.0.0.UPF: wavefunction(s)  6P renormalized

     Subspace diagonalization in iterative solution of the eigenvalue problem:
     a serial algorithm will be used


     Parallelization info
     --------------------
     sticks:   dense  smooth     PW     G-vecs:    dense   smooth      PW
     Min          32      32     12                  272      272      61
     Max          33      33     13                  273      273      62
     Sum         163     163     61                 1363     1363     307



     bravais-lattice index     =            2
     lattice parameter (alat)  =       6.8300  a.u.
     unit-cell volume          =      79.6530 (a.u.)^3
     number of atoms/cell      =            1
     number of atomic types    =            1
     number of electrons       =        19.00
     number of Kohn-Sham states=           14
     kinetic-energy cutoff     =      25.0000  Ry
     charge density cutoff     =     100.0000  Ry
     convergence threshold     =      1.0E-08
     mixing beta               =       0.7000
     number of iterations used =            8  plain     mixing
     Exchange-correlation      = SLA PZ NOGX NOGC ( 1  1  0  0 0 0)

     celldm(1)=   6.830000  celldm(2)=   0.000000  celldm(3)=   0.000000
     celldm(4)=   0.000000  celldm(5)=   0.000000  celldm(6)=   0.000000

     crystal axes: (cart. coord. in units of alat)
               a(1) = (  -0.500000   0.000000   0.500000 )  
               a(2) = (   0.000000   0.500000   0.500000 )  
               a(3) = (  -0.500000   0.500000   0.000000 )  

     reciprocal axes: (cart. coord. in units 2 pi/alat)
               b(1) = ( -1.000000 -1.000000  1.000000 )  
               b(2) = (  1.000000  1.000000  1.000000 )  
               b(3) = ( -1.000000  1.000000 -1.000000 )  


     PseudoPot. # 1 for Fr read from file:
     /home/lorenzo/pseudos/Fr/Fr.pz-spdn-kjpaw_psl.1.0.0.UPF
     MD5 check sum: 60dafd115682613df3cc92ec23a62a32
     Pseudo is Projector augmented-wave + core cor, Zval = 19.0
     Generated using "atomic" code by A. Dal Corso v.6.2.2
     Shape of augmentation charge: PSQ
     Using radial grid of 1287 points,  6 beta functions with: 
                l(1) =   0
                l(2) =   0
                l(3) =   1
                l(4) =   1
                l(5) =   2
                l(6) =   2
     Q(r) pseudized with 0 coefficients 


     atomic species   valence    mass     pseudopotential
        Fr            19.00   223.00000     Fr( 1.00)

     48 Sym. Ops., with inversion, found



   Cartesian axes

     site n.     atom                  positions (alat units)
         1           Fr  tau(   1) = (   0.0000000   0.0000000   0.0000000  )

     number of k points=    10  gaussian smearing, width (Ry)=  0.0100
                       cart. coord. in units 2pi/alat
        k(    1) = (   0.0000000   0.0000000   0.0000000), wk =   0.0160000
        k(    2) = (  -0.2000000   0.2000000  -0.2000000), wk =   0.1280000
        k(    3) = (  -0.4000000   0.4000000  -0.4000000), wk =   0.1280000
        k(    4) = (   0.0000000   0.4000000   0.0000000), wk =   0.0960000
        k(    5) = (  -0.2000000   0.6000000  -0.2000000), wk =   0.3840000
        k(    6) = (   0.6000000  -0.2000000   0.6000000), wk =   0.3840000
        k(    7) = (   0.4000000   0.0000000   0.4000000), wk =   0.1920000
        k(    8) = (   0.0000000   0.8000000   0.0000000), wk =   0.0960000
        k(    9) = (   0.8000000   0.0000000   0.8000000), wk =   0.1920000
        k(   10) = (   0.6000000  -0.2000000   1.0000000), wk =   0.3840000

     Dense  grid:     1363 G-vectors     FFT dimensions: (  15,  15,  15)

     Estimated max dynamical RAM per process >       1.95 MB

     Estimated total dynamical RAM >       9.77 MB

     Check: negative/imaginary core charge=   -0.000045    0.000000

     Initial potential from superposition of free atoms

     starting charge   18.97647, renormalised to   19.00000
     Starting wfcs are   10 randomized atomic wfcs +    4 random wfcs
     Checking if some PAW data can be deallocated... 

     total cpu time spent up to now is        1.1 secs

     Self-consistent Calculation

     iteration #  1     ecut=    25.00 Ry     beta= 0.70
     Davidson diagonalization with overlap
     ethr =  1.00E-02,  avg # of iterations =  4.7

     total cpu time spent up to now is        1.3 secs

     total energy              =   -1040.55466081 Ry
     Harris-Foulkes estimate   =   -1041.20985437 Ry
     estimated scf accuracy    <       0.76156819 Ry

     iteration #  2     ecut=    25.00 Ry     beta= 0.70
     Davidson diagonalization with overlap
     ethr =  4.01E-03,  avg # of iterations =  2.0

     total cpu time spent up to now is        1.4 secs

     total energy              =   -1040.72400964 Ry
     Harris-Foulkes estimate   =   -1040.74375229 Ry
     estimated scf accuracy    <       0.04595105 Ry

     iteration #  3     ecut=    25.00 Ry     beta= 0.70
     Davidson diagonalization with overlap
     ethr =  2.42E-04,  avg # of iterations =  2.1

     total cpu time spent up to now is        1.5 secs

     total energy              =   -1040.72750423 Ry
     Harris-Foulkes estimate   =   -1040.72851752 Ry
     estimated scf accuracy    <       0.00213876 Ry

     iteration #  4     ecut=    25.00 Ry     beta= 0.70
     Davidson diagonalization with overlap
     ethr =  1.13E-05,  avg # of iterations =  2.1

     total cpu time spent up to now is        1.5 secs

     total energy              =   -1040.72762358 Ry
     Harris-Foulkes estimate   =   -1040.72762357 Ry
     estimated scf accuracy    <       0.00000781 Ry

     iteration #  5     ecut=    25.00 Ry     beta= 0.70
     Davidson diagonalization with overlap
     ethr =  4.11E-08,  avg # of iterations =  2.2

     total cpu time spent up to now is        1.6 secs

     total energy              =   -1040.72762484 Ry
     Harris-Foulkes estimate   =   -1040.72762488 Ry
     estimated scf accuracy    <       0.00000047 Ry

     iteration #  6     ecut=    25.00 Ry     beta= 0.70
     Davidson diagonalization with overlap
     ethr =  2.45E-09,  avg # of iterations =  1.6

     total cpu time spent up to now is        1.7 secs

     End of self-consistent calculation

          k = 0.0000 0.0000 0.0000 (   169 PWs)   bands (ev):

    -9.5128  -9.5128  -9.0632  -9.0632  -9.0632   8.6556  46.1048  46.1048
    46.1048  48.5603  56.8272  56.8272  56.8272  56.8911

          k =-0.2000 0.2000-0.2000 (   168 PWs)   bands (ev):

    -9.0790  -9.0790  -8.7862  -8.7862  -8.2786  10.2314  36.3913  44.5886
    44.5886  48.7841  54.4223  56.3672  56.3673  59.2434

          k =-0.4000 0.4000-0.4000 (   162 PWs)   bands (ev):

    -8.9644  -7.8725  -7.8725  -7.4103  -7.4103  14.7009  25.5280  42.3766
    42.3766  48.5133  52.2903  54.9735  54.9735  64.0899

          k = 0.0000 0.4000 0.0000 (   165 PWs)   bands (ev):

    -9.5255  -8.4654  -8.1256  -8.1256  -7.9807  10.7529  39.5182  40.6820
    40.6820  47.0880  49.0124  60.7731  60.7731  62.0244

          k =-0.2000 0.6000-0.2000 (   171 PWs)   bands (ev):

    -9.3389  -8.8357  -8.6698  -8.4563  -8.1620  14.3121  29.5889  37.4074
    38.6141  46.3599  52.4985  59.2042  59.5921  61.5897

          k = 0.6000-0.2000 0.6000 (   166 PWs)   bands (ev):

    -8.9202  -8.4097  -8.2163  -8.0846  -7.3932  17.2402  24.9143  34.2065
    40.0254  46.7962  56.4282  57.9284  60.9313  63.6205

          k = 0.4000 0.0000 0.4000 (   168 PWs)   bands (ev):

    -9.1459  -8.9125  -8.6731  -8.4016  -7.5446  12.8095  32.4261  35.2089
    44.1918  49.4206  53.0388  56.5936  57.6041  58.6978

          k = 0.0000 0.8000 0.0000 (   170 PWs)   bands (ev):

    -8.9500  -8.7383  -8.5197  -8.0854  -8.0854  16.8332  28.1601  35.6141
    35.6141  44.3461  45.8764  64.9635  68.0367  68.0367

          k = 0.8000 0.0000 0.8000 (   170 PWs)   bands (ev):

    -8.8689  -8.6201  -8.4395  -8.2987  -8.1038  19.5865  25.8705  30.3103
    36.1776  45.1623  51.6282  62.3339  64.9563  66.2798

          k = 0.6000-0.2000 1.0000 (   163 PWs)   bands (ev):

    -8.5322  -7.9158  -7.5950  -7.4329  -7.4098  18.1233  27.9503  30.6754
    34.7953  51.0908  52.8508  56.2124  62.1526  66.4108

     the Fermi energy is    46.8215 ev

!    total energy              =   -1040.72762486 Ry
     Harris-Foulkes estimate   =   -1040.72762486 Ry
     estimated scf accuracy    <          2.6E-09 Ry

     total all-electron energy =    -48486.180598 Ry

     The total energy is the sum of the following terms:

     one-electron contribution =       7.31340924 Ry
     hartree contribution      =      24.88959337 Ry
     xc contribution           =     -62.75937383 Ry
     ewald contribution        =    -242.33311992 Ry
     one-center paw contrib.   =    -767.83708126 Ry
     smearing contrib. (-TS)   =      -0.00105246 Ry

     convergence has been achieved in   6 iterations

     Forces acting on atoms (cartesian axes, Ry/au):

     atom    1 type  1   force =     0.00000000    0.00000000    0.00000000

     Total force =     0.000000     Total SCF correction =     0.000000


     Computing stress (Cartesian axis) and pressure

          total   stress  (Ry/bohr**3)                   (kbar)     P=********
  -0.11399380   0.00000000   0.00000000     -16769.06      0.00      0.00
   0.00000000  -0.11399380  -0.00000000          0.00 -16769.06     -0.00
   0.00000000  -0.00000000  -0.11399380          0.00     -0.00 -16769.06


     Writing output data file Fr.save/

     init_run     :      0.17s CPU      0.17s WALL (       1 calls)
     electrons    :      0.60s CPU      0.66s WALL (       1 calls)
     forces       :      0.01s CPU      0.01s WALL (       1 calls)
     stress       :      0.03s CPU      0.03s WALL (       1 calls)

     Called by init_run:
     wfcinit      :      0.02s CPU      0.02s WALL (       1 calls)
     potinit      :      0.05s CPU      0.05s WALL (       1 calls)
     hinit0       :      0.09s CPU      0.09s WALL (       1 calls)

     Called by electrons:
     c_bands      :      0.26s CPU      0.30s WALL (       6 calls)
     sum_band     :      0.04s CPU      0.05s WALL (       6 calls)
     v_of_rho     :      0.00s CPU      0.00s WALL (       7 calls)
     newd         :      0.02s CPU      0.02s WALL (       7 calls)
     PAW_pot      :      0.32s CPU      0.33s WALL (       7 calls)
     mix_rho      :      0.00s CPU      0.00s WALL (       6 calls)

     Called by c_bands:
     init_us_2    :      0.00s CPU      0.00s WALL (     150 calls)
     cegterg      :      0.25s CPU      0.29s WALL (      60 calls)

     Called by sum_band:
     sum_band:bec :      0.00s CPU      0.00s WALL (      60 calls)
     addusdens    :      0.01s CPU      0.01s WALL (       6 calls)

     Called by *egterg:
     h_psi        :      0.14s CPU      0.16s WALL (     217 calls)
     s_psi        :      0.00s CPU      0.01s WALL (     217 calls)
     g_psi        :      0.00s CPU      0.00s WALL (     147 calls)
     cdiaghg      :      0.09s CPU      0.10s WALL (     207 calls)

     Called by h_psi:
     h_psi:pot    :      0.14s CPU      0.16s WALL (     217 calls)
     h_psi:calbec :      0.01s CPU      0.01s WALL (     217 calls)
     vloc_psi     :      0.12s CPU      0.14s WALL (     217 calls)
     add_vuspsi   :      0.00s CPU      0.01s WALL (     217 calls)

     General routines
     calbec       :      0.01s CPU      0.02s WALL (     327 calls)
     fft          :      0.00s CPU      0.00s WALL (      37 calls)
     ffts         :      0.00s CPU      0.00s WALL (       6 calls)
     fftw         :      0.13s CPU      0.15s WALL (    5348 calls)

     Parallel routines
     fft_scatt_xy :      0.01s CPU      0.02s WALL (    5391 calls)
     fft_scatt_yz :      0.06s CPU      0.07s WALL (    5391 calls)

     PWSCF        :     1.78s CPU         1.90s WALL


   This run was terminated on:  22:25:55   7Apr2024            

=------------------------------------------------------------------------------=
   JOB DONE.
=------------------------------------------------------------------------------=
