
     Program PWSCF v.6.3MaX starts on  7Apr2024 at 22:54:56 

     This program is part of the open-source Quantum ESPRESSO suite
     for quantum simulation of materials; please cite
         "P. Giannozzi et al., J. Phys.:Condens. Matter 21 395502 (2009);
         "P. Giannozzi et al., J. Phys.:Condens. Matter 29 465901 (2017);
          URL http://www.quantum-espresso.org", 
     in publications or presentations arising from this work. More details at
     http://www.quantum-espresso.org/quote

     Parallel version (MPI), running on     5 processors

     MPI processes distributed on     1 nodes
     R & G space division:  proc/nbgrp/npool/nimage =       5
     Waiting for input...
     Reading input from standard input

     Current dimensions of program PWSCF are:
     Max number of different atomic species (ntypx) = 10
     Max number of k-points (npk) =  40000
     Max angular momentum in pseudopotentials (lmaxx) =  3
               file Fr.pbe-spdn-kjpaw_psl.1.0.0.UPF: wavefunction(s)  6P renormalized

     Subspace diagonalization in iterative solution of the eigenvalue problem:
     a serial algorithm will be used


     Parallelization info
     --------------------
     sticks:   dense  smooth     PW     G-vecs:    dense   smooth      PW
     Min         102     102     32                 1545     1545     280
     Max         103     103     33                 1546     1546     283
     Sum         511     511    163                 7727     7727    1411



     bravais-lattice index     =            2
     lattice parameter (alat)  =       6.8300  a.u.
     unit-cell volume          =      79.6530 (a.u.)^3
     number of atoms/cell      =            1
     number of atomic types    =            1
     number of electrons       =        19.00
     number of Kohn-Sham states=           14
     kinetic-energy cutoff     =      80.0000  Ry
     charge density cutoff     =     320.0000  Ry
     convergence threshold     =      1.0E-08
     mixing beta               =       0.7000
     number of iterations used =            8  plain     mixing
     Exchange-correlation      = SLA PW PBX PBC ( 1  4  3  4 0 0)

     celldm(1)=   6.830000  celldm(2)=   0.000000  celldm(3)=   0.000000
     celldm(4)=   0.000000  celldm(5)=   0.000000  celldm(6)=   0.000000

     crystal axes: (cart. coord. in units of alat)
               a(1) = (  -0.500000   0.000000   0.500000 )  
               a(2) = (   0.000000   0.500000   0.500000 )  
               a(3) = (  -0.500000   0.500000   0.000000 )  

     reciprocal axes: (cart. coord. in units 2 pi/alat)
               b(1) = ( -1.000000 -1.000000  1.000000 )  
               b(2) = (  1.000000  1.000000  1.000000 )  
               b(3) = ( -1.000000  1.000000 -1.000000 )  


     PseudoPot. # 1 for Fr read from file:
     /home/lorenzo/pseudos/Fr/Fr.pbe-spdn-kjpaw_psl.1.0.0.UPF
     MD5 check sum: 362a188b966a64328b94f1ef5f32e8c4
     Pseudo is Projector augmented-wave + core cor, Zval = 19.0
     Generated using "atomic" code by A. Dal Corso v.6.2.2
     Shape of augmentation charge: PSQ
     Using radial grid of 1287 points,  6 beta functions with: 
                l(1) =   0
                l(2) =   0
                l(3) =   1
                l(4) =   1
                l(5) =   2
                l(6) =   2
     Q(r) pseudized with 0 coefficients 


     atomic species   valence    mass     pseudopotential
        Fr            19.00   223.00000     Fr( 1.00)

     48 Sym. Ops., with inversion, found



   Cartesian axes

     site n.     atom                  positions (alat units)
         1           Fr  tau(   1) = (   0.0000000   0.0000000   0.0000000  )

     number of k points=    29  gaussian smearing, width (Ry)=  0.0100
                       cart. coord. in units 2pi/alat
        k(    1) = (   0.0000000   0.0000000   0.0000000), wk =   0.0039062
        k(    2) = (  -0.1250000   0.1250000  -0.1250000), wk =   0.0312500
        k(    3) = (  -0.2500000   0.2500000  -0.2500000), wk =   0.0312500
        k(    4) = (  -0.3750000   0.3750000  -0.3750000), wk =   0.0312500
        k(    5) = (   0.5000000  -0.5000000   0.5000000), wk =   0.0156250
        k(    6) = (   0.0000000   0.2500000   0.0000000), wk =   0.0234375
        k(    7) = (  -0.1250000   0.3750000  -0.1250000), wk =   0.0937500
        k(    8) = (  -0.2500000   0.5000000  -0.2500000), wk =   0.0937500
        k(    9) = (   0.6250000  -0.3750000   0.6250000), wk =   0.0937500
        k(   10) = (   0.5000000  -0.2500000   0.5000000), wk =   0.0937500
        k(   11) = (   0.3750000  -0.1250000   0.3750000), wk =   0.0937500
        k(   12) = (   0.2500000   0.0000000   0.2500000), wk =   0.0468750
        k(   13) = (   0.0000000   0.5000000   0.0000000), wk =   0.0234375
        k(   14) = (  -0.1250000   0.6250000  -0.1250000), wk =   0.0937500
        k(   15) = (   0.7500000  -0.2500000   0.7500000), wk =   0.0937500
        k(   16) = (   0.6250000  -0.1250000   0.6250000), wk =   0.0937500
        k(   17) = (   0.5000000   0.0000000   0.5000000), wk =   0.0468750
        k(   18) = (   0.0000000   0.7500000   0.0000000), wk =   0.0234375
        k(   19) = (   0.8750000  -0.1250000   0.8750000), wk =   0.0937500
        k(   20) = (   0.7500000   0.0000000   0.7500000), wk =   0.0468750
        k(   21) = (   0.0000000  -1.0000000   0.0000000), wk =   0.0117188
        k(   22) = (  -0.2500000   0.5000000   0.0000000), wk =   0.0937500
        k(   23) = (   0.6250000  -0.3750000   0.8750000), wk =   0.1875000
        k(   24) = (   0.5000000  -0.2500000   0.7500000), wk =   0.0937500
        k(   25) = (   0.7500000  -0.2500000   1.0000000), wk =   0.0937500
        k(   26) = (   0.6250000  -0.1250000   0.8750000), wk =   0.1875000
        k(   27) = (   0.5000000   0.0000000   0.7500000), wk =   0.0937500
        k(   28) = (  -0.2500000  -1.0000000   0.0000000), wk =   0.0468750
        k(   29) = (  -0.5000000  -1.0000000   0.0000000), wk =   0.0234375

     Dense  grid:     7727 G-vectors     FFT dimensions: (  27,  27,  27)

     Estimated max dynamical RAM per process >       8.53 MB

     Estimated total dynamical RAM >      42.64 MB

     Initial potential from superposition of free atoms

     starting charge   18.97009, renormalised to   19.00000
     Starting wfcs are   10 randomized atomic wfcs +    4 random wfcs
     Checking if some PAW data can be deallocated... 

     total cpu time spent up to now is        1.5 secs

     Self-consistent Calculation

     iteration #  1     ecut=    80.00 Ry     beta= 0.70
     Davidson diagonalization with overlap
     ethr =  1.00E-02,  avg # of iterations =  4.7

     Threshold (ethr) on eigenvalues was too large:
     Diagonalizing with lowered threshold

     Davidson diagonalization with overlap
     ethr =  1.07E-04,  avg # of iterations =  1.9

     total cpu time spent up to now is        2.6 secs

     total energy              =   -1069.95699150 Ry
     Harris-Foulkes estimate   =   -1069.97002349 Ry
     estimated scf accuracy    <       0.02019486 Ry

     iteration #  2     ecut=    80.00 Ry     beta= 0.70
     Davidson diagonalization with overlap
     ethr =  1.06E-04,  avg # of iterations =  2.0

     total cpu time spent up to now is        3.2 secs

     total energy              =   -1069.95990414 Ry
     Harris-Foulkes estimate   =   -1069.96022389 Ry
     estimated scf accuracy    <       0.00057889 Ry

     iteration #  3     ecut=    80.00 Ry     beta= 0.70
     Davidson diagonalization with overlap
     ethr =  3.05E-06,  avg # of iterations =  2.6

     total cpu time spent up to now is        3.8 secs

     total energy              =   -1069.95996016 Ry
     Harris-Foulkes estimate   =   -1069.95997041 Ry
     estimated scf accuracy    <       0.00002436 Ry

     iteration #  4     ecut=    80.00 Ry     beta= 0.70
     Davidson diagonalization with overlap
     ethr =  1.28E-07,  avg # of iterations =  2.1

     total cpu time spent up to now is        4.4 secs

     total energy              =   -1069.95996536 Ry
     Harris-Foulkes estimate   =   -1069.95996501 Ry
     estimated scf accuracy    <       0.00000018 Ry

     iteration #  5     ecut=    80.00 Ry     beta= 0.70
     Davidson diagonalization with overlap
     ethr =  9.66E-10,  avg # of iterations =  2.3

     total cpu time spent up to now is        4.9 secs

     total energy              =   -1069.95996546 Ry
     Harris-Foulkes estimate   =   -1069.95996540 Ry
     estimated scf accuracy    <       0.00000002 Ry

     iteration #  6     ecut=    80.00 Ry     beta= 0.70
     Davidson diagonalization with overlap
     ethr =  8.52E-11,  avg # of iterations =  2.0

     total cpu time spent up to now is        5.4 secs

     End of self-consistent calculation

          k = 0.0000 0.0000 0.0000 (   941 PWs)   bands (ev):

    -9.3008  -9.3008  -9.3008  -8.9566  -8.9566   9.4588  47.2573  47.2573
    47.2573  48.3041  53.8684  53.8684  53.8684  57.8263

          k =-0.1250 0.1250-0.1250 (   950 PWs)   bands (ev):

    -9.2952  -9.2553  -9.2553  -8.9535  -8.9535  10.0853  41.5257  46.3645
    46.3645  48.1941  55.3695  55.3695  55.7509  56.8248

          k =-0.2500 0.2500-0.2500 (   947 PWs)   bands (ev):

    -9.2871  -9.2080  -9.2080  -8.8804  -8.8804  11.9652  33.8268  44.7759
    44.7759  48.2263  53.4219  54.0510  54.0510  58.7511

          k =-0.3750 0.3750-0.3750 (   950 PWs)   bands (ev):

    -9.2852  -9.2290  -9.2290  -8.7362  -8.7362  14.9814  27.0929  43.4899
    43.4899  48.1514  51.7409  52.3386  52.3386  62.8461

          k = 0.5000-0.5000 0.5000 (   960 PWs)   bands (ev):

    -9.2870  -9.2459  -9.2459  -8.6672  -8.6672  17.5381  23.2698  42.9989
    42.9989  48.0675  51.2237  51.7841  51.7841  65.4665

          k = 0.0000 0.2500 0.0000 (   945 PWs)   bands (ev):

    -9.3492  -9.2035  -9.2035  -9.0062  -8.9156  10.2938  43.8351  43.8351
    44.3531  46.6744  51.9374  56.8586  57.6940  57.6940

          k =-0.1250 0.3750-0.1250 (   955 PWs)   bands (ev):

    -9.3604  -9.1432  -9.1253  -9.0051  -8.8447  11.7569  36.6501  41.8864
    43.3920  47.5030  50.1150  56.5903  58.2302  58.5593

          k =-0.2500 0.5000-0.2500 (   964 PWs)   bands (ev):

    -9.3295  -9.1768  -9.1304  -8.8800  -8.7159  14.4176  29.6227  40.9320
    41.1615  46.2991  54.0780  55.8570  55.8760  57.1370

          k = 0.6250-0.3750 0.6250 (   962 PWs)   bands (ev):

    -9.2987  -9.2007  -9.1598  -8.7612  -8.6630  17.5795  24.4253  39.1765
    41.1953  46.1638  54.0258  54.1299  56.4945  60.9445

          k = 0.5000-0.2500 0.5000 (   958 PWs)   bands (ev):

    -9.2597  -9.2218  -9.1628  -8.7530  -8.7206  16.6120  25.8208  38.1720
    42.7566  47.0840  52.8399  53.2339  57.9378  61.9469

          k = 0.3750-0.1250 0.3750 (   960 PWs)   bands (ev):

    -9.2641  -9.2056  -9.1406  -8.9277  -8.7779  13.4069  31.8694  38.3459
    45.3841  49.0402  51.8053  53.1508  57.2829  58.8262

          k = 0.2500 0.0000 0.2500 (   953 PWs)   bands (ev):

    -9.2972  -9.1953  -9.1934  -8.9949  -8.8810  11.1305  38.6836  40.1246
    47.6716  49.9241  52.2906  53.9398  54.4497  56.7305

          k = 0.0000 0.5000 0.0000 (   982 PWs)   bands (ev):

    -9.4654  -9.1387  -8.9633  -8.9633  -8.8160  12.8009  38.0824  39.5026
    39.5026  44.6882  45.8497  62.0954  62.0954  62.8432

          k =-0.1250 0.6250-0.1250 (   968 PWs)   bands (ev):

    -9.4719  -9.1933  -8.9190  -8.8558  -8.7061  15.0589  32.4117  36.8199
    38.2437  44.3754  47.8344  60.6744  61.3685  63.6730

          k = 0.7500-0.2500 0.7500 (   963 PWs)   bands (ev):

    -9.4049  -9.1487  -8.9498  -8.8466  -8.6519  18.1465  27.1056  33.8600
    38.3462  44.3182  53.4560  58.5483  59.2283  63.9548

          k = 0.6250-0.1250 0.6250 (   965 PWs)   bands (ev):

    -9.3338  -9.0587  -8.9735  -8.8770  -8.7514  18.9152  26.1960  32.0163
    39.8549  45.1007  57.2221  57.4541  59.7122  62.5138

          k = 0.5000 0.0000 0.5000 (   975 PWs)   bands (ev):

    -9.2591  -9.1564  -8.9768  -8.9425  -8.7892  15.9698  30.4585  32.2437
    42.5418  46.7602  55.1536  56.5202  57.4319  59.3098

          k = 0.0000 0.7500 0.0000 (   970 PWs)   bands (ev):

    -9.5801  -9.2848  -8.7151  -8.7134  -8.7134  16.9026  30.4224  36.5738
    36.5738  43.3723  43.4867  64.5119  66.8813  66.8813

          k = 0.8750-0.1250 0.8750 (   967 PWs)   bands (ev):

    -9.5508  -9.2912  -8.7409  -8.6896  -8.6347  19.6200  27.1332  33.0240
    36.2837  43.2455  46.7323  62.7076  65.5114  69.3279

          k = 0.7500 0.0000 0.7500 (   967 PWs)   bands (ev):

    -9.4389  -9.1527  -8.8149  -8.7972  -8.7029  20.8547  26.8656  29.1516
    37.4479  43.7967  52.9243  60.5601  62.7757  65.0473

          k = 0.0000-1.0000 0.0000 (   982 PWs)   bands (ev):

    -9.6277  -9.3491  -8.6737  -8.6075  -8.6075  21.0760  24.9173  35.5472
    35.5472  42.7135  43.0951  64.3683  70.3450  71.3102

          k =-0.2500 0.5000 0.0000 (   961 PWs)   bands (ev):

    -9.3605  -9.1594  -9.0234  -8.9734  -8.7642  13.6189  34.1412  36.1899
    41.8784  48.8934  48.9477  55.4179  59.0844  61.9254

          k = 0.6250-0.3750 0.8750 (   960 PWs)   bands (ev):

    -9.2915  -9.2009  -9.0185  -8.8613  -8.7139  16.5432  28.5274  34.7963
    39.1756  48.2341  52.3313  55.2522  59.8252  62.5205

          k = 0.5000-0.2500 0.7500 (   960 PWs)   bands (ev):

    -9.2596  -9.2136  -8.9890  -8.8565  -8.6878  18.8978  25.0453  34.7494
    37.9597  47.9935  52.1999  60.0496  60.4773  61.1848

          k = 0.7500-0.2500 1.0000 (   952 PWs)   bands (ev):

    -9.4497  -9.2294  -8.9014  -8.7169  -8.6987  17.5901  29.8475  33.5561
    35.5010  47.3677  47.3776  58.1741  65.9888  66.0989

          k = 0.6250-0.1250 0.8750 (   962 PWs)   bands (ev):

    -9.3440  -9.1611  -8.9545  -8.8092  -8.6543  20.2525  27.1630  30.6876
    34.8223  47.7135  53.2257  56.1512  61.3974  65.6713

          k = 0.5000 0.0000 0.7500 (   962 PWs)   bands (ev):

    -9.2681  -9.1266  -9.0018  -8.8402  -8.7243  19.3238  28.5023  29.5927
    36.3964  48.8097  54.0651  56.3144  60.0119  63.3883

          k =-0.2500-1.0000 0.0000 (   968 PWs)   bands (ev):

    -9.4875  -9.2768  -8.7671  -8.7398  -8.6073  21.2289  25.8995  32.6280
    33.4908  46.8546  46.8603  60.6633  64.3443  68.4234

          k =-0.5000-1.0000 0.0000 (   952 PWs)   bands (ev):

    -9.1789  -9.1368  -9.1368  -8.8318  -8.6070  21.3966  28.6605  28.6605
    32.1226  53.3412  53.4749  53.4749  56.5068  70.1609

     the Fermi energy is    47.1504 ev

!    total energy              =   -1069.95996547 Ry
     Harris-Foulkes estimate   =   -1069.95996546 Ry
     estimated scf accuracy    <          5.6E-10 Ry

     total all-electron energy =    -48515.570277 Ry

     The total energy is the sum of the following terms:

     one-electron contribution =       1.53777140 Ry
     hartree contribution      =      28.12643617 Ry
     xc contribution           =     -64.58183862 Ry
     ewald contribution        =    -242.33311988 Ry
     one-center paw contrib.   =    -792.70894844 Ry
     smearing contrib. (-TS)   =      -0.00026609 Ry

     convergence has been achieved in   6 iterations

     Forces acting on atoms (cartesian axes, Ry/au):

     atom    1 type  1   force =     0.00000000    0.00000000    0.00000000

     Total force =     0.000000     Total SCF correction =     0.000000


     Computing stress (Cartesian axis) and pressure

          total   stress  (Ry/bohr**3)                   (kbar)     P= 7143.13
   0.04855805  -0.00000000   0.00000000       7143.13     -0.00      0.00
  -0.00000000   0.04855805   0.00000000         -0.00   7143.13      0.00
   0.00000000   0.00000000   0.04855805          0.00      0.00   7143.13


     Writing output data file Fr.save/

     init_run     :      0.53s CPU      0.56s WALL (       1 calls)
     electrons    :      3.72s CPU      3.94s WALL (       1 calls)
     forces       :      0.05s CPU      0.05s WALL (       1 calls)
     stress       :      0.14s CPU      0.14s WALL (       1 calls)

     Called by init_run:
     wfcinit      :      0.13s CPU      0.14s WALL (       1 calls)
     potinit      :      0.14s CPU      0.16s WALL (       1 calls)
     hinit0       :      0.23s CPU      0.23s WALL (       1 calls)

     Called by electrons:
     c_bands      :      2.58s CPU      2.68s WALL (       7 calls)
     sum_band     :      0.44s CPU      0.46s WALL (       7 calls)
     v_of_rho     :      0.03s CPU      0.03s WALL (       7 calls)
     newd         :      0.05s CPU      0.06s WALL (       7 calls)
     PAW_pot      :      0.75s CPU      0.86s WALL (       7 calls)
     mix_rho      :      0.00s CPU      0.00s WALL (       7 calls)

     Called by c_bands:
     init_us_2    :      0.06s CPU      0.06s WALL (     493 calls)
     cegterg      :      2.49s CPU      2.59s WALL (     203 calls)

     Called by sum_band:
     sum_band:bec :      0.00s CPU      0.00s WALL (     203 calls)
     addusdens    :      0.05s CPU      0.05s WALL (       7 calls)

     Called by *egterg:
     h_psi        :      1.83s CPU      1.91s WALL (     741 calls)
     s_psi        :      0.06s CPU      0.06s WALL (     741 calls)
     g_psi        :      0.01s CPU      0.01s WALL (     509 calls)
     cdiaghg      :      0.31s CPU      0.32s WALL (     683 calls)

     Called by h_psi:
     h_psi:pot    :      1.82s CPU      1.90s WALL (     741 calls)
     h_psi:calbec :      0.08s CPU      0.09s WALL (     741 calls)
     vloc_psi     :      1.67s CPU      1.74s WALL (     741 calls)
     add_vuspsi   :      0.06s CPU      0.06s WALL (     741 calls)

     General routines
     calbec       :      0.12s CPU      0.13s WALL (    1089 calls)
     fft          :      0.02s CPU      0.02s WALL (     104 calls)
     ffts         :      0.00s CPU      0.00s WALL (       7 calls)
     fftw         :      1.86s CPU      1.93s WALL (   17788 calls)

     Parallel routines
     fft_scatt_xy :      0.16s CPU      0.17s WALL (   17899 calls)
     fft_scatt_yz :      0.44s CPU      0.46s WALL (   17899 calls)

     PWSCF        :     5.41s CPU         5.72s WALL


   This run was terminated on:  22:55: 2   7Apr2024            

=------------------------------------------------------------------------------=
   JOB DONE.
=------------------------------------------------------------------------------=
