
     Program PWSCF v.6.3MaX starts on  7Apr2024 at 22:46:53 

     This program is part of the open-source Quantum ESPRESSO suite
     for quantum simulation of materials; please cite
         "P. Giannozzi et al., J. Phys.:Condens. Matter 21 395502 (2009);
         "P. Giannozzi et al., J. Phys.:Condens. Matter 29 465901 (2017);
          URL http://www.quantum-espresso.org", 
     in publications or presentations arising from this work. More details at
     http://www.quantum-espresso.org/quote

     Parallel version (MPI), running on     5 processors

     MPI processes distributed on     1 nodes
     R & G space division:  proc/nbgrp/npool/nimage =       5
     Waiting for input...
     Reading input from standard input

     Current dimensions of program PWSCF are:
     Max number of different atomic species (ntypx) = 10
     Max number of k-points (npk) =  40000
     Max angular momentum in pseudopotentials (lmaxx) =  3
               file Fr.pz-spdn-kjpaw_psl.1.0.0.UPF: wavefunction(s)  6P renormalized

     Subspace diagonalization in iterative solution of the eigenvalue problem:
     a serial algorithm will be used


     Parallelization info
     --------------------
     sticks:   dense  smooth     PW     G-vecs:    dense   smooth      PW
     Min          87      87     30                 1245     1245     241
     Max          88      88     31                 1247     1247     244
     Sum         439     439    151                 6231     6231    1211



     bravais-lattice index     =            2
     lattice parameter (alat)  =       6.8300  a.u.
     unit-cell volume          =      79.6530 (a.u.)^3
     number of atoms/cell      =            1
     number of atomic types    =            1
     number of electrons       =        19.00
     number of Kohn-Sham states=           14
     kinetic-energy cutoff     =      70.0000  Ry
     charge density cutoff     =     280.0000  Ry
     convergence threshold     =      1.0E-08
     mixing beta               =       0.7000
     number of iterations used =            8  plain     mixing
     Exchange-correlation      = SLA PZ NOGX NOGC ( 1  1  0  0 0 0)

     celldm(1)=   6.830000  celldm(2)=   0.000000  celldm(3)=   0.000000
     celldm(4)=   0.000000  celldm(5)=   0.000000  celldm(6)=   0.000000

     crystal axes: (cart. coord. in units of alat)
               a(1) = (  -0.500000   0.000000   0.500000 )  
               a(2) = (   0.000000   0.500000   0.500000 )  
               a(3) = (  -0.500000   0.500000   0.000000 )  

     reciprocal axes: (cart. coord. in units 2 pi/alat)
               b(1) = ( -1.000000 -1.000000  1.000000 )  
               b(2) = (  1.000000  1.000000  1.000000 )  
               b(3) = ( -1.000000  1.000000 -1.000000 )  


     PseudoPot. # 1 for Fr read from file:
     /home/lorenzo/pseudos/Fr/Fr.pz-spdn-kjpaw_psl.1.0.0.UPF
     MD5 check sum: 60dafd115682613df3cc92ec23a62a32
     Pseudo is Projector augmented-wave + core cor, Zval = 19.0
     Generated using "atomic" code by A. Dal Corso v.6.2.2
     Shape of augmentation charge: PSQ
     Using radial grid of 1287 points,  6 beta functions with: 
                l(1) =   0
                l(2) =   0
                l(3) =   1
                l(4) =   1
                l(5) =   2
                l(6) =   2
     Q(r) pseudized with 0 coefficients 


     atomic species   valence    mass     pseudopotential
        Fr            19.00   223.00000     Fr( 1.00)

     48 Sym. Ops., with inversion, found



   Cartesian axes

     site n.     atom                  positions (alat units)
         1           Fr  tau(   1) = (   0.0000000   0.0000000   0.0000000  )

     number of k points=    56  gaussian smearing, width (Ry)=  0.0100
                       cart. coord. in units 2pi/alat
        k(    1) = (   0.0000000   0.0000000   0.0000000), wk =   0.0015026
        k(    2) = (  -0.0909091   0.0909091  -0.0909091), wk =   0.0120210
        k(    3) = (  -0.1818182   0.1818182  -0.1818182), wk =   0.0120210
        k(    4) = (  -0.2727273   0.2727273  -0.2727273), wk =   0.0120210
        k(    5) = (  -0.3636364   0.3636364  -0.3636364), wk =   0.0120210
        k(    6) = (  -0.4545455   0.4545455  -0.4545455), wk =   0.0120210
        k(    7) = (   0.0000000   0.1818182   0.0000000), wk =   0.0090158
        k(    8) = (  -0.0909091   0.2727273  -0.0909091), wk =   0.0360631
        k(    9) = (  -0.1818182   0.3636364  -0.1818182), wk =   0.0360631
        k(   10) = (  -0.2727273   0.4545455  -0.2727273), wk =   0.0360631
        k(   11) = (  -0.3636364   0.5454545  -0.3636364), wk =   0.0360631
        k(   12) = (   0.5454545  -0.3636364   0.5454545), wk =   0.0360631
        k(   13) = (   0.4545455  -0.2727273   0.4545455), wk =   0.0360631
        k(   14) = (   0.3636364  -0.1818182   0.3636364), wk =   0.0360631
        k(   15) = (   0.2727273  -0.0909091   0.2727273), wk =   0.0360631
        k(   16) = (   0.1818182  -0.0000000   0.1818182), wk =   0.0180316
        k(   17) = (   0.0000000   0.3636364   0.0000000), wk =   0.0090158
        k(   18) = (  -0.0909091   0.4545455  -0.0909091), wk =   0.0360631
        k(   19) = (  -0.1818182   0.5454545  -0.1818182), wk =   0.0360631
        k(   20) = (  -0.2727273   0.6363636  -0.2727273), wk =   0.0360631
        k(   21) = (   0.6363636  -0.2727273   0.6363636), wk =   0.0360631
        k(   22) = (   0.5454545  -0.1818182   0.5454545), wk =   0.0360631
        k(   23) = (   0.4545455  -0.0909091   0.4545455), wk =   0.0360631
        k(   24) = (   0.3636364   0.0000000   0.3636364), wk =   0.0180316
        k(   25) = (   0.0000000   0.5454545   0.0000000), wk =   0.0090158
        k(   26) = (  -0.0909091   0.6363636  -0.0909091), wk =   0.0360631
        k(   27) = (  -0.1818182   0.7272727  -0.1818182), wk =   0.0360631
        k(   28) = (   0.7272727  -0.1818182   0.7272727), wk =   0.0360631
        k(   29) = (   0.6363636  -0.0909091   0.6363636), wk =   0.0360631
        k(   30) = (   0.5454545   0.0000000   0.5454545), wk =   0.0180316
        k(   31) = (   0.0000000   0.7272727   0.0000000), wk =   0.0090158
        k(   32) = (  -0.0909091   0.8181818  -0.0909091), wk =   0.0360631
        k(   33) = (   0.8181818  -0.0909091   0.8181818), wk =   0.0360631
        k(   34) = (   0.7272727   0.0000000   0.7272727), wk =   0.0180316
        k(   35) = (   0.0000000   0.9090909   0.0000000), wk =   0.0090158
        k(   36) = (   0.9090909  -0.0000000   0.9090909), wk =   0.0180316
        k(   37) = (  -0.1818182   0.3636364   0.0000000), wk =   0.0360631
        k(   38) = (  -0.2727273   0.4545455  -0.0909091), wk =   0.0721262
        k(   39) = (  -0.3636364   0.5454545  -0.1818182), wk =   0.0721262
        k(   40) = (   0.5454545  -0.3636364   0.7272727), wk =   0.0721262
        k(   41) = (  -0.1818182   0.5454545   0.0000000), wk =   0.0360631
        k(   42) = (  -0.2727273   0.6363636  -0.0909091), wk =   0.0721262
        k(   43) = (   0.6363636  -0.2727273   0.8181818), wk =   0.0721262
        k(   44) = (   0.5454545  -0.1818182   0.7272727), wk =   0.0721262
        k(   45) = (   0.4545455  -0.0909091   0.6363636), wk =   0.0721262
        k(   46) = (   0.3636364   0.0000000   0.5454545), wk =   0.0360631
        k(   47) = (  -0.1818182   0.7272727   0.0000000), wk =   0.0360631
        k(   48) = (   0.7272727  -0.1818182   0.9090909), wk =   0.0721262
        k(   49) = (   0.6363636  -0.0909091   0.8181818), wk =   0.0721262
        k(   50) = (   0.5454545   0.0000000   0.7272727), wk =   0.0360631
        k(   51) = (   0.8181818  -0.0909091   1.0000000), wk =   0.0360631
        k(   52) = (   0.7272727   0.0000000   0.9090909), wk =   0.0360631
        k(   53) = (   0.6363636  -0.2727273   1.0000000), wk =   0.0360631
        k(   54) = (   0.5454545  -0.1818182   0.9090909), wk =   0.0721262
        k(   55) = (   0.6363636  -0.0909091   1.0000000), wk =   0.0360631
        k(   56) = (   0.5454545   0.0000000   0.9090909), wk =   0.0360631

     Dense  grid:     6231 G-vectors     FFT dimensions: (  25,  25,  25)

     Estimated max dynamical RAM per process >       7.97 MB

     Estimated total dynamical RAM >      39.83 MB

     Check: negative/imaginary core charge=   -0.000002    0.000000

     Initial potential from superposition of free atoms

     starting charge   18.97647, renormalised to   19.00000
     Starting wfcs are   10 randomized atomic wfcs +    4 random wfcs
     Checking if some PAW data can be deallocated... 

     total cpu time spent up to now is        1.4 secs

     Self-consistent Calculation

     iteration #  1     ecut=    70.00 Ry     beta= 0.70
     Davidson diagonalization with overlap
     ethr =  1.00E-02,  avg # of iterations =  4.8

     Threshold (ethr) on eigenvalues was too large:
     Diagonalizing with lowered threshold

     Davidson diagonalization with overlap
     ethr =  9.21E-05,  avg # of iterations =  1.8

     total cpu time spent up to now is        3.3 secs

     total energy              =   -1045.26136115 Ry
     Harris-Foulkes estimate   =   -1045.27363179 Ry
     estimated scf accuracy    <       0.01734786 Ry

     iteration #  2     ecut=    70.00 Ry     beta= 0.70
     Davidson diagonalization with overlap
     ethr =  9.13E-05,  avg # of iterations =  2.0

     total cpu time spent up to now is        4.0 secs

     total energy              =   -1045.26426748 Ry
     Harris-Foulkes estimate   =   -1045.26458950 Ry
     estimated scf accuracy    <       0.00056931 Ry

     iteration #  3     ecut=    70.00 Ry     beta= 0.70
     Davidson diagonalization with overlap
     ethr =  3.00E-06,  avg # of iterations =  2.6

     total cpu time spent up to now is        4.7 secs

     total energy              =   -1045.26434246 Ry
     Harris-Foulkes estimate   =   -1045.26434874 Ry
     estimated scf accuracy    <       0.00001766 Ry

     iteration #  4     ecut=    70.00 Ry     beta= 0.70
     Davidson diagonalization with overlap
     ethr =  9.29E-08,  avg # of iterations =  2.1

     total cpu time spent up to now is        5.5 secs

     total energy              =   -1045.26434784 Ry
     Harris-Foulkes estimate   =   -1045.26434731 Ry
     estimated scf accuracy    <       0.00000043 Ry

     iteration #  5     ecut=    70.00 Ry     beta= 0.70
     Davidson diagonalization with overlap
     ethr =  2.28E-09,  avg # of iterations =  2.1

     total cpu time spent up to now is        6.2 secs

     End of self-consistent calculation

          k = 0.0000 0.0000 0.0000 (   749 PWs)   bands (ev):

    -9.4346  -9.4346  -9.4346  -9.0861  -9.0861   9.0961  46.8711  46.8711
    46.8711  48.0923  53.6849  53.6849  53.6849  57.5241

          k =-0.0909 0.0909-0.0909 (   791 PWs)   bands (ev):

    -9.4342  -9.4104  -9.4104  -9.0894  -9.0894   9.4268  43.2887  46.3699
    46.3699  47.9582  54.5028  54.5028  55.5715  57.3726

          k =-0.1818 0.1818-0.1818 (   794 PWs)   bands (ev):

    -9.4285  -9.3600  -9.3600  -9.0684  -9.0684  10.4210  37.6450  45.2896
    45.2896  47.9854  54.4910  55.2209  55.2209  56.5246

          k =-0.2727 0.2727-0.2727 (   796 PWs)   bands (ev):

    -9.4235  -9.3449  -9.3449  -8.9878  -8.9878  12.0705  32.1899  44.1460
    44.1460  47.9937  52.7632  53.4323  53.4323  59.2111

          k =-0.3636 0.3636-0.3636 (   784 PWs)   bands (ev):

    -9.4221  -9.3625  -9.3625  -8.8785  -8.8785  14.2977  27.3333  43.2221
    43.2221  47.9340  51.5815  52.2435  52.2435  62.1857

          k =-0.4545 0.4545-0.4545 (   787 PWs)   bands (ev):

    -9.4234  -9.3802  -9.3802  -8.8068  -8.8068  16.6249  23.6686  42.7064
    42.7064  47.8520  51.0306  51.6638  51.6638  64.6887

          k = 0.0000 0.1818 0.0000 (   797 PWs)   bands (ev):

    -9.4638  -9.3849  -9.3849  -9.1165  -9.0672   9.5370  44.7525  44.7525
    45.1759  47.0871  53.9510  55.4104  56.0588  56.0588

          k =-0.0909 0.2727-0.0909 (   795 PWs)   bands (ev):

    -9.4743  -9.3296  -9.3248  -9.1337  -9.0357  10.3100  39.6748  43.2419
    44.7937  47.9649  51.3280  55.2852  57.7376  58.0054

          k =-0.1818 0.3636-0.1818 (   794 PWs)   bands (ev):

    -9.4617  -9.3108  -9.2932  -9.0897  -8.9615  11.7427  34.1531  42.0947
    43.6101  47.8807  51.6067  55.2269  56.3161  56.6440

          k =-0.2727 0.4545-0.2727 (   790 PWs)   bands (ev):

    -9.4431  -9.3340  -9.3053  -8.9863  -8.8616  13.7891  29.1064  41.4419
    42.1782  46.8862  53.0552  54.5050  54.6349  57.4788

          k =-0.3636 0.5455-0.3636 (   789 PWs)   bands (ev):

    -9.4280  -9.3581  -9.3282  -8.8850  -8.7995  16.1875  24.9585  40.8409
    41.3802  46.5229  53.1048  53.3793  54.0793  60.7182

          k = 0.5455-0.3636 0.5455 (   788 PWs)   bands (ev):

    -9.4113  -9.3728  -9.3391  -8.8301  -8.8097  17.3086  23.3999  39.9265
    41.9662  46.7518  52.2785  52.5895  54.8674  63.9476

          k = 0.4545-0.2727 0.4545 (   789 PWs)   bands (ev):

    -9.3989  -9.3704  -9.3313  -8.8940  -8.8401  15.3886  26.2061  39.5796
    43.1840  47.5160  51.6717  52.2646  56.0138  61.3510

          k = 0.3636-0.1818 0.3636 (   788 PWs)   bands (ev):

    -9.4111  -9.3424  -9.3121  -9.0181  -8.9064  13.0446  30.7282  39.8185
    44.8850  48.6998  51.3126  52.4336  57.5047  58.0783

          k = 0.2727-0.0909 0.2727 (   800 PWs)   bands (ev):

    -9.4300  -9.3306  -9.3205  -9.1095  -8.9940  11.1928  35.9490  40.6114
    46.6254  49.4373  51.8328  53.2168  55.3599  57.0957

          k = 0.1818-0.0000 0.1818 (   797 PWs)   bands (ev):

    -9.4400  -9.3785  -9.3597  -9.1144  -9.0561   9.9788  41.1377  42.2517
    47.3441  48.7813  53.8155  53.9788  54.9027  56.1690

          k = 0.0000 0.3636 0.0000 (   801 PWs)   bands (ev):

    -9.5359  -9.2404  -9.2404  -9.1941  -9.0070  10.8618  41.4210  41.4210
    41.4452  45.5071  48.4031  59.1280  59.5847  59.5847

          k =-0.0909 0.4545-0.0909 (   806 PWs)   bands (ev):

    -9.5547  -9.2559  -9.1771  -9.1354  -8.9459  12.0739  36.2991  40.0814
    40.8441  45.7479  47.7146  59.0675  59.6336  60.3652

          k =-0.1818 0.5455-0.1818 (   796 PWs)   bands (ev):

    -9.5314  -9.2904  -9.1749  -9.0504  -8.8497  13.9141  31.2780  38.9438
    39.3451  45.1333  50.8281  57.9484  58.1912  59.3357

          k =-0.2727 0.6364-0.2727 (   790 PWs)   bands (ev):

    -9.4940  -9.2911  -9.1974  -8.9888  -8.7899  16.2172  26.9377  37.0917
    39.2930  44.9290  54.8223  56.4315  56.8296  59.3367

          k = 0.6364-0.2727 0.6364 (   787 PWs)   bands (ev):

    -9.4592  -9.2796  -9.2169  -8.9409  -8.8065  18.0365  24.3223  35.6889
    39.9660  45.2298  55.3250  55.3431  59.3991  60.0879

          k = 0.5455-0.1818 0.5455 (   788 PWs)   bands (ev):

    -9.4187  -9.2967  -9.2207  -8.9029  -8.9014  16.9486  25.8709  34.8992
    41.3465  46.0327  54.3605  54.6467  60.6913  61.2301

          k = 0.4545-0.0909 0.4545 (   793 PWs)   bands (ev):

    -9.3729  -9.3449  -9.2061  -9.0436  -8.8929  14.6249  29.8524  34.8200
    43.3209  47.3626  53.3027  54.3790  57.5805  59.0694

          k = 0.3636 0.0000 0.3636 (   795 PWs)   bands (ev):

    -9.3998  -9.3356  -9.2230  -9.1411  -8.9253  12.6138  34.0796  36.0209
    45.5279  49.2186  51.6965  54.1040  54.9655  57.3771

          k = 0.0000 0.5455 0.0000 (   801 PWs)   bands (ev):

    -9.6287  -9.3042  -9.0459  -9.0459  -8.9271  13.0646  36.3158  38.5253
    38.5253  44.2360  44.9744  62.6067  62.6067  63.8807

          k =-0.0909 0.6364-0.0909 (   792 PWs)   bands (ev):

    -9.6417  -9.3475  -9.0081  -8.9651  -8.8467  14.6886  32.6928  36.4594
    37.5966  43.9856  46.0568  61.5508  62.3656  64.7813

          k =-0.1818 0.7273-0.1818 (   781 PWs)   bands (ev):

    -9.5983  -9.3393  -9.0269  -8.9424  -8.7811  16.8229  28.8901  33.9173
    37.3883  43.7945  49.7509  59.8401  60.8014  64.8469

          k = 0.7273-0.1818 0.7273 (   783 PWs)   bands (ev):

    -9.5398  -9.2575  -9.0519  -8.9841  -8.7970  18.8743  26.0624  31.9030
    37.9383  44.0310  54.1724  58.5292  59.3193  65.2129

          k = 0.6364-0.0909 0.6364 (   791 PWs)   bands (ev):

    -9.4825  -9.1639  -9.0703  -9.0389  -8.8938  18.7425  26.4433  30.6261
    39.2192  44.7002  57.6266  58.0084  58.8108  62.0472

          k = 0.5455 0.0000 0.5455 (   788 PWs)   bands (ev):

    -9.4233  -9.2391  -9.0872  -9.0260  -8.9570  16.6878  29.1727  30.7794
    41.1141  45.8194  56.1290  56.8803  58.4643  59.6899

          k = 0.0000 0.7273 0.0000 (   789 PWs)   bands (ev):

    -9.7133  -9.4114  -8.8614  -8.8614  -8.8530  16.0926  30.7451  36.4481
    36.4481  43.2695  43.3976  64.2609  66.1137  66.1137

          k =-0.0909 0.8182-0.0909 (   782 PWs)   bands (ev):

    -9.7077  -9.4316  -8.8736  -8.8217  -8.7737  18.0123  28.1262  34.1185
    36.0243  43.0791  45.1842  62.9023  65.4590  68.8152

          k = 0.8182-0.0909 0.8182 (   782 PWs)   bands (ev):

    -9.6400  -9.3820  -8.9002  -8.8650  -8.7789  19.9347  26.3736  30.9243
    36.3751  43.2288  49.1800  61.3956  63.8208  67.6193

          k = 0.7273 0.0000 0.7273 (   790 PWs)   bands (ev):

    -9.5577  -9.2489  -8.9791  -8.9484  -8.8504  20.2109  26.9526  28.4941
    37.4770  43.7630  53.8916  59.8697  61.7448  64.1162

          k = 0.0000 0.9091 0.0000 (   786 PWs)   bands (ev):

    -9.7633  -9.4780  -8.8089  -8.7501  -8.7501  19.6166  25.8312  35.3666
    35.3666  42.5548  42.9863  64.0987  69.9233  69.9265

          k = 0.9091-0.0000 0.9091 (   778 PWs)   bands (ev):

    -9.7321  -9.4644  -8.8210  -8.7664  -8.7487  20.6657  24.9054  33.4514
    35.4866  42.7985  44.9067  63.3131  68.0774  69.4837

          k =-0.1818 0.3636 0.0000 (   794 PWs)   bands (ev):

    -9.4868  -9.2915  -9.2476  -9.1572  -8.9804  11.3029  37.5157  39.1256
    44.8394  48.1752  49.4571  55.9492  56.5379  58.8990

          k =-0.2727 0.4545-0.0909 (   793 PWs)   bands (ev):

    -9.4632  -9.3086  -9.2133  -9.1010  -8.9028  12.9412  32.7761  37.6189
    43.0334  47.9686  51.1761  54.3979  56.7675  60.6391

          k =-0.3636 0.5455-0.1818 (   790 PWs)   bands (ev):

    -9.4271  -9.3427  -9.2265  -8.9925  -8.8399  15.1328  28.1048  37.1322
    41.1213  47.3666  52.1534  55.5952  57.2058  59.3103

          k = 0.5455-0.3636 0.7273 (   786 PWs)   bands (ev):

    -9.4010  -9.3711  -9.2312  -8.9166  -8.8132  17.3774  24.5855  37.0898
    39.8866  47.0528  51.7540  56.9751  58.0210  60.2434

          k =-0.1818 0.5455 0.0000 (   798 PWs)   bands (ev):

    -9.5676  -9.2967  -9.1210  -9.0519  -8.8849  13.4924  34.1447  36.4828
    39.7037  46.7504  46.9580  57.7367  61.0352  63.8859

          k =-0.2727 0.6364-0.0909 (   789 PWs)   bands (ev):

    -9.5273  -9.3171  -9.1236  -8.9783  -8.8298  15.4894  30.2050  34.9082
    37.9394  46.4994  50.2763  55.9410  61.5725  63.0926

          k = 0.6364-0.2727 0.8182 (   789 PWs)   bands (ev):

    -9.4747  -9.2993  -9.1212  -8.9810  -8.8036  17.7540  26.5312  33.9140
    37.1264  46.5616  53.6511  55.3918  61.2274  62.4016

          k = 0.5455-0.1818 0.7273 (   791 PWs)   bands (ev):

    -9.4322  -9.2904  -9.0886  -9.0190  -8.8288  18.7191  25.2561  32.9900
    37.5983  47.0657  53.2680  59.1711  60.2200  60.6680

          k = 0.4545-0.0909 0.6364 (   786 PWs)   bands (ev):

    -9.3882  -9.3312  -9.1240  -8.9852  -8.8885  16.9668  27.8170  32.5455
    38.9849  48.0116  52.6051  56.3850  59.4456  62.7053

          k = 0.3636 0.0000 0.5455 (   787 PWs)   bands (ev):

    -9.4075  -9.3422  -9.1453  -9.0605  -8.8840  14.7423  31.3153  33.4150
    40.9653  49.1352  51.2621  54.0745  58.5446  61.3919

          k =-0.1818 0.7273 0.0000 (   786 PWs)   bands (ev):

    -9.6422  -9.3802  -8.9890  -8.8644  -8.8168  16.4699  30.3213  34.5779
    35.7816  45.5939  45.7267  59.8710  65.8448  66.0617

          k = 0.7273-0.1818 0.9091 (   780 PWs)   bands (ev):

    -9.5794  -9.3595  -9.0126  -8.8727  -8.7862  18.5937  27.8329  31.9810
    35.1232  45.6856  49.5157  58.1608  64.2745  66.2887

          k = 0.6364-0.0909 0.8182 (   782 PWs)   bands (ev):

    -9.5060  -9.2585  -9.0654  -8.9583  -8.8006  19.9857  26.6200  29.7755
    35.6963  46.1454  54.0748  56.8093  61.1068  63.8789

          k = 0.5455 0.0000 0.7273 (   785 PWs)   bands (ev):

    -9.4441  -9.1944  -9.1234  -8.9930  -8.8743  18.9738  28.1176  28.8865
    37.0531  47.0199  55.2598  57.6429  58.9700  62.0263

          k = 0.8182-0.0909 1.0000 (   784 PWs)   bands (ev):

    -9.6868  -9.4386  -8.8729  -8.8078  -8.7501  19.8241  26.1753  33.5798
    34.1028  44.9667  45.2171  61.7663  66.3789  68.7560

          k = 0.7273 0.0000 0.9091 (   780 PWs)   bands (ev):

    -9.5990  -9.3802  -8.9282  -8.8893  -8.7526  20.7426  25.9376  30.7180
    34.4255  45.4235  49.2501  59.8482  63.3044  66.7064

          k = 0.6364-0.2727 1.0000 (   781 PWs)   bands (ev):

    -9.4499  -9.3408  -9.1259  -8.8815  -8.8698  17.5251  29.1116  31.5532
    35.8547  49.7427  50.1615  54.5083  63.8368  63.8738

          k = 0.5455-0.1818 0.9091 (   781 PWs)   bands (ev):

    -9.3814  -9.3179  -9.1372  -8.9690  -8.8008  19.4593  27.0235  30.6338
    34.5268  49.7724  52.5213  55.4183  59.6545  65.0778

          k = 0.6364-0.0909 1.0000 (   773 PWs)   bands (ev):

    -9.4781  -9.3507  -9.0685  -8.9156  -8.7505  20.3002  27.1446  30.5820
    32.6954  49.5809  49.8180  56.4788  60.7363  68.6054

          k = 0.5455 0.0000 0.9091 (   776 PWs)   bands (ev):

    -9.3872  -9.2645  -9.1971  -8.9633  -8.7517  20.6798  27.8976  28.6203
    32.8349  50.2286  54.3044  54.6275  57.0110  67.6757

     the Fermi energy is    46.5691 ev

!    total energy              =   -1045.26434790 Ry
     Harris-Foulkes estimate   =   -1045.26434789 Ry
     estimated scf accuracy    <          9.7E-09 Ry

     total all-electron energy =    -48490.717321 Ry

     The total energy is the sum of the following terms:

     one-electron contribution =       1.44699433 Ry
     hartree contribution      =      28.24106900 Ry
     xc contribution           =     -63.90408304 Ry
     ewald contribution        =    -242.33311988 Ry
     one-center paw contrib.   =    -768.71463013 Ry
     smearing contrib. (-TS)   =      -0.00057818 Ry

     convergence has been achieved in   5 iterations

     Forces acting on atoms (cartesian axes, Ry/au):

     atom    1 type  1   force =     0.00000000    0.00000000    0.00000000

     Total force =     0.000000     Total SCF correction =     0.000000


     Computing stress (Cartesian axis) and pressure

          total   stress  (Ry/bohr**3)                   (kbar)     P= 7024.10
   0.04774889   0.00000000   0.00000000       7024.10      0.00      0.00
   0.00000000   0.04774889   0.00000000          0.00   7024.10      0.00
   0.00000000   0.00000000   0.04774889          0.00      0.00   7024.10


     Writing output data file Fr.save/

     init_run     :      0.44s CPU      0.45s WALL (       1 calls)
     electrons    :      4.59s CPU      4.80s WALL (       1 calls)
     forces       :      0.06s CPU      0.06s WALL (       1 calls)
     stress       :      0.17s CPU      0.17s WALL (       1 calls)

     Called by init_run:
     wfcinit      :      0.21s CPU      0.22s WALL (       1 calls)
     potinit      :      0.05s CPU      0.05s WALL (       1 calls)
     hinit0       :      0.17s CPU      0.17s WALL (       1 calls)

     Called by electrons:
     c_bands      :      3.72s CPU      3.90s WALL (       6 calls)
     sum_band     :      0.60s CPU      0.62s WALL (       6 calls)
     v_of_rho     :      0.00s CPU      0.00s WALL (       6 calls)
     newd         :      0.04s CPU      0.04s WALL (       6 calls)
     PAW_pot      :      0.26s CPU      0.27s WALL (       6 calls)
     mix_rho      :      0.00s CPU      0.00s WALL (       6 calls)

     Called by c_bands:
     init_us_2    :      0.09s CPU      0.09s WALL (     840 calls)
     cegterg      :      3.60s CPU      3.78s WALL (     336 calls)

     Called by sum_band:
     sum_band:bec :      0.00s CPU      0.00s WALL (     336 calls)
     addusdens    :      0.03s CPU      0.04s WALL (       6 calls)

     Called by *egterg:
     h_psi        :      2.57s CPU      2.71s WALL (    1254 calls)
     s_psi        :      0.09s CPU      0.09s WALL (    1254 calls)
     g_psi        :      0.01s CPU      0.01s WALL (     862 calls)
     cdiaghg      :      0.55s CPU      0.57s WALL (    1142 calls)

     Called by h_psi:
     h_psi:pot    :      2.56s CPU      2.69s WALL (    1254 calls)
     h_psi:calbec :      0.13s CPU      0.14s WALL (    1254 calls)
     vloc_psi     :      2.33s CPU      2.45s WALL (    1254 calls)
     add_vuspsi   :      0.09s CPU      0.09s WALL (    1254 calls)

     General routines
     calbec       :      0.22s CPU      0.22s WALL (    1870 calls)
     fft          :      0.01s CPU      0.01s WALL (      34 calls)
     ffts         :      0.00s CPU      0.00s WALL (       6 calls)
     fftw         :      2.61s CPU      2.75s WALL (   29932 calls)

     Parallel routines
     fft_scatt_xy :      0.20s CPU      0.21s WALL (   29972 calls)
     fft_scatt_yz :      0.71s CPU      0.74s WALL (   29972 calls)

     PWSCF        :     6.22s CPU         6.54s WALL


   This run was terminated on:  22:47: 0   7Apr2024            

=------------------------------------------------------------------------------=
   JOB DONE.
=------------------------------------------------------------------------------=
