
     Program PWSCF v.6.3MaX starts on  7Apr2024 at 22:40: 0 

     This program is part of the open-source Quantum ESPRESSO suite
     for quantum simulation of materials; please cite
         "P. Giannozzi et al., J. Phys.:Condens. Matter 21 395502 (2009);
         "P. Giannozzi et al., J. Phys.:Condens. Matter 29 465901 (2017);
          URL http://www.quantum-espresso.org", 
     in publications or presentations arising from this work. More details at
     http://www.quantum-espresso.org/quote

     Parallel version (MPI), running on     5 processors

     MPI processes distributed on     1 nodes
     R & G space division:  proc/nbgrp/npool/nimage =       5
     Waiting for input...
     Reading input from standard input

     Current dimensions of program PWSCF are:
     Max number of different atomic species (ntypx) = 10
     Max number of k-points (npk) =  40000
     Max angular momentum in pseudopotentials (lmaxx) =  3
               file Fr.pz-spdn-kjpaw_psl.1.0.0.UPF: wavefunction(s)  6P renormalized

     Subspace diagonalization in iterative solution of the eigenvalue problem:
     a serial algorithm will be used


     Parallelization info
     --------------------
     sticks:   dense  smooth     PW     G-vecs:    dense   smooth      PW
     Min          72      72     24                  876      876     173
     Max          73      73     25                  877      877     174
     Sum         361     361    121                 4381     4381     869



     bravais-lattice index     =            2
     lattice parameter (alat)  =       6.8300  a.u.
     unit-cell volume          =      79.6530 (a.u.)^3
     number of atoms/cell      =            1
     number of atomic types    =            1
     number of electrons       =        19.00
     number of Kohn-Sham states=           14
     kinetic-energy cutoff     =      55.0000  Ry
     charge density cutoff     =     220.0000  Ry
     convergence threshold     =      1.0E-08
     mixing beta               =       0.7000
     number of iterations used =            8  plain     mixing
     Exchange-correlation      = SLA PZ NOGX NOGC ( 1  1  0  0 0 0)

     celldm(1)=   6.830000  celldm(2)=   0.000000  celldm(3)=   0.000000
     celldm(4)=   0.000000  celldm(5)=   0.000000  celldm(6)=   0.000000

     crystal axes: (cart. coord. in units of alat)
               a(1) = (  -0.500000   0.000000   0.500000 )  
               a(2) = (   0.000000   0.500000   0.500000 )  
               a(3) = (  -0.500000   0.500000   0.000000 )  

     reciprocal axes: (cart. coord. in units 2 pi/alat)
               b(1) = ( -1.000000 -1.000000  1.000000 )  
               b(2) = (  1.000000  1.000000  1.000000 )  
               b(3) = ( -1.000000  1.000000 -1.000000 )  


     PseudoPot. # 1 for Fr read from file:
     /home/lorenzo/pseudos/Fr/Fr.pz-spdn-kjpaw_psl.1.0.0.UPF
     MD5 check sum: 60dafd115682613df3cc92ec23a62a32
     Pseudo is Projector augmented-wave + core cor, Zval = 19.0
     Generated using "atomic" code by A. Dal Corso v.6.2.2
     Shape of augmentation charge: PSQ
     Using radial grid of 1287 points,  6 beta functions with: 
                l(1) =   0
                l(2) =   0
                l(3) =   1
                l(4) =   1
                l(5) =   2
                l(6) =   2
     Q(r) pseudized with 0 coefficients 


     atomic species   valence    mass     pseudopotential
        Fr            19.00   223.00000     Fr( 1.00)

     48 Sym. Ops., with inversion, found



   Cartesian axes

     site n.     atom                  positions (alat units)
         1           Fr  tau(   1) = (   0.0000000   0.0000000   0.0000000  )

     number of k points=    20  gaussian smearing, width (Ry)=  0.0100
                       cart. coord. in units 2pi/alat
        k(    1) = (   0.0000000   0.0000000   0.0000000), wk =   0.0058309
        k(    2) = (  -0.1428571   0.1428571  -0.1428571), wk =   0.0466472
        k(    3) = (  -0.2857143   0.2857143  -0.2857143), wk =   0.0466472
        k(    4) = (  -0.4285714   0.4285714  -0.4285714), wk =   0.0466472
        k(    5) = (   0.0000000   0.2857143   0.0000000), wk =   0.0349854
        k(    6) = (  -0.1428571   0.4285714  -0.1428571), wk =   0.1399417
        k(    7) = (  -0.2857143   0.5714286  -0.2857143), wk =   0.1399417
        k(    8) = (   0.5714286  -0.2857143   0.5714286), wk =   0.1399417
        k(    9) = (   0.4285714  -0.1428571   0.4285714), wk =   0.1399417
        k(   10) = (   0.2857143  -0.0000000   0.2857143), wk =   0.0699708
        k(   11) = (   0.0000000   0.5714286   0.0000000), wk =   0.0349854
        k(   12) = (  -0.1428571   0.7142857  -0.1428571), wk =   0.1399417
        k(   13) = (   0.7142857  -0.1428571   0.7142857), wk =   0.1399417
        k(   14) = (   0.5714286   0.0000000   0.5714286), wk =   0.0699708
        k(   15) = (   0.0000000   0.8571429   0.0000000), wk =   0.0349854
        k(   16) = (   0.8571429  -0.0000000   0.8571429), wk =   0.0699708
        k(   17) = (  -0.2857143   0.5714286   0.0000000), wk =   0.1399417
        k(   18) = (   0.5714286  -0.2857143   0.8571429), wk =   0.2798834
        k(   19) = (   0.7142857  -0.1428571   1.0000000), wk =   0.1399417
        k(   20) = (   0.5714286   0.0000000   0.8571429), wk =   0.1399417

     Dense  grid:     4381 G-vectors     FFT dimensions: (  24,  24,  24)

     Estimated max dynamical RAM per process >       5.07 MB

     Estimated total dynamical RAM >      25.33 MB

     Check: negative/imaginary core charge=   -0.000002    0.000000

     Initial potential from superposition of free atoms

     starting charge   18.97647, renormalised to   19.00000
     Starting wfcs are   10 randomized atomic wfcs +    4 random wfcs
     Checking if some PAW data can be deallocated... 

     total cpu time spent up to now is        1.2 secs

     Self-consistent Calculation

     iteration #  1     ecut=    55.00 Ry     beta= 0.70
     Davidson diagonalization with overlap
     ethr =  1.00E-02,  avg # of iterations =  4.7

     Threshold (ethr) on eigenvalues was too large:
     Diagonalizing with lowered threshold

     Davidson diagonalization with overlap
     ethr =  9.77E-05,  avg # of iterations =  1.8

     total cpu time spent up to now is        1.8 secs

     total energy              =   -1045.25527220 Ry
     Harris-Foulkes estimate   =   -1045.26836490 Ry
     estimated scf accuracy    <       0.01840092 Ry

     iteration #  2     ecut=    55.00 Ry     beta= 0.70
     Davidson diagonalization with overlap
     ethr =  9.68E-05,  avg # of iterations =  2.1

     total cpu time spent up to now is        2.0 secs

     total energy              =   -1045.25844695 Ry
     Harris-Foulkes estimate   =   -1045.25879118 Ry
     estimated scf accuracy    <       0.00060638 Ry

     iteration #  3     ecut=    55.00 Ry     beta= 0.70
     Davidson diagonalization with overlap
     ethr =  3.19E-06,  avg # of iterations =  3.1

     total cpu time spent up to now is        2.3 secs

     total energy              =   -1045.25852434 Ry
     Harris-Foulkes estimate   =   -1045.25853066 Ry
     estimated scf accuracy    <       0.00001837 Ry

     iteration #  4     ecut=    55.00 Ry     beta= 0.70
     Davidson diagonalization with overlap
     ethr =  9.67E-08,  avg # of iterations =  2.0

     total cpu time spent up to now is        2.5 secs

     total energy              =   -1045.25852938 Ry
     Harris-Foulkes estimate   =   -1045.25852888 Ry
     estimated scf accuracy    <       0.00000025 Ry

     iteration #  5     ecut=    55.00 Ry     beta= 0.70
     Davidson diagonalization with overlap
     ethr =  1.34E-09,  avg # of iterations =  2.2

     total cpu time spent up to now is        2.7 secs

     total energy              =   -1045.25852943 Ry
     Harris-Foulkes estimate   =   -1045.25852942 Ry
     estimated scf accuracy    <       0.00000002 Ry

     iteration #  6     ecut=    55.00 Ry     beta= 0.70
     Davidson diagonalization with overlap
     ethr =  1.22E-10,  avg # of iterations =  2.0

     total cpu time spent up to now is        2.9 secs

     End of self-consistent calculation

          k = 0.0000 0.0000 0.0000 (   537 PWs)   bands (ev):

    -9.4572  -9.4572  -9.4572  -9.1097  -9.1097   9.0942  46.8716  46.8716
    46.8716  48.0943  53.7012  53.7012  53.7012  57.5327

          k =-0.1429 0.1429-0.1429 (   540 PWs)   bands (ev):

    -9.4507  -9.4010  -9.4010  -9.1032  -9.1032   9.9116  40.0821  45.7846
    45.7846  47.9737  55.2428  55.5673  55.5673  56.1403

          k =-0.2857 0.2857-0.2857 (   555 PWs)   bands (ev):

    -9.4436  -9.3661  -9.3661  -8.9937  -8.9937  12.3546  31.4534  43.9958
    43.9958  47.9956  52.5609  53.2345  53.2345  59.6365

          k =-0.4286 0.4286-0.4286 (   556 PWs)   bands (ev):

    -9.4447  -9.3960  -9.3960  -8.8439  -8.8439  16.0277  24.5108  42.8036
    42.8036  47.8770  51.1350  51.7811  51.7811  64.1186

          k = 0.0000 0.2857 0.0000 (   548 PWs)   bands (ev):

    -9.5199  -9.3316  -9.3316  -9.1752  -9.0567  10.1837  42.8368  42.8368
    43.2291  46.1729  50.5881  57.3937  58.1823  58.1823

          k =-0.1429 0.4286-0.1429 (   550 PWs)   bands (ev):

    -9.5296  -9.2926  -9.2509  -9.1413  -8.9591  12.0880  34.6485  40.7704
    41.8969  46.4993  49.9740  57.0525  57.9625  58.3981

          k =-0.2857 0.5714-0.2857 (   544 PWs)   bands (ev):

    -9.4872  -9.3321  -9.2739  -8.9980  -8.8279  15.4479  27.1446  39.1684
    40.1374  45.5799  54.9476  55.4209  56.1205  57.5092

          k = 0.5714-0.2857 0.5714 (   559 PWs)   bands (ev):

    -9.4440  -9.3494  -9.2987  -8.8993  -8.8510  17.5718  23.9845  37.2738
    41.1983  46.0464  53.6445  53.8393  58.0039  62.6771

          k = 0.4286-0.1429 0.4286 (   551 PWs)   bands (ev):

    -9.3989  -9.3780  -9.2813  -9.0360  -8.9057  14.1968  29.4920  36.8816
    43.8732  47.8542  52.3209  53.2984  58.1951  59.4744

          k = 0.2857-0.0000 0.2857 (   559 PWs)   bands (ev):

    -9.4473  -9.3460  -9.3191  -9.1551  -9.0060  11.2734  36.9243  38.6072
    46.9333  50.2377  51.1144  53.5204  54.4568  56.7239

          k = 0.0000 0.5714 0.0000 (   552 PWs)   bands (ev):

    -9.6596  -9.3387  -9.0401  -9.0401  -8.9368  13.4466  35.5164  38.1750
    38.1750  44.0949  44.6589  63.0719  63.0719  64.4973

          k =-0.1429 0.7143-0.1429 (   547 PWs)   bands (ev):

    -9.6497  -9.3815  -9.0178  -8.9487  -8.8165  16.3170  30.0156  34.4126
    37.1472  43.6895  47.9129  60.7909  61.9106  65.5790

          k = 0.7143-0.1429 0.7143 (   545 PWs)   bands (ev):

    -9.5550  -9.2581  -9.0557  -9.0186  -8.8390  19.3229  25.9663  31.0041
    37.9692  44.0435  54.7784  58.6771  59.5502  65.0539

          k = 0.5714 0.0000 0.5714 (   546 PWs)   bands (ev):

    -9.4599  -9.2279  -9.0916  -9.0201  -9.0102  17.3115  28.7388  30.1396
    40.5175  45.4570  56.8700  57.2535  59.2692  60.0228

          k = 0.0000 0.8571 0.0000 (   556 PWs)   bands (ev):

    -9.7705  -9.4845  -8.8399  -8.7968  -8.7968  18.6217  27.0815  35.5688
    35.5688  42.6909  43.0671  64.1293  68.8859  68.8861

          k = 0.8571-0.0000 0.8571 (   550 PWs)   bands (ev):

    -9.7036  -9.4489  -8.8711  -8.8359  -8.7927  20.6827  25.2915  31.7853
    35.8624  42.9904  47.2051  62.4180  66.2856  67.9560

          k =-0.2857 0.5714 0.0000 (   547 PWs)   bands (ev):

    -9.5137  -9.3316  -9.1680  -9.0509  -8.8900  14.4815  32.0773  34.3948
    39.6678  48.7967  49.0531  54.8838  60.2827  63.2879

          k = 0.5714-0.2857 0.8571 (   548 PWs)   bands (ev):

    -9.4241  -9.3586  -9.1353  -9.0092  -8.8554  17.9223  26.5827  33.1260
    37.0177  48.3501  52.2241  56.1676  61.4762  62.2769

          k = 0.7143-0.1429 1.0000 (   551 PWs)   bands (ev):

    -9.5935  -9.4007  -9.0238  -8.8792  -8.7984  19.2706  27.4825  32.0529
    33.5981  47.6996  47.7048  58.1846  64.0154  68.3998

          k = 0.5714 0.0000 0.8571 (   533 PWs)   bands (ev):

    -9.4573  -9.2620  -9.1777  -8.9869  -8.8018  20.3990  27.7543  28.4709
    34.0774  48.5136  54.9232  55.5053  57.9015  65.9255

     the Fermi energy is    47.0105 ev

!    total energy              =   -1045.25852944 Ry
     Harris-Foulkes estimate   =   -1045.25852944 Ry
     estimated scf accuracy    <          1.8E-10 Ry

     total all-electron energy =    -48490.711502 Ry

     The total energy is the sum of the following terms:

     one-electron contribution =       1.47658196 Ry
     hartree contribution      =      28.21357151 Ry
     xc contribution           =     -63.89980674 Ry
     ewald contribution        =    -242.33311993 Ry
     one-center paw contrib.   =    -768.71557024 Ry
     smearing contrib. (-TS)   =      -0.00018600 Ry

     convergence has been achieved in   6 iterations

     Forces acting on atoms (cartesian axes, Ry/au):

     atom    1 type  1   force =     0.00000000    0.00000000    0.00000000

     Total force =     0.000000     Total SCF correction =     0.000000


     Computing stress (Cartesian axis) and pressure

          total   stress  (Ry/bohr**3)                   (kbar)     P= 6971.70
   0.04739269   0.00000000   0.00000000       6971.70      0.00      0.00
   0.00000000   0.04739269   0.00000000          0.00   6971.70      0.00
   0.00000000   0.00000000   0.04739269          0.00      0.00   6971.70


     Writing output data file Fr.save/

     init_run     :      0.26s CPU      0.27s WALL (       1 calls)
     electrons    :      1.60s CPU      1.68s WALL (       1 calls)
     forces       :      0.03s CPU      0.03s WALL (       1 calls)
     stress       :      0.09s CPU      0.09s WALL (       1 calls)

     Called by init_run:
     wfcinit      :      0.05s CPU      0.05s WALL (       1 calls)
     potinit      :      0.05s CPU      0.05s WALL (       1 calls)
     hinit0       :      0.15s CPU      0.15s WALL (       1 calls)

     Called by electrons:
     c_bands      :      1.09s CPU      1.16s WALL (       7 calls)
     sum_band     :      0.21s CPU      0.22s WALL (       7 calls)
     v_of_rho     :      0.00s CPU      0.00s WALL (       7 calls)
     newd         :      0.03s CPU      0.03s WALL (       7 calls)
     PAW_pot      :      0.31s CPU      0.31s WALL (       7 calls)
     mix_rho      :      0.00s CPU      0.00s WALL (       7 calls)

     Called by c_bands:
     init_us_2    :      0.03s CPU      0.03s WALL (     340 calls)
     cegterg      :      1.06s CPU      1.12s WALL (     140 calls)

     Called by sum_band:
     sum_band:bec :      0.00s CPU      0.00s WALL (     140 calls)
     addusdens    :      0.03s CPU      0.03s WALL (       7 calls)

     Called by *egterg:
     h_psi        :      0.72s CPU      0.77s WALL (     521 calls)
     s_psi        :      0.02s CPU      0.02s WALL (     521 calls)
     g_psi        :      0.00s CPU      0.00s WALL (     361 calls)
     cdiaghg      :      0.20s CPU      0.21s WALL (     481 calls)

     Called by h_psi:
     h_psi:pot    :      0.71s CPU      0.76s WALL (     521 calls)
     h_psi:calbec :      0.03s CPU      0.04s WALL (     521 calls)
     vloc_psi     :      0.65s CPU      0.70s WALL (     521 calls)
     add_vuspsi   :      0.02s CPU      0.02s WALL (     521 calls)

     General routines
     calbec       :      0.06s CPU      0.06s WALL (     761 calls)
     fft          :      0.01s CPU      0.01s WALL (      38 calls)
     ffts         :      0.00s CPU      0.00s WALL (       7 calls)
     fftw         :      0.73s CPU      0.79s WALL (   12242 calls)

     Parallel routines
     fft_scatt_xy :      0.07s CPU      0.07s WALL (   12287 calls)
     fft_scatt_yz :      0.21s CPU      0.22s WALL (   12287 calls)

     PWSCF        :     2.98s CPU         3.13s WALL


   This run was terminated on:  22:40: 3   7Apr2024            

=------------------------------------------------------------------------------=
   JOB DONE.
=------------------------------------------------------------------------------=
