
     Program PWSCF v.6.3MaX starts on  7Apr2024 at 22:25:25 

     This program is part of the open-source Quantum ESPRESSO suite
     for quantum simulation of materials; please cite
         "P. Giannozzi et al., J. Phys.:Condens. Matter 21 395502 (2009);
         "P. Giannozzi et al., J. Phys.:Condens. Matter 29 465901 (2017);
          URL http://www.quantum-espresso.org", 
     in publications or presentations arising from this work. More details at
     http://www.quantum-espresso.org/quote

     Parallel version (MPI), running on     5 processors

     MPI processes distributed on     1 nodes
     R & G space division:  proc/nbgrp/npool/nimage =       5
     Waiting for input...
     Reading input from standard input

     Current dimensions of program PWSCF are:
     Max number of different atomic species (ntypx) = 10
     Max number of k-points (npk) =  40000
     Max angular momentum in pseudopotentials (lmaxx) =  3
               file Fr.pbe-spdn-kjpaw_psl.1.0.0.UPF: wavefunction(s)  6P renormalized

     Subspace diagonalization in iterative solution of the eigenvalue problem:
     a serial algorithm will be used


     Parallelization info
     --------------------
     sticks:   dense  smooth     PW     G-vecs:    dense   smooth      PW
     Min          32      32     11                  271      271      56
     Max          33      33     11                  273      273      58
     Sum         163     163     55                 1363     1363     283



     bravais-lattice index     =            2
     lattice parameter (alat)  =       6.8300  a.u.
     unit-cell volume          =      79.6530 (a.u.)^3
     number of atoms/cell      =            1
     number of atomic types    =            1
     number of electrons       =        19.00
     number of Kohn-Sham states=           14
     kinetic-energy cutoff     =      25.0000  Ry
     charge density cutoff     =     100.0000  Ry
     convergence threshold     =      1.0E-08
     mixing beta               =       0.7000
     number of iterations used =            8  plain     mixing
     Exchange-correlation      = SLA PW PBX PBC ( 1  4  3  4 0 0)

     celldm(1)=   6.830000  celldm(2)=   0.000000  celldm(3)=   0.000000
     celldm(4)=   0.000000  celldm(5)=   0.000000  celldm(6)=   0.000000

     crystal axes: (cart. coord. in units of alat)
               a(1) = (  -0.500000   0.000000   0.500000 )  
               a(2) = (   0.000000   0.500000   0.500000 )  
               a(3) = (  -0.500000   0.500000   0.000000 )  

     reciprocal axes: (cart. coord. in units 2 pi/alat)
               b(1) = ( -1.000000 -1.000000  1.000000 )  
               b(2) = (  1.000000  1.000000  1.000000 )  
               b(3) = ( -1.000000  1.000000 -1.000000 )  


     PseudoPot. # 1 for Fr read from file:
     /home/lorenzo/pseudos/Fr/Fr.pbe-spdn-kjpaw_psl.1.0.0.UPF
     MD5 check sum: 362a188b966a64328b94f1ef5f32e8c4
     Pseudo is Projector augmented-wave + core cor, Zval = 19.0
     Generated using "atomic" code by A. Dal Corso v.6.2.2
     Shape of augmentation charge: PSQ
     Using radial grid of 1287 points,  6 beta functions with: 
                l(1) =   0
                l(2) =   0
                l(3) =   1
                l(4) =   1
                l(5) =   2
                l(6) =   2
     Q(r) pseudized with 0 coefficients 


     atomic species   valence    mass     pseudopotential
        Fr            19.00   223.00000     Fr( 1.00)

     48 Sym. Ops., with inversion, found



   Cartesian axes

     site n.     atom                  positions (alat units)
         1           Fr  tau(   1) = (   0.0000000   0.0000000   0.0000000  )

     number of k points=     3  gaussian smearing, width (Ry)=  0.0100
                       cart. coord. in units 2pi/alat
        k(    1) = (   0.0000000   0.0000000   0.0000000), wk =   0.2500000
        k(    2) = (   0.5000000  -0.5000000   0.5000000), wk =   1.0000000
        k(    3) = (   0.0000000  -1.0000000   0.0000000), wk =   0.7500000

     Dense  grid:     1363 G-vectors     FFT dimensions: (  15,  15,  15)

     Estimated max dynamical RAM per process >       1.91 MB

     Estimated total dynamical RAM >       9.54 MB

     Check: negative/imaginary core charge=   -0.000045    0.000000

     Initial potential from superposition of free atoms

     starting charge   18.97009, renormalised to   19.00000
     Starting wfcs are   10 randomized atomic wfcs +    4 random wfcs
     Checking if some PAW data can be deallocated... 

     total cpu time spent up to now is        1.7 secs

     Self-consistent Calculation

     iteration #  1     ecut=    25.00 Ry     beta= 0.70
     Davidson diagonalization with overlap
     ethr =  1.00E-02,  avg # of iterations =  4.3

     total cpu time spent up to now is        1.9 secs

     total energy              =   -1065.17820538 Ry
     Harris-Foulkes estimate   =   -1065.74283925 Ry
     estimated scf accuracy    <       0.69454503 Ry

     iteration #  2     ecut=    25.00 Ry     beta= 0.70
     Davidson diagonalization with overlap
     ethr =  3.66E-03,  avg # of iterations =  2.0

     total cpu time spent up to now is        2.0 secs

     total energy              =   -1065.33266778 Ry
     Harris-Foulkes estimate   =   -1065.34421035 Ry
     estimated scf accuracy    <       0.03598315 Ry

     iteration #  3     ecut=    25.00 Ry     beta= 0.70
     Davidson diagonalization with overlap
     ethr =  1.89E-04,  avg # of iterations =  2.0

     total cpu time spent up to now is        2.1 secs

     total energy              =   -1065.33532103 Ry
     Harris-Foulkes estimate   =   -1065.33567910 Ry
     estimated scf accuracy    <       0.00188896 Ry

     iteration #  4     ecut=    25.00 Ry     beta= 0.70
     Davidson diagonalization with overlap
     ethr =  9.94E-06,  avg # of iterations =  2.0

     total cpu time spent up to now is        2.3 secs

     total energy              =   -1065.33542236 Ry
     Harris-Foulkes estimate   =   -1065.33541910 Ry
     estimated scf accuracy    <       0.00000831 Ry

     iteration #  5     ecut=    25.00 Ry     beta= 0.70
     Davidson diagonalization with overlap
     ethr =  4.37E-08,  avg # of iterations =  4.0

     total cpu time spent up to now is        2.4 secs

     total energy              =   -1065.33542360 Ry
     Harris-Foulkes estimate   =   -1065.33542342 Ry
     estimated scf accuracy    <       0.00000029 Ry

     iteration #  6     ecut=    25.00 Ry     beta= 0.70
     Davidson diagonalization with overlap
     ethr =  1.52E-09,  avg # of iterations =  1.7

     total cpu time spent up to now is        2.6 secs

     End of self-consistent calculation

          k = 0.0000 0.0000 0.0000 (   169 PWs)   bands (ev):

    -9.1592  -9.1592  -8.6960  -8.6960  -8.6960   9.0701  46.5753  46.5753
    46.5753  48.8883  57.0789  57.1646  57.1646  57.1646

          k = 0.5000-0.5000 0.5000 (   168 PWs)   bands (ev):

    -8.7181  -8.3861  -8.3861  -7.6999  -7.6999  16.8822  23.3267  42.4806
    42.4806  48.5949  52.4581  54.9427  54.9427  65.5260

          k = 0.0000-1.0000 0.0000 (   174 PWs)   bands (ev):

    -9.1259  -8.5814  -8.5814  -8.5726  -6.8362  20.1153  24.9335  35.3359
    35.3359  43.9540  45.8998  64.8969  70.5555  71.1892

     the Fermi energy is    46.5339 ev

!    total energy              =   -1065.33542361 Ry
     Harris-Foulkes estimate   =   -1065.33542361 Ry
     estimated scf accuracy    <          1.1E-09 Ry

     total all-electron energy =    -48510.945735 Ry

     The total energy is the sum of the following terms:

     one-electron contribution =       7.32686523 Ry
     hartree contribution      =      25.01762381 Ry
     xc contribution           =     -63.41366415 Ry
     ewald contribution        =    -242.33311992 Ry
     one-center paw contrib.   =    -791.93120030 Ry
     smearing contrib. (-TS)   =      -0.00192828 Ry

     convergence has been achieved in   6 iterations

     Forces acting on atoms (cartesian axes, Ry/au):

     atom    1 type  1   force =     0.00000000    0.00000000    0.00000000

     Total force =     0.000000     Total SCF correction =     0.000000


     Computing stress (Cartesian axis) and pressure

          total   stress  (Ry/bohr**3)                   (kbar)     P=********
  -0.10237991   0.00000000   0.00000000     -15060.60      0.00      0.00
   0.00000000  -0.10237991  -0.00000000          0.00 -15060.60     -0.00
   0.00000000   0.00000000  -0.10237991          0.00      0.00 -15060.60


     Writing output data file Fr.save/

     init_run     :      0.25s CPU      0.27s WALL (       1 calls)
     electrons    :      0.85s CPU      0.97s WALL (       1 calls)
     forces       :      0.01s CPU      0.01s WALL (       1 calls)
     stress       :      0.02s CPU      0.02s WALL (       1 calls)

     Called by init_run:
     wfcinit      :      0.00s CPU      0.00s WALL (       1 calls)
     potinit      :      0.11s CPU      0.13s WALL (       1 calls)
     hinit0       :      0.12s CPU      0.12s WALL (       1 calls)

     Called by electrons:
     c_bands      :      0.09s CPU      0.10s WALL (       6 calls)
     sum_band     :      0.02s CPU      0.03s WALL (       6 calls)
     v_of_rho     :      0.01s CPU      0.01s WALL (       7 calls)
     newd         :      0.01s CPU      0.01s WALL (       7 calls)
     PAW_pot      :      0.82s CPU      0.93s WALL (       7 calls)
     mix_rho      :      0.00s CPU      0.00s WALL (       6 calls)

     Called by c_bands:
     init_us_2    :      0.00s CPU      0.00s WALL (      45 calls)
     cegterg      :      0.09s CPU      0.10s WALL (      18 calls)

     Called by sum_band:
     sum_band:bec :      0.00s CPU      0.00s WALL (      18 calls)
     addusdens    :      0.01s CPU      0.01s WALL (       6 calls)

     Called by *egterg:
     h_psi        :      0.05s CPU      0.05s WALL (      69 calls)
     s_psi        :      0.00s CPU      0.00s WALL (      69 calls)
     g_psi        :      0.00s CPU      0.00s WALL (      48 calls)
     cdiaghg      :      0.03s CPU      0.03s WALL (      66 calls)

     Called by h_psi:
     h_psi:pot    :      0.05s CPU      0.05s WALL (      69 calls)
     h_psi:calbec :      0.00s CPU      0.00s WALL (      69 calls)
     vloc_psi     :      0.04s CPU      0.05s WALL (      69 calls)
     add_vuspsi   :      0.00s CPU      0.00s WALL (      69 calls)

     General routines
     calbec       :      0.00s CPU      0.01s WALL (     102 calls)
     fft          :      0.01s CPU      0.01s WALL (     103 calls)
     ffts         :      0.00s CPU      0.00s WALL (       6 calls)
     fftw         :      0.05s CPU      0.05s WALL (    1616 calls)

     Parallel routines
     fft_scatt_xy :      0.00s CPU      0.00s WALL (    1725 calls)
     fft_scatt_yz :      0.03s CPU      0.03s WALL (    1725 calls)

     PWSCF        :     2.54s CPU         2.73s WALL


   This run was terminated on:  22:25:28   7Apr2024            

=------------------------------------------------------------------------------=
   JOB DONE.
=------------------------------------------------------------------------------=
