
     Program PWSCF v.6.3MaX starts on  7Apr2024 at 22:32:37 

     This program is part of the open-source Quantum ESPRESSO suite
     for quantum simulation of materials; please cite
         "P. Giannozzi et al., J. Phys.:Condens. Matter 21 395502 (2009);
         "P. Giannozzi et al., J. Phys.:Condens. Matter 29 465901 (2017);
          URL http://www.quantum-espresso.org", 
     in publications or presentations arising from this work. More details at
     http://www.quantum-espresso.org/quote

     Parallel version (MPI), running on     5 processors

     MPI processes distributed on     1 nodes
     R & G space division:  proc/nbgrp/npool/nimage =       5
     Waiting for input...
     Reading input from standard input

     Current dimensions of program PWSCF are:
     Max number of different atomic species (ntypx) = 10
     Max number of k-points (npk) =  40000
     Max angular momentum in pseudopotentials (lmaxx) =  3
               file Fr.pbe-spdn-kjpaw_psl.1.0.0.UPF: wavefunction(s)  6P renormalized

     Subspace diagonalization in iterative solution of the eigenvalue problem:
     a serial algorithm will be used


     Parallelization info
     --------------------
     sticks:   dense  smooth     PW     G-vecs:    dense   smooth      PW
     Min          50      50     17                  544      544     107
     Max          51      51     17                  548      548     108
     Sum         253     253     85                 2733     2733     537



     bravais-lattice index     =            2
     lattice parameter (alat)  =       6.8300  a.u.
     unit-cell volume          =      79.6530 (a.u.)^3
     number of atoms/cell      =            1
     number of atomic types    =            1
     number of electrons       =        19.00
     number of Kohn-Sham states=           14
     kinetic-energy cutoff     =      40.0000  Ry
     charge density cutoff     =     160.0000  Ry
     convergence threshold     =      1.0E-08
     mixing beta               =       0.7000
     number of iterations used =            8  plain     mixing
     Exchange-correlation      = SLA PW PBX PBC ( 1  4  3  4 0 0)

     celldm(1)=   6.830000  celldm(2)=   0.000000  celldm(3)=   0.000000
     celldm(4)=   0.000000  celldm(5)=   0.000000  celldm(6)=   0.000000

     crystal axes: (cart. coord. in units of alat)
               a(1) = (  -0.500000   0.000000   0.500000 )  
               a(2) = (   0.000000   0.500000   0.500000 )  
               a(3) = (  -0.500000   0.500000   0.000000 )  

     reciprocal axes: (cart. coord. in units 2 pi/alat)
               b(1) = ( -1.000000 -1.000000  1.000000 )  
               b(2) = (  1.000000  1.000000  1.000000 )  
               b(3) = ( -1.000000  1.000000 -1.000000 )  


     PseudoPot. # 1 for Fr read from file:
     /home/lorenzo/pseudos/Fr/Fr.pbe-spdn-kjpaw_psl.1.0.0.UPF
     MD5 check sum: 362a188b966a64328b94f1ef5f32e8c4
     Pseudo is Projector augmented-wave + core cor, Zval = 19.0
     Generated using "atomic" code by A. Dal Corso v.6.2.2
     Shape of augmentation charge: PSQ
     Using radial grid of 1287 points,  6 beta functions with: 
                l(1) =   0
                l(2) =   0
                l(3) =   1
                l(4) =   1
                l(5) =   2
                l(6) =   2
     Q(r) pseudized with 0 coefficients 


     atomic species   valence    mass     pseudopotential
        Fr            19.00   223.00000     Fr( 1.00)

     48 Sym. Ops., with inversion, found



   Cartesian axes

     site n.     atom                  positions (alat units)
         1           Fr  tau(   1) = (   0.0000000   0.0000000   0.0000000  )

     number of k points=    20  gaussian smearing, width (Ry)=  0.0100
                       cart. coord. in units 2pi/alat
        k(    1) = (   0.0000000   0.0000000   0.0000000), wk =   0.0058309
        k(    2) = (  -0.1428571   0.1428571  -0.1428571), wk =   0.0466472
        k(    3) = (  -0.2857143   0.2857143  -0.2857143), wk =   0.0466472
        k(    4) = (  -0.4285714   0.4285714  -0.4285714), wk =   0.0466472
        k(    5) = (   0.0000000   0.2857143   0.0000000), wk =   0.0349854
        k(    6) = (  -0.1428571   0.4285714  -0.1428571), wk =   0.1399417
        k(    7) = (  -0.2857143   0.5714286  -0.2857143), wk =   0.1399417
        k(    8) = (   0.5714286  -0.2857143   0.5714286), wk =   0.1399417
        k(    9) = (   0.4285714  -0.1428571   0.4285714), wk =   0.1399417
        k(   10) = (   0.2857143  -0.0000000   0.2857143), wk =   0.0699708
        k(   11) = (   0.0000000   0.5714286   0.0000000), wk =   0.0349854
        k(   12) = (  -0.1428571   0.7142857  -0.1428571), wk =   0.1399417
        k(   13) = (   0.7142857  -0.1428571   0.7142857), wk =   0.1399417
        k(   14) = (   0.5714286   0.0000000   0.5714286), wk =   0.0699708
        k(   15) = (   0.0000000   0.8571429   0.0000000), wk =   0.0349854
        k(   16) = (   0.8571429  -0.0000000   0.8571429), wk =   0.0699708
        k(   17) = (  -0.2857143   0.5714286   0.0000000), wk =   0.1399417
        k(   18) = (   0.5714286  -0.2857143   0.8571429), wk =   0.2798834
        k(   19) = (   0.7142857  -0.1428571   1.0000000), wk =   0.1399417
        k(   20) = (   0.5714286   0.0000000   0.8571429), wk =   0.1399417

     Dense  grid:     2733 G-vectors     FFT dimensions: (  20,  20,  20)

     Estimated max dynamical RAM per process >       3.44 MB

     Estimated total dynamical RAM >      17.18 MB

     Check: negative/imaginary core charge=   -0.000005    0.000000

     Initial potential from superposition of free atoms

     starting charge   18.97009, renormalised to   19.00000
     Starting wfcs are   10 randomized atomic wfcs +    4 random wfcs
     Checking if some PAW data can be deallocated... 

     total cpu time spent up to now is        1.3 secs

     Self-consistent Calculation

     iteration #  1     ecut=    40.00 Ry     beta= 0.70
     Davidson diagonalization with overlap
     ethr =  1.00E-02,  avg # of iterations =  4.5

     Threshold (ethr) on eigenvalues was too large:
     Diagonalizing with lowered threshold

     Davidson diagonalization with overlap
     ethr =  1.57E-04,  avg # of iterations =  1.4

     total cpu time spent up to now is        1.7 secs

     total energy              =   -1069.77433338 Ry
     Harris-Foulkes estimate   =   -1069.79525549 Ry
     estimated scf accuracy    <       0.02993787 Ry

     iteration #  2     ecut=    40.00 Ry     beta= 0.70
     Davidson diagonalization with overlap
     ethr =  1.58E-04,  avg # of iterations =  2.0

     total cpu time spent up to now is        2.0 secs

     total energy              =   -1069.78176441 Ry
     Harris-Foulkes estimate   =   -1069.78224839 Ry
     estimated scf accuracy    <       0.00122923 Ry

     iteration #  3     ecut=    40.00 Ry     beta= 0.70
     Davidson diagonalization with overlap
     ethr =  6.47E-06,  avg # of iterations =  3.0

     total cpu time spent up to now is        2.3 secs

     total energy              =   -1069.78198295 Ry
     Harris-Foulkes estimate   =   -1069.78195398 Ry
     estimated scf accuracy    <       0.00002665 Ry

     iteration #  4     ecut=    40.00 Ry     beta= 0.70
     Davidson diagonalization with overlap
     ethr =  1.40E-07,  avg # of iterations =  2.0

     total cpu time spent up to now is        2.5 secs

     total energy              =   -1069.78198763 Ry
     Harris-Foulkes estimate   =   -1069.78198685 Ry
     estimated scf accuracy    <       0.00000029 Ry

     iteration #  5     ecut=    40.00 Ry     beta= 0.70
     Davidson diagonalization with overlap
     ethr =  1.53E-09,  avg # of iterations =  2.1

     total cpu time spent up to now is        2.8 secs

     End of self-consistent calculation

          k = 0.0000 0.0000 0.0000 (   331 PWs)   bands (ev):

    -9.4388  -9.4388  -9.4388  -9.1087  -9.1087   9.4470  47.2198  47.2198
    47.2198  48.3420  54.2683  54.2683  54.2683  57.7844

          k =-0.1429 0.1429-0.1429 (   335 PWs)   bands (ev):

    -9.4498  -9.4000  -9.4000  -9.0760  -9.0760  10.2648  40.4294  46.1478
    46.1478  48.2626  55.5201  56.0716  56.0716  56.5569

          k =-0.2857 0.2857-0.2857 (   344 PWs)   bands (ev):

    -9.4105  -9.3721  -9.3721  -9.0124  -9.0124  12.7111  31.7796  44.3487
    44.3487  48.3022  52.8999  53.6848  53.6848  60.0854

          k =-0.4286 0.4286-0.4286 (   338 PWs)   bands (ev):

    -9.4276  -9.3717  -9.3717  -8.7878  -8.7878  16.4048  24.8013  43.1416
    43.1416  48.1382  51.5547  52.2873  52.2873  64.5111

          k = 0.0000 0.2857 0.0000 (   335 PWs)   bands (ev):

    -9.5317  -9.3022  -9.3022  -9.1644  -9.0383  10.5369  43.1970  43.1970
    43.5830  46.5073  50.9386  57.8364  58.6000  58.6000

          k =-0.1429 0.4286-0.1429 (   336 PWs)   bands (ev):

    -9.4978  -9.2498  -9.2139  -9.1336  -8.9485  12.4434  34.9887  41.1162
    42.2706  46.8486  50.3362  57.4729  58.3865  58.7803

          k =-0.2857 0.5714-0.2857 (   339 PWs)   bands (ev):

    -9.4659  -9.2915  -9.2410  -8.9833  -8.7939  15.8162  27.4532  39.5189
    40.4752  45.9286  55.3430  55.8945  56.5046  57.9469

          k = 0.5714-0.2857 0.5714 (   342 PWs)   bands (ev):

    -9.4384  -9.3025  -9.2693  -8.8934  -8.8198  17.9655  24.2607  37.6142
    41.5383  46.3863  54.0316  54.3347  58.4584  63.0470

          k = 0.4286-0.1429 0.4286 (   345 PWs)   bands (ev):

    -9.3810  -9.3512  -9.2908  -9.0719  -8.9053  14.5579  29.8112  37.2224
    44.2239  48.1745  52.6864  53.7480  58.6101  59.8377

          k = 0.2857-0.0000 0.2857 (   333 PWs)   bands (ev):

    -9.3877  -9.3182  -9.2656  -9.1260  -8.9880  11.6279  37.2657  38.9675
    47.3037  50.5427  51.4280  53.9387  55.0160  57.2162

          k = 0.0000 0.5714 0.0000 (   343 PWs)   bands (ev):

    -9.6629  -9.3399  -9.0433  -9.0433  -8.9280  13.8033  35.8687  38.5001
    38.5001  44.4880  45.0058  63.3737  63.3737  65.0126

          k =-0.1429 0.7143-0.1429 (   333 PWs)   bands (ev):

    -9.5935  -9.3072  -8.9736  -8.9356  -8.7443  16.6842  30.3456  34.7497
    37.4677  44.1017  48.3312  61.2216  62.2716  65.9851

          k = 0.7143-0.1429 0.7143 (   348 PWs)   bands (ev):

    -9.5397  -9.2421  -9.0582  -9.0520  -8.8205  19.7257  26.2481  31.3192
    38.2913  44.4216  55.1678  59.1020  59.8906  65.5193

          k = 0.5714 0.0000 0.5714 (   339 PWs)   bands (ev):

    -9.4256  -9.1621  -9.0410  -9.0086  -8.9793  17.6902  29.0608  30.4496
    40.8616  45.8312  57.2082  57.6835  59.7737  60.3770

          k = 0.0000 0.8571 0.0000 (   335 PWs)   bands (ev):

    -9.7114  -9.4263  -8.7943  -8.7641  -8.7641  19.0030  27.4006  35.8767
    35.8767  43.0883  43.5447  64.4900  69.2356  69.2356

          k = 0.8571-0.0000 0.8571 (   347 PWs)   bands (ev):

    -9.6575  -9.4544  -8.8685  -8.8445  -8.8129  21.1053  25.5670  32.0905
    36.1719  43.4006  47.6070  62.7733  66.6208  68.3107

          k =-0.2857 0.5714 0.0000 (   332 PWs)   bands (ev):

    -9.4429  -9.2582  -9.1174  -9.0090  -8.8520  14.8432  32.4122  34.7346
    40.0262  49.1496  49.4636  55.3288  60.6779  63.7466

          k = 0.5714-0.2857 0.8571 (   337 PWs)   bands (ev):

    -9.3550  -9.2846  -9.0892  -8.9805  -8.8224  18.3081  26.8840  33.4550
    37.3660  48.7106  52.6689  56.5871  61.8852  62.6441

          k = 0.7143-0.1429 1.0000 (   347 PWs)   bands (ev):

    -9.5752  -9.3894  -9.0342  -8.8830  -8.8076  19.6610  27.7949  32.3625
    33.9157  48.0667  48.1123  58.5651  64.3838  68.7774

          k = 0.5714 0.0000 0.8571 (   345 PWs)   bands (ev):

    -9.4038  -9.2337  -9.1589  -8.9847  -8.8134  20.8174  28.0436  28.7693
    34.4056  48.9073  55.3144  55.8927  58.3044  66.2631

     the Fermi energy is    47.3824 ev

!    total energy              =   -1069.78198769 Ry
     Harris-Foulkes estimate   =   -1069.78198769 Ry
     estimated scf accuracy    <          5.0E-09 Ry

     total all-electron energy =    -48515.392299 Ry

     The total energy is the sum of the following terms:

     one-electron contribution =       1.76840565 Ry
     hartree contribution      =      27.92010431 Ry
     xc contribution           =     -64.48959217 Ry
     ewald contribution        =    -242.33311992 Ry
     one-center paw contrib.   =    -792.64761951 Ry
     smearing contrib. (-TS)   =      -0.00016605 Ry

     convergence has been achieved in   5 iterations

     Forces acting on atoms (cartesian axes, Ry/au):

     atom    1 type  1   force =     0.00000000    0.00000000    0.00000000

     Total force =     0.000000     Total SCF correction =     0.000000


     Computing stress (Cartesian axis) and pressure

          total   stress  (Ry/bohr**3)                   (kbar)     P= 4845.28
   0.03293753  -0.00000000  -0.00000000       4845.28     -0.00     -0.00
  -0.00000000   0.03293753   0.00000000         -0.00   4845.28      0.00
  -0.00000000   0.00000000   0.03293753         -0.00      0.00   4845.28


     Writing output data file Fr.save/

     init_run     :      0.31s CPU      0.33s WALL (       1 calls)
     electrons    :      1.37s CPU      1.50s WALL (       1 calls)
     forces       :      0.02s CPU      0.02s WALL (       1 calls)
     stress       :      0.06s CPU      0.06s WALL (       1 calls)

     Called by init_run:
     wfcinit      :      0.04s CPU      0.05s WALL (       1 calls)
     potinit      :      0.11s CPU      0.12s WALL (       1 calls)
     hinit0       :      0.14s CPU      0.14s WALL (       1 calls)

     Called by electrons:
     c_bands      :      0.73s CPU      0.79s WALL (       6 calls)
     sum_band     :      0.11s CPU      0.12s WALL (       6 calls)
     v_of_rho     :      0.01s CPU      0.01s WALL (       6 calls)
     newd         :      0.02s CPU      0.02s WALL (       6 calls)
     PAW_pot      :      0.60s CPU      0.68s WALL (       6 calls)
     mix_rho      :      0.00s CPU      0.00s WALL (       6 calls)

     Called by c_bands:
     init_us_2    :      0.02s CPU      0.02s WALL (     300 calls)
     cegterg      :      0.71s CPU      0.76s WALL (     120 calls)

     Called by sum_band:
     sum_band:bec :      0.00s CPU      0.00s WALL (     120 calls)
     addusdens    :      0.02s CPU      0.02s WALL (       6 calls)

     Called by *egterg:
     h_psi        :      0.44s CPU      0.49s WALL (     444 calls)
     s_psi        :      0.01s CPU      0.02s WALL (     444 calls)
     g_psi        :      0.00s CPU      0.00s WALL (     304 calls)
     cdiaghg      :      0.18s CPU      0.19s WALL (     404 calls)

     Called by h_psi:
     h_psi:pot    :      0.44s CPU      0.48s WALL (     444 calls)
     h_psi:calbec :      0.02s CPU      0.02s WALL (     444 calls)
     vloc_psi     :      0.40s CPU      0.44s WALL (     444 calls)
     add_vuspsi   :      0.01s CPU      0.02s WALL (     444 calls)

     General routines
     calbec       :      0.04s CPU      0.04s WALL (     664 calls)
     fft          :      0.01s CPU      0.01s WALL (      93 calls)
     ffts         :      0.00s CPU      0.00s WALL (       6 calls)
     fftw         :      0.44s CPU      0.48s WALL (   10822 calls)

     Parallel routines
     fft_scatt_xy :      0.04s CPU      0.04s WALL (   10921 calls)
     fft_scatt_yz :      0.14s CPU      0.16s WALL (   10921 calls)

     PWSCF        :     2.69s CPU         2.91s WALL


   This run was terminated on:  22:32:39   7Apr2024            

=------------------------------------------------------------------------------=
   JOB DONE.
=------------------------------------------------------------------------------=
