
     Program PWSCF v.6.3MaX starts on  7Apr2024 at 23: 1: 2 

     This program is part of the open-source Quantum ESPRESSO suite
     for quantum simulation of materials; please cite
         "P. Giannozzi et al., J. Phys.:Condens. Matter 21 395502 (2009);
         "P. Giannozzi et al., J. Phys.:Condens. Matter 29 465901 (2017);
          URL http://www.quantum-espresso.org", 
     in publications or presentations arising from this work. More details at
     http://www.quantum-espresso.org/quote

     Parallel version (MPI), running on     5 processors

     MPI processes distributed on     1 nodes
     R & G space division:  proc/nbgrp/npool/nimage =       5
     Waiting for input...
     Reading input from standard input

     Current dimensions of program PWSCF are:
     Max number of different atomic species (ntypx) = 10
     Max number of k-points (npk) =  40000
     Max angular momentum in pseudopotentials (lmaxx) =  3
               file Fr.pbe-spdn-kjpaw_psl.1.0.0.UPF: wavefunction(s)  6P renormalized

     Subspace diagonalization in iterative solution of the eigenvalue problem:
     a serial algorithm will be used


     Parallelization info
     --------------------
     sticks:   dense  smooth     PW     G-vecs:    dense   smooth      PW
     Min         116     116     37                 1850     1850     327
     Max         117     117     38                 1853     1853     329
     Sum         583     583    187                 9257     9257    1639



     bravais-lattice index     =            2
     lattice parameter (alat)  =       6.8300  a.u.
     unit-cell volume          =      79.6530 (a.u.)^3
     number of atoms/cell      =            1
     number of atomic types    =            1
     number of electrons       =        19.00
     number of Kohn-Sham states=           14
     kinetic-energy cutoff     =      90.0000  Ry
     charge density cutoff     =     360.0000  Ry
     convergence threshold     =      1.0E-08
     mixing beta               =       0.7000
     number of iterations used =            8  plain     mixing
     Exchange-correlation      = SLA PW PBX PBC ( 1  4  3  4 0 0)

     celldm(1)=   6.830000  celldm(2)=   0.000000  celldm(3)=   0.000000
     celldm(4)=   0.000000  celldm(5)=   0.000000  celldm(6)=   0.000000

     crystal axes: (cart. coord. in units of alat)
               a(1) = (  -0.500000   0.000000   0.500000 )  
               a(2) = (   0.000000   0.500000   0.500000 )  
               a(3) = (  -0.500000   0.500000   0.000000 )  

     reciprocal axes: (cart. coord. in units 2 pi/alat)
               b(1) = ( -1.000000 -1.000000  1.000000 )  
               b(2) = (  1.000000  1.000000  1.000000 )  
               b(3) = ( -1.000000  1.000000 -1.000000 )  


     PseudoPot. # 1 for Fr read from file:
     /home/lorenzo/pseudos/Fr/Fr.pbe-spdn-kjpaw_psl.1.0.0.UPF
     MD5 check sum: 362a188b966a64328b94f1ef5f32e8c4
     Pseudo is Projector augmented-wave + core cor, Zval = 19.0
     Generated using "atomic" code by A. Dal Corso v.6.2.2
     Shape of augmentation charge: PSQ
     Using radial grid of 1287 points,  6 beta functions with: 
                l(1) =   0
                l(2) =   0
                l(3) =   1
                l(4) =   1
                l(5) =   2
                l(6) =   2
     Q(r) pseudized with 0 coefficients 


     atomic species   valence    mass     pseudopotential
        Fr            19.00   223.00000     Fr( 1.00)

     48 Sym. Ops., with inversion, found



   Cartesian axes

     site n.     atom                  positions (alat units)
         1           Fr  tau(   1) = (   0.0000000   0.0000000   0.0000000  )

     number of k points=    10  gaussian smearing, width (Ry)=  0.0100
                       cart. coord. in units 2pi/alat
        k(    1) = (   0.0000000   0.0000000   0.0000000), wk =   0.0160000
        k(    2) = (  -0.2000000   0.2000000  -0.2000000), wk =   0.1280000
        k(    3) = (  -0.4000000   0.4000000  -0.4000000), wk =   0.1280000
        k(    4) = (   0.0000000   0.4000000   0.0000000), wk =   0.0960000
        k(    5) = (  -0.2000000   0.6000000  -0.2000000), wk =   0.3840000
        k(    6) = (   0.6000000  -0.2000000   0.6000000), wk =   0.3840000
        k(    7) = (   0.4000000   0.0000000   0.4000000), wk =   0.1920000
        k(    8) = (   0.0000000   0.8000000   0.0000000), wk =   0.0960000
        k(    9) = (   0.8000000   0.0000000   0.8000000), wk =   0.1920000
        k(   10) = (   0.6000000  -0.2000000   1.0000000), wk =   0.3840000

     Dense  grid:     9257 G-vectors     FFT dimensions: (  30,  30,  30)

     Estimated max dynamical RAM per process >       9.07 MB

     Estimated total dynamical RAM >      45.37 MB

     Initial potential from superposition of free atoms

     starting charge   18.97009, renormalised to   19.00000
     Starting wfcs are   10 randomized atomic wfcs +    4 random wfcs
     Checking if some PAW data can be deallocated... 

     total cpu time spent up to now is        1.3 secs

     Self-consistent Calculation

     iteration #  1     ecut=    90.00 Ry     beta= 0.70
     Davidson diagonalization with overlap
     ethr =  1.00E-02,  avg # of iterations =  4.7

     Threshold (ethr) on eigenvalues was too large:
     Diagonalizing with lowered threshold

     Davidson diagonalization with overlap
     ethr =  1.16E-04,  avg # of iterations =  1.8

     total cpu time spent up to now is        1.8 secs

     total energy              =   -1069.98600572 Ry
     Harris-Foulkes estimate   =   -1069.99964990 Ry
     estimated scf accuracy    <       0.02160297 Ry

     iteration #  2     ecut=    90.00 Ry     beta= 0.70
     Davidson diagonalization with overlap
     ethr =  1.14E-04,  avg # of iterations =  2.0

     total cpu time spent up to now is        2.1 secs

     total energy              =   -1069.99026455 Ry
     Harris-Foulkes estimate   =   -1069.99081138 Ry
     estimated scf accuracy    <       0.00116876 Ry

     iteration #  3     ecut=    90.00 Ry     beta= 0.70
     Davidson diagonalization with overlap
     ethr =  6.15E-06,  avg # of iterations =  2.3

     total cpu time spent up to now is        2.5 secs

     total energy              =   -1069.99043974 Ry
     Harris-Foulkes estimate   =   -1069.99043314 Ry
     estimated scf accuracy    <       0.00002545 Ry

     iteration #  4     ecut=    90.00 Ry     beta= 0.70
     Davidson diagonalization with overlap
     ethr =  1.34E-07,  avg # of iterations =  2.0

     total cpu time spent up to now is        2.8 secs

     total energy              =   -1069.99044691 Ry
     Harris-Foulkes estimate   =   -1069.99044589 Ry
     estimated scf accuracy    <       0.00000067 Ry

     iteration #  5     ecut=    90.00 Ry     beta= 0.70
     Davidson diagonalization with overlap
     ethr =  3.51E-09,  avg # of iterations =  2.1

     total cpu time spent up to now is        3.1 secs

     total energy              =   -1069.99044703 Ry
     Harris-Foulkes estimate   =   -1069.99044703 Ry
     estimated scf accuracy    <       0.00000010 Ry

     iteration #  6     ecut=    90.00 Ry     beta= 0.70
     Davidson diagonalization with overlap
     ethr =  5.45E-10,  avg # of iterations =  1.9

     total cpu time spent up to now is        3.4 secs

     End of self-consistent calculation

          k = 0.0000 0.0000 0.0000 (  1139 PWs)   bands (ev):

    -9.2052  -9.2052  -9.2052  -8.8656  -8.8656   9.4776  47.2672  47.2672
    47.2672  48.3268  53.8843  53.8843  53.8843  57.7798

          k =-0.2000 0.2000-0.2000 (  1167 PWs)   bands (ev):

    -9.1943  -9.1222  -9.1222  -8.8327  -8.8327  11.0838  36.8532  45.4304
    45.4304  48.2325  54.3849  55.0599  55.0599  57.2700

          k =-0.4000 0.4000-0.4000 (  1149 PWs)   bands (ev):

    -9.1909  -9.1420  -9.1420  -8.6181  -8.6181  15.6896  25.9629  43.3409
    43.3409  48.1118  51.5757  52.1339  52.1339  63.6377

          k = 0.0000 0.4000 0.0000 (  1146 PWs)   bands (ev):

    -9.3194  -8.9888  -8.9728  -8.9728  -8.7682  11.6182  40.9455  41.1265
    41.1265  45.4222  47.7247  60.2462  60.4358  60.4358

          k =-0.2000 0.6000-0.2000 (  1156 PWs)   bands (ev):

    -9.3045  -9.0704  -8.9222  -8.7920  -8.5928  15.2872  30.2063  37.8191
    39.1772  44.9165  51.6342  58.2419  58.6494  60.6053

          k = 0.6000-0.2000 0.6000 (  1141 PWs)   bands (ev):

    -9.2176  -9.0298  -8.9646  -8.7176  -8.6295  18.4559  25.1778  34.5813
    40.6307  45.5749  55.7087  55.7107  60.8497  62.4987

          k = 0.4000 0.0000 0.4000 (  1151 PWs)   bands (ev):

    -9.1456  -9.1177  -8.9543  -8.9138  -8.6843  13.7298  33.2412  35.1681
    45.0644  48.6469  52.7442  54.9859  55.4880  58.0307

          k = 0.0000 0.8000 0.0000 (  1154 PWs)   bands (ev):

    -9.5022  -9.2184  -8.6089  -8.5789  -8.5789  17.9051  28.9956  36.2188
    36.2188  43.0950  43.3675  64.4790  67.9555  67.9555

          k = 0.8000 0.0000 0.8000 (  1144 PWs)   bands (ev):

    -9.3929  -9.1391  -8.6661  -8.6499  -8.5715  21.1231  26.1900  30.3332
    36.7886  43.4624  50.2861  61.5729  64.5247  66.5198

          k = 0.6000-0.2000 1.0000 (  1139 PWs)   bands (ev):

    -9.1818  -9.1169  -8.9019  -8.6932  -8.5845  19.3805  28.5504  30.7628
    34.6127  50.7500  51.0701  54.7224  61.8998  65.9538

     the Fermi energy is    45.5821 ev

!    total energy              =   -1069.99044704 Ry
     Harris-Foulkes estimate   =   -1069.99044704 Ry
     estimated scf accuracy    <          1.4E-10 Ry

     total all-electron energy =    -48515.600758 Ry

     The total energy is the sum of the following terms:

     one-electron contribution =       1.44499549 Ry
     hartree contribution      =      28.21441690 Ry
     xc contribution           =     -64.59719748 Ry
     ewald contribution        =    -242.33311988 Ry
     one-center paw contrib.   =    -792.71818545 Ry
     smearing contrib. (-TS)   =      -0.00135662 Ry

     convergence has been achieved in   6 iterations

     Forces acting on atoms (cartesian axes, Ry/au):

     atom    1 type  1   force =     0.00000000    0.00000000    0.00000000

     Total force =     0.000000     Total SCF correction =     0.000000


     Computing stress (Cartesian axis) and pressure

          total   stress  (Ry/bohr**3)                   (kbar)     P= 7265.48
   0.04938975  -0.00000000   0.00000000       7265.48     -0.00      0.00
  -0.00000000   0.04938975   0.00000000         -0.00   7265.48      0.00
  -0.00000000   0.00000000   0.04938975         -0.00      0.00   7265.48


     Writing output data file Fr.save/

     init_run     :      0.39s CPU      0.41s WALL (       1 calls)
     electrons    :      1.93s CPU      2.07s WALL (       1 calls)
     forces       :      0.04s CPU      0.04s WALL (       1 calls)
     stress       :      0.13s CPU      0.13s WALL (       1 calls)

     Called by init_run:
     wfcinit      :      0.05s CPU      0.05s WALL (       1 calls)
     potinit      :      0.11s CPU      0.12s WALL (       1 calls)
     hinit0       :      0.20s CPU      0.20s WALL (       1 calls)

     Called by electrons:
     c_bands      :      0.97s CPU      1.01s WALL (       7 calls)
     sum_band     :      0.25s CPU      0.26s WALL (       7 calls)
     v_of_rho     :      0.03s CPU      0.04s WALL (       7 calls)
     newd         :      0.06s CPU      0.07s WALL (       7 calls)
     PAW_pot      :      0.72s CPU      0.81s WALL (       7 calls)
     mix_rho      :      0.00s CPU      0.00s WALL (       7 calls)

     Called by c_bands:
     init_us_2    :      0.03s CPU      0.03s WALL (     170 calls)
     cegterg      :      0.93s CPU      0.96s WALL (      70 calls)

     Called by sum_band:
     sum_band:bec :      0.00s CPU      0.00s WALL (      70 calls)
     addusdens    :      0.06s CPU      0.06s WALL (       7 calls)

     Called by *egterg:
     h_psi        :      0.70s CPU      0.73s WALL (     248 calls)
     s_psi        :      0.02s CPU      0.02s WALL (     248 calls)
     g_psi        :      0.00s CPU      0.00s WALL (     168 calls)
     cdiaghg      :      0.10s CPU      0.10s WALL (     228 calls)

     Called by h_psi:
     h_psi:pot    :      0.70s CPU      0.72s WALL (     248 calls)
     h_psi:calbec :      0.03s CPU      0.04s WALL (     248 calls)
     vloc_psi     :      0.64s CPU      0.66s WALL (     248 calls)
     add_vuspsi   :      0.02s CPU      0.02s WALL (     248 calls)

     General routines
     calbec       :      0.07s CPU      0.07s WALL (     368 calls)
     fft          :      0.03s CPU      0.03s WALL (     104 calls)
     ffts         :      0.00s CPU      0.00s WALL (       7 calls)
     fftw         :      0.73s CPU      0.76s WALL (    5994 calls)

     Parallel routines
     fft_scatt_xy :      0.06s CPU      0.06s WALL (    6105 calls)
     fft_scatt_yz :      0.22s CPU      0.22s WALL (    6105 calls)

     PWSCF        :     3.41s CPU         3.62s WALL


   This run was terminated on:  23: 1: 6   7Apr2024            

=------------------------------------------------------------------------------=
   JOB DONE.
=------------------------------------------------------------------------------=
