
     Program PWSCF v.6.3MaX starts on  7Apr2024 at 22:47:54 

     This program is part of the open-source Quantum ESPRESSO suite
     for quantum simulation of materials; please cite
         "P. Giannozzi et al., J. Phys.:Condens. Matter 21 395502 (2009);
         "P. Giannozzi et al., J. Phys.:Condens. Matter 29 465901 (2017);
          URL http://www.quantum-espresso.org", 
     in publications or presentations arising from this work. More details at
     http://www.quantum-espresso.org/quote

     Parallel version (MPI), running on     5 processors

     MPI processes distributed on     1 nodes
     R & G space division:  proc/nbgrp/npool/nimage =       5
     Waiting for input...
     Reading input from standard input

     Current dimensions of program PWSCF are:
     Max number of different atomic species (ntypx) = 10
     Max number of k-points (npk) =  40000
     Max angular momentum in pseudopotentials (lmaxx) =  3
               file Fr.pz-spdn-kjpaw_psl.1.0.0.UPF: wavefunction(s)  6P renormalized

     Subspace diagonalization in iterative solution of the eigenvalue problem:
     a serial algorithm will be used


     Parallelization info
     --------------------
     sticks:   dense  smooth     PW     G-vecs:    dense   smooth      PW
     Min          87      87     30                 1245     1245     227
     Max          88      88     31                 1247     1247     228
     Sum         439     439    151                 6231     6231    1139



     bravais-lattice index     =            2
     lattice parameter (alat)  =       6.8300  a.u.
     unit-cell volume          =      79.6530 (a.u.)^3
     number of atoms/cell      =            1
     number of atomic types    =            1
     number of electrons       =        19.00
     number of Kohn-Sham states=           14
     kinetic-energy cutoff     =      70.0000  Ry
     charge density cutoff     =     280.0000  Ry
     convergence threshold     =      1.0E-08
     mixing beta               =       0.7000
     number of iterations used =            8  plain     mixing
     Exchange-correlation      = SLA PZ NOGX NOGC ( 1  1  0  0 0 0)

     celldm(1)=   6.830000  celldm(2)=   0.000000  celldm(3)=   0.000000
     celldm(4)=   0.000000  celldm(5)=   0.000000  celldm(6)=   0.000000

     crystal axes: (cart. coord. in units of alat)
               a(1) = (  -0.500000   0.000000   0.500000 )  
               a(2) = (   0.000000   0.500000   0.500000 )  
               a(3) = (  -0.500000   0.500000   0.000000 )  

     reciprocal axes: (cart. coord. in units 2 pi/alat)
               b(1) = ( -1.000000 -1.000000  1.000000 )  
               b(2) = (  1.000000  1.000000  1.000000 )  
               b(3) = ( -1.000000  1.000000 -1.000000 )  


     PseudoPot. # 1 for Fr read from file:
     /home/lorenzo/pseudos/Fr/Fr.pz-spdn-kjpaw_psl.1.0.0.UPF
     MD5 check sum: 60dafd115682613df3cc92ec23a62a32
     Pseudo is Projector augmented-wave + core cor, Zval = 19.0
     Generated using "atomic" code by A. Dal Corso v.6.2.2
     Shape of augmentation charge: PSQ
     Using radial grid of 1287 points,  6 beta functions with: 
                l(1) =   0
                l(2) =   0
                l(3) =   1
                l(4) =   1
                l(5) =   2
                l(6) =   2
     Q(r) pseudized with 0 coefficients 


     atomic species   valence    mass     pseudopotential
        Fr            19.00   223.00000     Fr( 1.00)

     48 Sym. Ops., with inversion, found



   Cartesian axes

     site n.     atom                  positions (alat units)
         1           Fr  tau(   1) = (   0.0000000   0.0000000   0.0000000  )

     number of k points=    10  gaussian smearing, width (Ry)=  0.0100
                       cart. coord. in units 2pi/alat
        k(    1) = (   0.0000000   0.0000000   0.0000000), wk =   0.0160000
        k(    2) = (  -0.2000000   0.2000000  -0.2000000), wk =   0.1280000
        k(    3) = (  -0.4000000   0.4000000  -0.4000000), wk =   0.1280000
        k(    4) = (   0.0000000   0.4000000   0.0000000), wk =   0.0960000
        k(    5) = (  -0.2000000   0.6000000  -0.2000000), wk =   0.3840000
        k(    6) = (   0.6000000  -0.2000000   0.6000000), wk =   0.3840000
        k(    7) = (   0.4000000   0.0000000   0.4000000), wk =   0.1920000
        k(    8) = (   0.0000000   0.8000000   0.0000000), wk =   0.0960000
        k(    9) = (   0.8000000   0.0000000   0.8000000), wk =   0.1920000
        k(   10) = (   0.6000000  -0.2000000   1.0000000), wk =   0.3840000

     Dense  grid:     6231 G-vectors     FFT dimensions: (  25,  25,  25)

     Estimated max dynamical RAM per process >       6.42 MB

     Estimated total dynamical RAM >      32.11 MB

     Check: negative/imaginary core charge=   -0.000002    0.000000

     Initial potential from superposition of free atoms

     starting charge   18.97647, renormalised to   19.00000
     Starting wfcs are   10 randomized atomic wfcs +    4 random wfcs
     Checking if some PAW data can be deallocated... 

     total cpu time spent up to now is        1.2 secs

     Self-consistent Calculation

     iteration #  1     ecut=    70.00 Ry     beta= 0.70
     Davidson diagonalization with overlap
     ethr =  1.00E-02,  avg # of iterations =  5.0

     Threshold (ethr) on eigenvalues was too large:
     Diagonalizing with lowered threshold

     Davidson diagonalization with overlap
     ethr =  9.08E-05,  avg # of iterations =  1.8

     total cpu time spent up to now is        1.6 secs

     total energy              =   -1045.28536417 Ry
     Harris-Foulkes estimate   =   -1045.29735932 Ry
     estimated scf accuracy    <       0.01690748 Ry

     iteration #  2     ecut=    70.00 Ry     beta= 0.70
     Davidson diagonalization with overlap
     ethr =  8.90E-05,  avg # of iterations =  2.0

     total cpu time spent up to now is        1.8 secs

     total energy              =   -1045.28888484 Ry
     Harris-Foulkes estimate   =   -1045.28923700 Ry
     estimated scf accuracy    <       0.00070922 Ry

     iteration #  3     ecut=    70.00 Ry     beta= 0.70
     Davidson diagonalization with overlap
     ethr =  3.73E-06,  avg # of iterations =  2.3

     total cpu time spent up to now is        2.0 secs

     total energy              =   -1045.28898532 Ry
     Harris-Foulkes estimate   =   -1045.28898401 Ry
     estimated scf accuracy    <       0.00001836 Ry

     iteration #  4     ecut=    70.00 Ry     beta= 0.70
     Davidson diagonalization with overlap
     ethr =  9.66E-08,  avg # of iterations =  2.0

     total cpu time spent up to now is        2.2 secs

     total energy              =   -1045.28899036 Ry
     Harris-Foulkes estimate   =   -1045.28898973 Ry
     estimated scf accuracy    <       0.00000029 Ry

     iteration #  5     ecut=    70.00 Ry     beta= 0.70
     Davidson diagonalization with overlap
     ethr =  1.55E-09,  avg # of iterations =  2.3

     total cpu time spent up to now is        2.4 secs

     total energy              =   -1045.28899045 Ry
     Harris-Foulkes estimate   =   -1045.28899044 Ry
     estimated scf accuracy    <       0.00000004 Ry

     iteration #  6     ecut=    70.00 Ry     beta= 0.70
     Davidson diagonalization with overlap
     ethr =  2.27E-10,  avg # of iterations =  2.0

     total cpu time spent up to now is        2.5 secs

     End of self-consistent calculation

          k = 0.0000 0.0000 0.0000 (   749 PWs)   bands (ev):

    -9.3994  -9.3994  -9.3994  -9.0540  -9.0540   9.1064  46.8759  46.8759
    46.8759  48.1069  53.6938  53.6938  53.6938  57.4930

          k =-0.2000 0.2000-0.2000 (   794 PWs)   bands (ev):

    -9.3922  -9.3180  -9.3180  -9.0249  -9.0249  10.7099  36.5272  45.0643
    45.0643  47.9982  54.1188  54.8206  54.8206  57.0269

          k =-0.4000 0.4000-0.4000 (   790 PWs)   bands (ev):

    -9.3876  -9.3378  -9.3378  -8.8093  -8.8093  15.2952  25.6592  42.9720
    42.9720  47.8893  51.3023  51.9375  51.9375  63.3297

          k = 0.0000 0.4000 0.0000 (   801 PWs)   bands (ev):

    -9.5186  -9.1824  -9.1684  -9.1684  -8.9597  11.2435  40.5278  40.7964
    40.7964  45.2328  47.5174  60.0186  60.1825  60.1825

          k =-0.2000 0.6000-0.2000 (   797 PWs)   bands (ev):

    -9.5032  -9.2660  -9.1170  -8.9852  -8.7829  14.8999  29.8775  37.4922
    38.8481  44.7149  51.3728  57.9955  58.3933  60.3300

          k = 0.6000-0.2000 0.6000 (   785 PWs)   bands (ev):

    -9.4145  -9.2253  -9.1584  -8.9083  -8.8203  18.0282  24.8985  34.2665
    40.2923  45.3602  55.4489  55.4799  60.5621  62.2183

          k = 0.4000 0.0000 0.4000 (   789 PWs)   bands (ev):

    -9.3425  -9.3134  -9.1493  -9.1066  -8.8747  13.3488  32.8879  34.8864
    44.6923  48.4165  52.4837  54.7300  55.2752  57.7556

          k = 0.0000 0.8000 0.0000 (   789 PWs)   bands (ev):

    -9.7037  -9.4140  -8.7985  -8.7696  -8.7696  17.5055  28.6434  35.8962
    35.8962  42.8664  43.1950  64.1911  67.6597  67.6597

          k = 0.8000 0.0000 0.8000 (   782 PWs)   bands (ev):

    -9.5922  -9.3328  -8.8558  -8.8412  -8.7629  20.6510  25.9102  30.0596
    36.4643  43.2562  50.0369  61.3084  64.2590  66.2003

          k = 0.6000-0.2000 1.0000 (   776 PWs)   bands (ev):

    -9.3781  -9.3109  -9.0949  -8.8832  -8.7752  18.9526  28.2225  30.4808
    34.3382  50.4582  50.8459  54.4790  61.6045  65.6822

     the Fermi energy is    45.3609 ev

!    total energy              =   -1045.28899045 Ry
     Harris-Foulkes estimate   =   -1045.28899045 Ry
     estimated scf accuracy    <          1.3E-10 Ry

     total all-electron energy =    -48490.741963 Ry

     The total energy is the sum of the following terms:

     one-electron contribution =       1.39612695 Ry
     hartree contribution      =      28.27770434 Ry
     xc contribution           =     -63.90973102 Ry
     ewald contribution        =    -242.33311988 Ry
     one-center paw contrib.   =    -768.71876982 Ry
     smearing contrib. (-TS)   =      -0.00120103 Ry

     convergence has been achieved in   6 iterations

     Forces acting on atoms (cartesian axes, Ry/au):

     atom    1 type  1   force =     0.00000000    0.00000000    0.00000000

     Total force =     0.000000     Total SCF correction =     0.000000


     Computing stress (Cartesian axis) and pressure

          total   stress  (Ry/bohr**3)                   (kbar)     P= 7023.94
   0.04774778  -0.00000000  -0.00000000       7023.94     -0.00     -0.00
  -0.00000000   0.04774778  -0.00000000         -0.00   7023.94     -0.00
  -0.00000000   0.00000000   0.04774778         -0.00      0.00   7023.94


     Writing output data file Fr.save/

     init_run     :      0.27s CPU      0.28s WALL (       1 calls)
     electrons    :      1.29s CPU      1.35s WALL (       1 calls)
     forces       :      0.02s CPU      0.02s WALL (       1 calls)
     stress       :      0.08s CPU      0.08s WALL (       1 calls)

     Called by init_run:
     wfcinit      :      0.04s CPU      0.04s WALL (       1 calls)
     potinit      :      0.05s CPU      0.05s WALL (       1 calls)
     hinit0       :      0.17s CPU      0.17s WALL (       1 calls)

     Called by electrons:
     c_bands      :      0.74s CPU      0.78s WALL (       7 calls)
     sum_band     :      0.22s CPU      0.23s WALL (       7 calls)
     v_of_rho     :      0.00s CPU      0.00s WALL (       7 calls)
     newd         :      0.05s CPU      0.05s WALL (       7 calls)
     PAW_pot      :      0.33s CPU      0.33s WALL (       7 calls)
     mix_rho      :      0.00s CPU      0.00s WALL (       7 calls)

     Called by c_bands:
     init_us_2    :      0.02s CPU      0.02s WALL (     170 calls)
     cegterg      :      0.71s CPU      0.76s WALL (      70 calls)

     Called by sum_band:
     sum_band:bec :      0.00s CPU      0.00s WALL (      70 calls)
     addusdens    :      0.05s CPU      0.05s WALL (       7 calls)

     Called by *egterg:
     h_psi        :      0.51s CPU      0.55s WALL (     254 calls)
     s_psi        :      0.02s CPU      0.02s WALL (     254 calls)
     g_psi        :      0.00s CPU      0.00s WALL (     174 calls)
     cdiaghg      :      0.10s CPU      0.11s WALL (     234 calls)

     Called by h_psi:
     h_psi:pot    :      0.51s CPU      0.54s WALL (     254 calls)
     h_psi:calbec :      0.02s CPU      0.03s WALL (     254 calls)
     vloc_psi     :      0.47s CPU      0.50s WALL (     254 calls)
     add_vuspsi   :      0.02s CPU      0.02s WALL (     254 calls)

     General routines
     calbec       :      0.05s CPU      0.05s WALL (     374 calls)
     fft          :      0.01s CPU      0.01s WALL (      38 calls)
     ffts         :      0.00s CPU      0.00s WALL (       7 calls)
     fftw         :      0.55s CPU      0.58s WALL (    6072 calls)

     Parallel routines
     fft_scatt_xy :      0.04s CPU      0.04s WALL (    6117 calls)
     fft_scatt_yz :      0.19s CPU      0.20s WALL (    6117 calls)

     PWSCF        :     2.60s CPU         2.71s WALL


   This run was terminated on:  22:47:57   7Apr2024            

=------------------------------------------------------------------------------=
   JOB DONE.
=------------------------------------------------------------------------------=
