
     Program PWSCF v.6.3MaX starts on  7Apr2024 at 22:58:16 

     This program is part of the open-source Quantum ESPRESSO suite
     for quantum simulation of materials; please cite
         "P. Giannozzi et al., J. Phys.:Condens. Matter 21 395502 (2009);
         "P. Giannozzi et al., J. Phys.:Condens. Matter 29 465901 (2017);
          URL http://www.quantum-espresso.org", 
     in publications or presentations arising from this work. More details at
     http://www.quantum-espresso.org/quote

     Parallel version (MPI), running on     5 processors

     MPI processes distributed on     1 nodes
     R & G space division:  proc/nbgrp/npool/nimage =       5
     Waiting for input...
     Reading input from standard input

     Current dimensions of program PWSCF are:
     Max number of different atomic species (ntypx) = 10
     Max number of k-points (npk) =  40000
     Max angular momentum in pseudopotentials (lmaxx) =  3

     Subspace diagonalization in iterative solution of the eigenvalue problem:
     a serial algorithm will be used


     Parallelization info
     --------------------
     sticks:   dense  smooth     PW     G-vecs:    dense   smooth      PW
     Min         109     109     32                 1678     1678     290
     Max         110     110     33                 1680     1680     293
     Sum         547     547    163                 8393     8393    1459



     bravais-lattice index     =            2
     lattice parameter (alat)  =       6.8300  a.u.
     unit-cell volume          =      79.6530 (a.u.)^3
     number of atoms/cell      =            1
     number of atomic types    =            1
     number of electrons       =        19.00
     number of Kohn-Sham states=           14
     kinetic-energy cutoff     =      85.0000  Ry
     charge density cutoff     =     340.0000  Ry
     convergence threshold     =      1.0E-08
     mixing beta               =       0.7000
     number of iterations used =            8  plain     mixing
     Exchange-correlation      = LDA ( 1  1  0  0 0 0)

     celldm(1)=   6.830000  celldm(2)=   0.000000  celldm(3)=   0.000000
     celldm(4)=   0.000000  celldm(5)=   0.000000  celldm(6)=   0.000000

     crystal axes: (cart. coord. in units of alat)
               a(1) = (  -0.500000   0.000000   0.500000 )  
               a(2) = (   0.000000   0.500000   0.500000 )  
               a(3) = (  -0.500000   0.500000   0.000000 )  

     reciprocal axes: (cart. coord. in units 2 pi/alat)
               b(1) = ( -1.000000 -1.000000  1.000000 )  
               b(2) = (  1.000000  1.000000  1.000000 )  
               b(3) = ( -1.000000  1.000000 -1.000000 )  


     PseudoPot. # 1 for Fr read from file:
     /home/lorenzo/pseudos/Fr/Fr.pz-spdn-rrkjus_psl.1.0.0.UPF
     MD5 check sum: 5665a43a3d1ea02b0b7dc7a0ae9ace04
     Pseudo is Ultrasoft + core correction, Zval = 19.0
     Generated using "atomic" code by A. Dal Corso v.6.2.2
     Using radial grid of 1287 points,  6 beta functions with: 
                l(1) =   0
                l(2) =   0
                l(3) =   1
                l(4) =   1
                l(5) =   2
                l(6) =   2
     Q(r) pseudized with 0 coefficients 


     atomic species   valence    mass     pseudopotential
        Fr            19.00   223.00000     Fr( 1.00)

     48 Sym. Ops., with inversion, found



   Cartesian axes

     site n.     atom                  positions (alat units)
         1           Fr  tau(   1) = (   0.0000000   0.0000000   0.0000000  )

     number of k points=    20  gaussian smearing, width (Ry)=  0.0100
                       cart. coord. in units 2pi/alat
        k(    1) = (   0.0000000   0.0000000   0.0000000), wk =   0.0058309
        k(    2) = (  -0.1428571   0.1428571  -0.1428571), wk =   0.0466472
        k(    3) = (  -0.2857143   0.2857143  -0.2857143), wk =   0.0466472
        k(    4) = (  -0.4285714   0.4285714  -0.4285714), wk =   0.0466472
        k(    5) = (   0.0000000   0.2857143   0.0000000), wk =   0.0349854
        k(    6) = (  -0.1428571   0.4285714  -0.1428571), wk =   0.1399417
        k(    7) = (  -0.2857143   0.5714286  -0.2857143), wk =   0.1399417
        k(    8) = (   0.5714286  -0.2857143   0.5714286), wk =   0.1399417
        k(    9) = (   0.4285714  -0.1428571   0.4285714), wk =   0.1399417
        k(   10) = (   0.2857143  -0.0000000   0.2857143), wk =   0.0699708
        k(   11) = (   0.0000000   0.5714286   0.0000000), wk =   0.0349854
        k(   12) = (  -0.1428571   0.7142857  -0.1428571), wk =   0.1399417
        k(   13) = (   0.7142857  -0.1428571   0.7142857), wk =   0.1399417
        k(   14) = (   0.5714286   0.0000000   0.5714286), wk =   0.0699708
        k(   15) = (   0.0000000   0.8571429   0.0000000), wk =   0.0349854
        k(   16) = (   0.8571429  -0.0000000   0.8571429), wk =   0.0699708
        k(   17) = (  -0.2857143   0.5714286   0.0000000), wk =   0.1399417
        k(   18) = (   0.5714286  -0.2857143   0.8571429), wk =   0.2798834
        k(   19) = (   0.7142857  -0.1428571   1.0000000), wk =   0.1399417
        k(   20) = (   0.5714286   0.0000000   0.8571429), wk =   0.1399417

     Dense  grid:     8393 G-vectors     FFT dimensions: (  30,  30,  30)

     Estimated max dynamical RAM per process >       8.82 MB

     Estimated total dynamical RAM >      44.12 MB

     Initial potential from superposition of free atoms

     starting charge   18.97647, renormalised to   19.00000
     Starting wfcs are   10 randomized atomic wfcs +    4 random wfcs

     total cpu time spent up to now is        1.2 secs

     Self-consistent Calculation

     iteration #  1     ecut=    85.00 Ry     beta= 0.70
     Davidson diagonalization with overlap
     ethr =  1.00E-02,  avg # of iterations =  4.7

     Threshold (ethr) on eigenvalues was too large:
     Diagonalizing with lowered threshold

     Davidson diagonalization with overlap
     ethr =  9.87E-05,  avg # of iterations =  1.8

     total cpu time spent up to now is        2.0 secs

     total energy              =    -282.49776760 Ry
     Harris-Foulkes estimate   =    -282.51073745 Ry
     estimated scf accuracy    <       0.01867344 Ry

     iteration #  2     ecut=    85.00 Ry     beta= 0.70
     Davidson diagonalization with overlap
     ethr =  9.83E-05,  avg # of iterations =  2.0

     total cpu time spent up to now is        2.4 secs

     total energy              =    -282.50121825 Ry
     Harris-Foulkes estimate   =    -282.50177842 Ry
     estimated scf accuracy    <       0.00073101 Ry

     iteration #  3     ecut=    85.00 Ry     beta= 0.70
     Davidson diagonalization with overlap
     ethr =  3.85E-06,  avg # of iterations =  3.0

     total cpu time spent up to now is        3.0 secs

     total energy              =    -282.50136055 Ry
     Harris-Foulkes estimate   =    -282.50137671 Ry
     estimated scf accuracy    <       0.00002634 Ry

     iteration #  4     ecut=    85.00 Ry     beta= 0.70
     Davidson diagonalization with overlap
     ethr =  1.39E-07,  avg # of iterations =  2.0

     total cpu time spent up to now is        3.5 secs

     total energy              =    -282.50136367 Ry
     Harris-Foulkes estimate   =    -282.50136371 Ry
     estimated scf accuracy    <       0.00000010 Ry

     iteration #  5     ecut=    85.00 Ry     beta= 0.70
     Davidson diagonalization with overlap
     ethr =  5.49E-10,  avg # of iterations =  2.2

     total cpu time spent up to now is        3.9 secs

     End of self-consistent calculation

          k = 0.0000 0.0000 0.0000 (  1067 PWs)   bands (ev):

    -9.5168  -9.5168  -9.5168  -9.1691  -9.1691   9.0932  46.8827  46.8827
    46.8827  48.0959  53.6732  53.6732  53.6732  57.5356

          k =-0.1429 0.1429-0.1429 (  1031 PWs)   bands (ev):

    -9.5098  -9.4603  -9.4603  -9.1624  -9.1624   9.9108  40.0856  45.7920
    45.7920  47.9733  55.2462  55.5451  55.5451  56.1306

          k =-0.2857 0.2857-0.2857 (  1056 PWs)   bands (ev):

    -9.5018  -9.4251  -9.4251  -9.0525  -9.0525  12.3539  31.4557  44.0035
    44.0035  47.9920  52.5578  53.2196  53.2196  59.6259

          k =-0.4286 0.4286-0.4286 (  1050 PWs)   bands (ev):

    -9.5023  -9.4550  -9.4550  -8.9024  -8.9024  16.0263  24.5141  42.8127
    42.8127  47.8777  51.1228  51.7619  51.7619  64.1193

          k = 0.0000 0.2857 0.0000 (  1034 PWs)   bands (ev):

    -9.5791  -9.3906  -9.3906  -9.2343  -9.1158  10.1829  42.8416  42.8416
    43.2382  46.1637  50.5826  57.3769  58.1722  58.1722

          k =-0.1429 0.4286-0.1429 (  1050 PWs)   bands (ev):

    -9.5884  -9.3514  -9.3099  -9.2001  -9.0179  12.0874  34.6518  40.7752
    41.9010  46.4912  49.9700  57.0401  57.9522  58.3921

          k =-0.2857 0.5714-0.2857 (  1050 PWs)   bands (ev):

    -9.5456  -9.3905  -9.3329  -9.0564  -8.8864  15.4470  27.1474  39.1715
    40.1430  45.5710  54.9431  55.4039  56.1120  57.4945

          k = 0.5714-0.2857 0.5714 (  1060 PWs)   bands (ev):

    -9.5025  -9.4076  -9.3576  -8.9576  -8.9095  17.5701  23.9882  37.2770
    41.2051  46.0411  53.6362  53.8231  57.9940  62.6774

          k = 0.4286-0.1429 0.4286 (  1054 PWs)   bands (ev):

    -9.4569  -9.4368  -9.3403  -9.0947  -8.9640  14.1961  29.4948  36.8841
    43.8807  47.8509  52.3150  53.2816  58.1820  59.4682

          k = 0.2857-0.0000 0.2857 (  1047 PWs)   bands (ev):

    -9.5059  -9.4050  -9.3783  -9.2141  -9.0648  11.2727  36.9292  38.6084
    46.9454  50.2400  51.1130  53.5104  54.4343  56.7098

          k = 0.0000 0.5714 0.0000 (  1042 PWs)   bands (ev):

    -9.7183  -9.3973  -9.0986  -9.0986  -8.9956  13.4462  35.5220  38.1798
    38.1798  44.0826  44.6503  63.0744  63.0744  64.4814

          k =-0.1429 0.7143-0.1429 (  1054 PWs)   bands (ev):

    -9.7081  -9.4398  -9.0765  -9.0070  -8.8749  16.3166  30.0198  34.4138
    37.1528  43.6786  47.9040  60.7799  61.9074  65.5729

          k = 0.7143-0.1429 0.7143 (  1058 PWs)   bands (ev):

    -9.6133  -9.3162  -9.1145  -9.0767  -8.8975  19.3218  25.9694  31.0058
    37.9747  44.0315  54.7696  58.6631  59.5452  65.0461

          k = 0.5714 0.0000 0.5714 (  1057 PWs)   bands (ev):

    -9.5183  -9.2860  -9.1504  -9.0788  -9.0683  17.3108  28.7416  30.1413
    40.5227  45.4485  56.8682  57.2366  59.2571  60.0204

          k = 0.0000 0.8571 0.0000 (  1054 PWs)   bands (ev):

    -9.8289  -9.5423  -8.8982  -8.8550  -8.8550  18.6213  27.0851  35.5750
    35.5750  42.6804  43.0525  64.1281  68.8884  68.8884

          k = 0.8571-0.0000 0.8571 (  1045 PWs)   bands (ev):

    -9.7619  -9.5065  -8.9296  -8.8940  -8.8509  20.6813  25.2957  31.7873
    35.8686  42.9764  47.1948  62.4144  66.2839  67.9599

          k =-0.2857 0.5714 0.0000 (  1052 PWs)   bands (ev):

    -9.5723  -9.3903  -9.2267  -9.1095  -8.9484  14.4810  32.0817  34.3958
    39.6694  48.7962  49.0432  54.8701  60.2736  63.2804

          k = 0.5714-0.2857 0.8571 (  1062 PWs)   bands (ev):

    -9.4826  -9.4169  -9.1940  -9.0676  -8.9138  17.9215  26.5855  33.1286
    37.0187  48.3486  52.2103  56.1577  61.4691  62.2747

          k = 0.7143-0.1429 1.0000 (  1059 PWs)   bands (ev):

    -9.6518  -9.4586  -9.0822  -8.9376  -8.8566  19.2700  27.4863  32.0555
    33.5988  47.6876  47.7003  58.1746  64.0147  68.3974

          k = 0.5714 0.0000 0.8571 (  1053 PWs)   bands (ev):

    -9.5156  -9.3199  -9.2359  -9.0455  -8.8600  20.3983  27.7568  28.4723
    34.0775  48.5055  54.9136  55.4927  57.8922  65.9240

     the Fermi energy is    47.0189 ev

!    total energy              =    -282.50136371 Ry
     Harris-Foulkes estimate   =    -282.50136371 Ry
     estimated scf accuracy    <          1.4E-09 Ry

     The total energy is the sum of the following terms:

     one-electron contribution =      -4.48083896 Ry
     hartree contribution      =      28.20983193 Ry
     xc contribution           =     -63.89703417 Ry
     ewald contribution        =    -242.33311988 Ry
     smearing contrib. (-TS)   =      -0.00020264 Ry

     convergence has been achieved in   5 iterations

     Forces acting on atoms (cartesian axes, Ry/au):

     atom    1 type  1   force =     0.00000000    0.00000000    0.00000000

     Total force =     0.000000     Total SCF correction =     0.000000


     Computing stress (Cartesian axis) and pressure

          total   stress  (Ry/bohr**3)                   (kbar)     P= 6983.21
   0.04747092  -0.00000000  -0.00000000       6983.21     -0.00     -0.00
   0.00000000   0.04747092   0.00000000          0.00   6983.21      0.00
  -0.00000000   0.00000000   0.04747092         -0.00      0.00   6983.21


     Writing output data file Fr.save/

     init_run     :      0.29s CPU      0.31s WALL (       1 calls)
     electrons    :      2.58s CPU      2.68s WALL (       1 calls)
     forces       :      0.05s CPU      0.05s WALL (       1 calls)
     stress       :      0.14s CPU      0.14s WALL (       1 calls)

     Called by init_run:
     wfcinit      :      0.09s CPU      0.10s WALL (       1 calls)
     potinit      :      0.01s CPU      0.01s WALL (       1 calls)
     hinit0       :      0.18s CPU      0.18s WALL (       1 calls)

     Called by electrons:
     c_bands      :      2.18s CPU      2.27s WALL (       6 calls)
     sum_band     :      0.33s CPU      0.35s WALL (       6 calls)
     v_of_rho     :      0.01s CPU      0.01s WALL (       6 calls)
     newd         :      0.06s CPU      0.06s WALL (       6 calls)
     mix_rho      :      0.00s CPU      0.00s WALL (       6 calls)

     Called by c_bands:
     init_us_2    :      0.04s CPU      0.05s WALL (     300 calls)
     cegterg      :      2.12s CPU      2.20s WALL (     120 calls)

     Called by sum_band:
     sum_band:bec :      0.00s CPU      0.00s WALL (     120 calls)
     addusdens    :      0.05s CPU      0.05s WALL (       6 calls)

     Called by *egterg:
     h_psi        :      1.58s CPU      1.66s WALL (     454 calls)
     s_psi        :      0.04s CPU      0.04s WALL (     454 calls)
     g_psi        :      0.00s CPU      0.00s WALL (     314 calls)
     cdiaghg      :      0.22s CPU      0.23s WALL (     414 calls)

     Called by h_psi:
     h_psi:pot    :      1.58s CPU      1.66s WALL (     454 calls)
     h_psi:calbec :      0.11s CPU      0.11s WALL (     454 calls)
     vloc_psi     :      1.43s CPU      1.50s WALL (     454 calls)
     add_vuspsi   :      0.04s CPU      0.04s WALL (     454 calls)

     General routines
     calbec       :      0.15s CPU      0.15s WALL (     674 calls)
     fft          :      0.02s CPU      0.02s WALL (      34 calls)
     ffts         :      0.00s CPU      0.00s WALL (       6 calls)
     fftw         :      1.56s CPU      1.63s WALL (   10840 calls)

     Parallel routines
     fft_scatt_xy :      0.11s CPU      0.12s WALL (   10880 calls)
     fft_scatt_yz :      0.61s CPU      0.63s WALL (   10880 calls)

     PWSCF        :     3.94s CPU         4.12s WALL


   This run was terminated on:  22:58:20   7Apr2024            

=------------------------------------------------------------------------------=
   JOB DONE.
=------------------------------------------------------------------------------=
