
     Program PWSCF v.6.3MaX starts on  7Apr2024 at 22:47:11 

     This program is part of the open-source Quantum ESPRESSO suite
     for quantum simulation of materials; please cite
         "P. Giannozzi et al., J. Phys.:Condens. Matter 21 395502 (2009);
         "P. Giannozzi et al., J. Phys.:Condens. Matter 29 465901 (2017);
          URL http://www.quantum-espresso.org", 
     in publications or presentations arising from this work. More details at
     http://www.quantum-espresso.org/quote

     Parallel version (MPI), running on     5 processors

     MPI processes distributed on     1 nodes
     R & G space division:  proc/nbgrp/npool/nimage =       5
     Waiting for input...
     Reading input from standard input

     Current dimensions of program PWSCF are:
     Max number of different atomic species (ntypx) = 10
     Max number of k-points (npk) =  40000
     Max angular momentum in pseudopotentials (lmaxx) =  3
               file Fr.pz-spdn-kjpaw_psl.1.0.0.UPF: wavefunction(s)  6P renormalized

     Subspace diagonalization in iterative solution of the eigenvalue problem:
     a serial algorithm will be used


     Parallelization info
     --------------------
     sticks:   dense  smooth     PW     G-vecs:    dense   smooth      PW
     Min          87      87     21                 1245     1245     148
     Max          88      88     22                 1247     1247     151
     Sum         439     439    109                 6231     6231     749



     bravais-lattice index     =            2
     lattice parameter (alat)  =       6.8300  a.u.
     unit-cell volume          =      79.6530 (a.u.)^3
     number of atoms/cell      =            1
     number of atomic types    =            1
     number of electrons       =        19.00
     number of Kohn-Sham states=           14
     kinetic-energy cutoff     =      70.0000  Ry
     charge density cutoff     =     280.0000  Ry
     convergence threshold     =      1.0E-08
     mixing beta               =       0.7000
     number of iterations used =            8  plain     mixing
     Exchange-correlation      = SLA PZ NOGX NOGC ( 1  1  0  0 0 0)

     celldm(1)=   6.830000  celldm(2)=   0.000000  celldm(3)=   0.000000
     celldm(4)=   0.000000  celldm(5)=   0.000000  celldm(6)=   0.000000

     crystal axes: (cart. coord. in units of alat)
               a(1) = (  -0.500000   0.000000   0.500000 )  
               a(2) = (   0.000000   0.500000   0.500000 )  
               a(3) = (  -0.500000   0.500000   0.000000 )  

     reciprocal axes: (cart. coord. in units 2 pi/alat)
               b(1) = ( -1.000000 -1.000000  1.000000 )  
               b(2) = (  1.000000  1.000000  1.000000 )  
               b(3) = ( -1.000000  1.000000 -1.000000 )  


     PseudoPot. # 1 for Fr read from file:
     /home/lorenzo/pseudos/Fr/Fr.pz-spdn-kjpaw_psl.1.0.0.UPF
     MD5 check sum: 60dafd115682613df3cc92ec23a62a32
     Pseudo is Projector augmented-wave + core cor, Zval = 19.0
     Generated using "atomic" code by A. Dal Corso v.6.2.2
     Shape of augmentation charge: PSQ
     Using radial grid of 1287 points,  6 beta functions with: 
                l(1) =   0
                l(2) =   0
                l(3) =   1
                l(4) =   1
                l(5) =   2
                l(6) =   2
     Q(r) pseudized with 0 coefficients 


     atomic species   valence    mass     pseudopotential
        Fr            19.00   223.00000     Fr( 1.00)

     48 Sym. Ops., with inversion, found



   Cartesian axes

     site n.     atom                  positions (alat units)
         1           Fr  tau(   1) = (   0.0000000   0.0000000   0.0000000  )

     number of k points=     1  gaussian smearing, width (Ry)=  0.0100
                       cart. coord. in units 2pi/alat
        k(    1) = (   0.0000000   0.0000000   0.0000000), wk =   2.0000000

     Dense  grid:     6231 G-vectors     FFT dimensions: (  25,  25,  25)

     Estimated max dynamical RAM per process >       6.09 MB

     Estimated total dynamical RAM >      30.43 MB

     Check: negative/imaginary core charge=   -0.000002    0.000000

     Initial potential from superposition of free atoms

     starting charge   18.97647, renormalised to   19.00000
     Starting wfcs are   10 randomized atomic wfcs +    4 random wfcs
     Checking if some PAW data can be deallocated... 

     total cpu time spent up to now is        1.2 secs

     Self-consistent Calculation

     iteration #  1     ecut=    70.00 Ry     beta= 0.70
     Davidson diagonalization with overlap
     ethr =  1.00E-02,  avg # of iterations =  4.0

     Threshold (ethr) on eigenvalues was too large:
     Diagonalizing with lowered threshold

     Davidson diagonalization with overlap
     ethr =  8.63E-04,  avg # of iterations =  1.0

     total cpu time spent up to now is        1.3 secs

     total energy              =   -1040.74984508 Ry
     Harris-Foulkes estimate   =   -1040.78203190 Ry
     estimated scf accuracy    <       0.16491650 Ry

     iteration #  2     ecut=    70.00 Ry     beta= 0.70
     Davidson diagonalization with overlap
     ethr =  8.68E-04,  avg # of iterations =  1.0

     total cpu time spent up to now is        1.3 secs

     total energy              =   -1040.75700843 Ry
     Harris-Foulkes estimate   =   -1040.75629339 Ry
     estimated scf accuracy    <       0.00962461 Ry

     iteration #  3     ecut=    70.00 Ry     beta= 0.70
     Davidson diagonalization with overlap
     ethr =  5.07E-05,  avg # of iterations =  2.0

     total cpu time spent up to now is        1.4 secs

     total energy              =   -1040.75723916 Ry
     Harris-Foulkes estimate   =   -1040.76007607 Ry
     estimated scf accuracy    <       0.00923714 Ry

     iteration #  4     ecut=    70.00 Ry     beta= 0.70
     Davidson diagonalization with overlap
     ethr =  4.86E-05,  avg # of iterations =  1.0

     total cpu time spent up to now is        1.5 secs

     total energy              =   -1040.75675591 Ry
     Harris-Foulkes estimate   =   -1040.75997205 Ry
     estimated scf accuracy    <       0.01527734 Ry

     iteration #  5     ecut=    70.00 Ry     beta= 0.70
     Davidson diagonalization with overlap
     ethr =  4.86E-05,  avg # of iterations =  1.0

     total cpu time spent up to now is        1.6 secs

     total energy              =   -1040.75880991 Ry
     Harris-Foulkes estimate   =   -1040.75937666 Ry
     estimated scf accuracy    <       0.00339483 Ry

     iteration #  6     ecut=    70.00 Ry     beta= 0.70
     Davidson diagonalization with overlap
     ethr =  1.79E-05,  avg # of iterations =  1.0

     total cpu time spent up to now is        1.6 secs

     total energy              =   -1040.75897811 Ry
     Harris-Foulkes estimate   =   -1040.75899529 Ry
     estimated scf accuracy    <       0.00007658 Ry

     iteration #  7     ecut=    70.00 Ry     beta= 0.70
     Davidson diagonalization with overlap
     ethr =  4.03E-07,  avg # of iterations =  1.0

     total cpu time spent up to now is        1.7 secs

     total energy              =   -1040.75898703 Ry
     Harris-Foulkes estimate   =   -1040.75899236 Ry
     estimated scf accuracy    <       0.00003148 Ry

     iteration #  8     ecut=    70.00 Ry     beta= 0.70
     Davidson diagonalization with overlap
     ethr =  1.66E-07,  avg # of iterations =  1.0

     total cpu time spent up to now is        1.8 secs

     total energy              =   -1040.75898975 Ry
     Harris-Foulkes estimate   =   -1040.75898988 Ry
     estimated scf accuracy    <       0.00000046 Ry

     iteration #  9     ecut=    70.00 Ry     beta= 0.70
     Davidson diagonalization with overlap
     ethr =  2.42E-09,  avg # of iterations =  3.0

     total cpu time spent up to now is        1.9 secs

     total energy              =   -1040.75898988 Ry
     Harris-Foulkes estimate   =   -1040.75898994 Ry
     estimated scf accuracy    <       0.00000062 Ry

     iteration # 10     ecut=    70.00 Ry     beta= 0.70
     Davidson diagonalization with overlap
     ethr =  2.42E-09,  avg # of iterations =  1.0

     total cpu time spent up to now is        1.9 secs

     total energy              =   -1040.75898988 Ry
     Harris-Foulkes estimate   =   -1040.75898990 Ry
     estimated scf accuracy    <       0.00000013 Ry

     iteration # 11     ecut=    70.00 Ry     beta= 0.70
     Davidson diagonalization with overlap
     ethr =  6.94E-10,  avg # of iterations =  1.0

     total cpu time spent up to now is        2.0 secs

     total energy              =   -1040.75898988 Ry
     Harris-Foulkes estimate   =   -1040.75898989 Ry
     estimated scf accuracy    <       0.00000002 Ry

     iteration # 12     ecut=    70.00 Ry     beta= 0.70
     Davidson diagonalization with overlap
     ethr =  1.23E-10,  avg # of iterations =  1.0

     total cpu time spent up to now is        2.1 secs

     End of self-consistent calculation

          k = 0.0000 0.0000 0.0000 (   749 PWs)   bands (ev):

    -8.8289  -8.8289  -8.8289  -8.0649  -8.0649   9.2925  47.2975  47.2975
    47.2975  47.4594  53.7137  53.7137  53.7137  58.1020

     the Fermi energy is    47.4803 ev

!    total energy              =   -1040.75898988 Ry
     Harris-Foulkes estimate   =   -1040.75898989 Ry
     estimated scf accuracy    <          6.3E-09 Ry

     total all-electron energy =    -48486.211963 Ry

     The total energy is the sum of the following terms:

     one-electron contribution =       5.34202476 Ry
     hartree contribution      =      29.35342482 Ry
     xc contribution           =     -64.18561158 Ry
     ewald contribution        =    -242.33311988 Ry
     one-center paw contrib.   =    -768.92741371 Ry
     smearing contrib. (-TS)   =      -0.00829429 Ry

     convergence has been achieved in  12 iterations

     Forces acting on atoms (cartesian axes, Ry/au):

     atom    1 type  1   force =     0.00000000    0.00000000    0.00000000

     Total force =     0.000000     Total SCF correction =     0.000000


     Computing stress (Cartesian axis) and pressure

          total   stress  (Ry/bohr**3)                   (kbar)     P=13478.82
   0.09162718  -0.00000000   0.00000000      13478.82     -0.00      0.00
  -0.00000000   0.09162718   0.00000000         -0.00  13478.82      0.00
   0.00000000   0.00000000   0.09162718          0.00      0.00  13478.82


     Writing output data file Fr.save/

     init_run     :      0.25s CPU      0.25s WALL (       1 calls)
     electrons    :      0.89s CPU      0.92s WALL (       1 calls)
     forces       :      0.03s CPU      0.03s WALL (       1 calls)
     stress       :      0.05s CPU      0.05s WALL (       1 calls)

     Called by init_run:
     wfcinit      :      0.00s CPU      0.00s WALL (       1 calls)
     potinit      :      0.06s CPU      0.06s WALL (       1 calls)
     hinit0       :      0.18s CPU      0.18s WALL (       1 calls)

     Called by electrons:
     c_bands      :      0.11s CPU      0.12s WALL (      13 calls)
     sum_band     :      0.12s CPU      0.13s WALL (      13 calls)
     v_of_rho     :      0.01s CPU      0.01s WALL (      13 calls)
     newd         :      0.08s CPU      0.09s WALL (      13 calls)
     PAW_pot      :      0.61s CPU      0.61s WALL (      13 calls)
     mix_rho      :      0.01s CPU      0.01s WALL (      13 calls)

     Called by c_bands:
     init_us_2    :      0.00s CPU      0.00s WALL (      27 calls)
     cegterg      :      0.10s CPU      0.11s WALL (      13 calls)

     Called by sum_band:
     sum_band:bec :      0.00s CPU      0.00s WALL (      13 calls)
     addusdens    :      0.08s CPU      0.08s WALL (      13 calls)

     Called by *egterg:
     h_psi        :      0.07s CPU      0.08s WALL (      33 calls)
     s_psi        :      0.00s CPU      0.00s WALL (      33 calls)
     g_psi        :      0.00s CPU      0.00s WALL (      19 calls)
     cdiaghg      :      0.01s CPU      0.01s WALL (      31 calls)

     Called by h_psi:
     h_psi:pot    :      0.07s CPU      0.08s WALL (      33 calls)
     h_psi:calbec :      0.01s CPU      0.01s WALL (      33 calls)
     vloc_psi     :      0.07s CPU      0.07s WALL (      33 calls)
     add_vuspsi   :      0.00s CPU      0.00s WALL (      33 calls)

     General routines
     calbec       :      0.01s CPU      0.01s WALL (      51 calls)
     fft          :      0.02s CPU      0.02s WALL (      62 calls)
     ffts         :      0.00s CPU      0.00s WALL (      13 calls)
     fftw         :      0.07s CPU      0.08s WALL (     988 calls)

     Parallel routines
     fft_scatt_xy :      0.01s CPU      0.01s WALL (    1063 calls)
     fft_scatt_yz :      0.03s CPU      0.04s WALL (    1063 calls)

     PWSCF        :     2.15s CPU         2.21s WALL


   This run was terminated on:  22:47:14   7Apr2024            

=------------------------------------------------------------------------------=
   JOB DONE.
=------------------------------------------------------------------------------=
