
     Program PWSCF v.6.3MaX starts on  7Apr2024 at 22:29:40 

     This program is part of the open-source Quantum ESPRESSO suite
     for quantum simulation of materials; please cite
         "P. Giannozzi et al., J. Phys.:Condens. Matter 21 395502 (2009);
         "P. Giannozzi et al., J. Phys.:Condens. Matter 29 465901 (2017);
          URL http://www.quantum-espresso.org", 
     in publications or presentations arising from this work. More details at
     http://www.quantum-espresso.org/quote

     Parallel version (MPI), running on     5 processors

     MPI processes distributed on     1 nodes
     R & G space division:  proc/nbgrp/npool/nimage =       5
     Waiting for input...
     Reading input from standard input

     Current dimensions of program PWSCF are:
     Max number of different atomic species (ntypx) = 10
     Max number of k-points (npk) =  40000
     Max angular momentum in pseudopotentials (lmaxx) =  3
               file Fr.pbe-spdn-kjpaw_psl.1.0.0.UPF: wavefunction(s)  6P renormalized

     Subspace diagonalization in iterative solution of the eigenvalue problem:
     a serial algorithm will be used


     Parallelization info
     --------------------
     sticks:   dense  smooth     PW     G-vecs:    dense   smooth      PW
     Min          43      43     14                  445      445      82
     Max          45      45     15                  446      446      83
     Sum         223     223     73                 2229     2229     411



     bravais-lattice index     =            2
     lattice parameter (alat)  =       6.8300  a.u.
     unit-cell volume          =      79.6530 (a.u.)^3
     number of atoms/cell      =            1
     number of atomic types    =            1
     number of electrons       =        19.00
     number of Kohn-Sham states=           14
     kinetic-energy cutoff     =      35.0000  Ry
     charge density cutoff     =     140.0000  Ry
     convergence threshold     =      1.0E-08
     mixing beta               =       0.7000
     number of iterations used =            8  plain     mixing
     Exchange-correlation      = SLA PW PBX PBC ( 1  4  3  4 0 0)

     celldm(1)=   6.830000  celldm(2)=   0.000000  celldm(3)=   0.000000
     celldm(4)=   0.000000  celldm(5)=   0.000000  celldm(6)=   0.000000

     crystal axes: (cart. coord. in units of alat)
               a(1) = (  -0.500000   0.000000   0.500000 )  
               a(2) = (   0.000000   0.500000   0.500000 )  
               a(3) = (  -0.500000   0.500000   0.000000 )  

     reciprocal axes: (cart. coord. in units 2 pi/alat)
               b(1) = ( -1.000000 -1.000000  1.000000 )  
               b(2) = (  1.000000  1.000000  1.000000 )  
               b(3) = ( -1.000000  1.000000 -1.000000 )  


     PseudoPot. # 1 for Fr read from file:
     /home/lorenzo/pseudos/Fr/Fr.pbe-spdn-kjpaw_psl.1.0.0.UPF
     MD5 check sum: 362a188b966a64328b94f1ef5f32e8c4
     Pseudo is Projector augmented-wave + core cor, Zval = 19.0
     Generated using "atomic" code by A. Dal Corso v.6.2.2
     Shape of augmentation charge: PSQ
     Using radial grid of 1287 points,  6 beta functions with: 
                l(1) =   0
                l(2) =   0
                l(3) =   1
                l(4) =   1
                l(5) =   2
                l(6) =   2
     Q(r) pseudized with 0 coefficients 


     atomic species   valence    mass     pseudopotential
        Fr            19.00   223.00000     Fr( 1.00)

     48 Sym. Ops., with inversion, found



   Cartesian axes

     site n.     atom                  positions (alat units)
         1           Fr  tau(   1) = (   0.0000000   0.0000000   0.0000000  )

     number of k points=     4  gaussian smearing, width (Ry)=  0.0100
                       cart. coord. in units 2pi/alat
        k(    1) = (   0.0000000   0.0000000   0.0000000), wk =   0.0740741
        k(    2) = (  -0.3333333   0.3333333  -0.3333333), wk =   0.5925926
        k(    3) = (   0.0000000   0.6666667   0.0000000), wk =   0.4444444
        k(    4) = (   0.6666667  -0.0000000   0.6666667), wk =   0.8888889

     Dense  grid:     2229 G-vectors     FFT dimensions: (  20,  20,  20)

     Estimated max dynamical RAM per process >       2.77 MB

     Estimated total dynamical RAM >      13.83 MB

     Check: negative/imaginary core charge=   -0.000020    0.000000

     Initial potential from superposition of free atoms

     starting charge   18.97009, renormalised to   19.00000
     Starting wfcs are   10 randomized atomic wfcs +    4 random wfcs
     Checking if some PAW data can be deallocated... 

     total cpu time spent up to now is        1.3 secs

     Self-consistent Calculation

     iteration #  1     ecut=    35.00 Ry     beta= 0.70
     Davidson diagonalization with overlap
     ethr =  1.00E-02,  avg # of iterations =  4.8

     Threshold (ethr) on eigenvalues was too large:
     Diagonalizing with lowered threshold

     Davidson diagonalization with overlap
     ethr =  2.83E-04,  avg # of iterations =  1.2

     total cpu time spent up to now is        1.5 secs

     total energy              =   -1069.30151536 Ry
     Harris-Foulkes estimate   =   -1069.34331135 Ry
     estimated scf accuracy    <       0.05420220 Ry

     iteration #  2     ecut=    35.00 Ry     beta= 0.70
     Davidson diagonalization with overlap
     ethr =  2.85E-04,  avg # of iterations =  2.0

     total cpu time spent up to now is        1.7 secs

     total energy              =   -1069.31648427 Ry
     Harris-Foulkes estimate   =   -1069.31701401 Ry
     estimated scf accuracy    <       0.00217380 Ry

     iteration #  3     ecut=    35.00 Ry     beta= 0.70
     Davidson diagonalization with overlap
     ethr =  1.14E-05,  avg # of iterations =  2.2

     total cpu time spent up to now is        1.8 secs

     total energy              =   -1069.31682457 Ry
     Harris-Foulkes estimate   =   -1069.31675127 Ry
     estimated scf accuracy    <       0.00007747 Ry

     iteration #  4     ecut=    35.00 Ry     beta= 0.70
     Davidson diagonalization with overlap
     ethr =  4.08E-07,  avg # of iterations =  2.0

     total cpu time spent up to now is        2.0 secs

     total energy              =   -1069.31683179 Ry
     Harris-Foulkes estimate   =   -1069.31683154 Ry
     estimated scf accuracy    <       0.00000022 Ry

     iteration #  5     ecut=    35.00 Ry     beta= 0.70
     Davidson diagonalization with overlap
     ethr =  1.17E-09,  avg # of iterations =  2.2

     total cpu time spent up to now is        2.1 secs

     total energy              =   -1069.31683187 Ry
     Harris-Foulkes estimate   =   -1069.31683188 Ry
     estimated scf accuracy    <       0.00000002 Ry

     iteration #  6     ecut=    35.00 Ry     beta= 0.70
     Davidson diagonalization with overlap
     ethr =  9.61E-11,  avg # of iterations =  2.0

     total cpu time spent up to now is        2.3 secs

     End of self-consistent calculation

          k = 0.0000 0.0000 0.0000 (   283 PWs)   bands (ev):

    -9.3697  -9.3697  -9.3697  -9.2058  -9.2058   9.4344  47.1704  47.1704
    47.1704  48.4181  54.7112  54.7112  54.7112  57.6827

          k =-0.3333 0.3333-0.3333 (   287 PWs)   bands (ev):

    -9.4621  -9.4261  -9.4261  -8.9802  -8.9802  13.8432  29.1858  43.8252
    43.8252  48.3355  52.3854  53.3366  53.3366  61.7978

          k = 0.0000 0.6667 0.0000 (   274 PWs)   bands (ev):

    -9.7778  -9.1260  -8.7789  -8.6351  -8.6351  15.3404  32.9008  37.3704
    37.3704  44.2798  44.2924  64.9945  65.2481  65.2481

          k = 0.6667-0.0000 0.6667 (   284 PWs)   bands (ev):

    -9.6883  -9.1001  -9.0369  -9.0321  -8.8989  19.7253  28.3454  28.3784
    38.8694  44.8100  57.7088  59.3913  60.2156  63.0792

     the Fermi energy is    44.7794 ev

!    total energy              =   -1069.31683188 Ry
     Harris-Foulkes estimate   =   -1069.31683188 Ry
     estimated scf accuracy    <          4.2E-11 Ry

     total all-electron energy =    -48514.927143 Ry

     The total energy is the sum of the following terms:

     one-electron contribution =       2.28399829 Ry
     hartree contribution      =      27.64193812 Ry
     xc contribution           =     -64.35376600 Ry
     ewald contribution        =    -242.33311995 Ry
     one-center paw contrib.   =    -792.55349895 Ry
     smearing contrib. (-TS)   =      -0.00238340 Ry

     convergence has been achieved in   6 iterations

     Forces acting on atoms (cartesian axes, Ry/au):

     atom    1 type  1   force =     0.00000000    0.00000000    0.00000000

     Total force =     0.000000     Total SCF correction =     0.000000


     Computing stress (Cartesian axis) and pressure

          total   stress  (Ry/bohr**3)                   (kbar)     P= 1822.27
   0.01238754   0.00000000  -0.00000000       1822.27      0.00     -0.00
   0.00000000   0.01238754  -0.00000000          0.00   1822.27     -0.00
   0.00000000  -0.00000000   0.01238754          0.00     -0.00   1822.27


     Writing output data file Fr.save/

     init_run     :      0.23s CPU      0.25s WALL (       1 calls)
     electrons    :      0.84s CPU      0.94s WALL (       1 calls)
     forces       :      0.01s CPU      0.01s WALL (       1 calls)
     stress       :      0.03s CPU      0.03s WALL (       1 calls)

     Called by init_run:
     wfcinit      :      0.01s CPU      0.01s WALL (       1 calls)
     potinit      :      0.09s CPU      0.11s WALL (       1 calls)
     hinit0       :      0.11s CPU      0.11s WALL (       1 calls)

     Called by electrons:
     c_bands      :      0.14s CPU      0.16s WALL (       7 calls)
     sum_band     :      0.05s CPU      0.05s WALL (       7 calls)
     v_of_rho     :      0.01s CPU      0.01s WALL (       7 calls)
     newd         :      0.01s CPU      0.02s WALL (       7 calls)
     PAW_pot      :      0.70s CPU      0.80s WALL (       7 calls)
     mix_rho      :      0.00s CPU      0.00s WALL (       7 calls)

     Called by c_bands:
     init_us_2    :      0.00s CPU      0.00s WALL (      68 calls)
     cegterg      :      0.14s CPU      0.15s WALL (      28 calls)

     Called by sum_band:
     sum_band:bec :      0.00s CPU      0.00s WALL (      28 calls)
     addusdens    :      0.02s CPU      0.02s WALL (       7 calls)

     Called by *egterg:
     h_psi        :      0.09s CPU      0.10s WALL (      98 calls)
     s_psi        :      0.00s CPU      0.00s WALL (      98 calls)
     g_psi        :      0.00s CPU      0.00s WALL (      66 calls)
     cdiaghg      :      0.03s CPU      0.04s WALL (      90 calls)

     Called by h_psi:
     h_psi:pot    :      0.09s CPU      0.10s WALL (      98 calls)
     h_psi:calbec :      0.00s CPU      0.00s WALL (      98 calls)
     vloc_psi     :      0.08s CPU      0.09s WALL (      98 calls)
     add_vuspsi   :      0.00s CPU      0.00s WALL (      98 calls)

     General routines
     calbec       :      0.01s CPU      0.01s WALL (     146 calls)
     fft          :      0.01s CPU      0.01s WALL (     104 calls)
     ffts         :      0.00s CPU      0.00s WALL (       7 calls)
     fftw         :      0.09s CPU      0.10s WALL (    2420 calls)

     Parallel routines
     fft_scatt_xy :      0.01s CPU      0.01s WALL (    2531 calls)
     fft_scatt_yz :      0.03s CPU      0.03s WALL (    2531 calls)

     PWSCF        :     2.20s CPU         2.39s WALL


   This run was terminated on:  22:29:42   7Apr2024            

=------------------------------------------------------------------------------=
   JOB DONE.
=------------------------------------------------------------------------------=
