
     Program PWSCF v.6.3MaX starts on  7Apr2024 at 22:23:35 

     This program is part of the open-source Quantum ESPRESSO suite
     for quantum simulation of materials; please cite
         "P. Giannozzi et al., J. Phys.:Condens. Matter 21 395502 (2009);
         "P. Giannozzi et al., J. Phys.:Condens. Matter 29 465901 (2017);
          URL http://www.quantum-espresso.org", 
     in publications or presentations arising from this work. More details at
     http://www.quantum-espresso.org/quote

     Parallel version (MPI), running on     5 processors

     MPI processes distributed on     1 nodes
     R & G space division:  proc/nbgrp/npool/nimage =       5
     Waiting for input...
     Reading input from standard input

     Current dimensions of program PWSCF are:
     Max number of different atomic species (ntypx) = 10
     Max number of k-points (npk) =  40000
     Max angular momentum in pseudopotentials (lmaxx) =  3
               file Fr.pbe-spdn-kjpaw_psl.1.0.0.UPF: wavefunction(s)  6P renormalized

     Subspace diagonalization in iterative solution of the eigenvalue problem:
     a serial algorithm will be used


     Parallelization info
     --------------------
     sticks:   dense  smooth     PW     G-vecs:    dense   smooth      PW
     Min          24      24      8                  187      187      36
     Max          25      25      9                  191      191      37
     Sum         121     121     43                  941      941     181



     bravais-lattice index     =            2
     lattice parameter (alat)  =       6.8300  a.u.
     unit-cell volume          =      79.6530 (a.u.)^3
     number of atoms/cell      =            1
     number of atomic types    =            1
     number of electrons       =        19.00
     number of Kohn-Sham states=           14
     kinetic-energy cutoff     =      20.0000  Ry
     charge density cutoff     =      80.0000  Ry
     convergence threshold     =      1.0E-08
     mixing beta               =       0.7000
     number of iterations used =            8  plain     mixing
     Exchange-correlation      = SLA PW PBX PBC ( 1  4  3  4 0 0)

     celldm(1)=   6.830000  celldm(2)=   0.000000  celldm(3)=   0.000000
     celldm(4)=   0.000000  celldm(5)=   0.000000  celldm(6)=   0.000000

     crystal axes: (cart. coord. in units of alat)
               a(1) = (  -0.500000   0.000000   0.500000 )  
               a(2) = (   0.000000   0.500000   0.500000 )  
               a(3) = (  -0.500000   0.500000   0.000000 )  

     reciprocal axes: (cart. coord. in units 2 pi/alat)
               b(1) = ( -1.000000 -1.000000  1.000000 )  
               b(2) = (  1.000000  1.000000  1.000000 )  
               b(3) = ( -1.000000  1.000000 -1.000000 )  


     PseudoPot. # 1 for Fr read from file:
     /home/lorenzo/pseudos/Fr/Fr.pbe-spdn-kjpaw_psl.1.0.0.UPF
     MD5 check sum: 362a188b966a64328b94f1ef5f32e8c4
     Pseudo is Projector augmented-wave + core cor, Zval = 19.0
     Generated using "atomic" code by A. Dal Corso v.6.2.2
     Shape of augmentation charge: PSQ
     Using radial grid of 1287 points,  6 beta functions with: 
                l(1) =   0
                l(2) =   0
                l(3) =   1
                l(4) =   1
                l(5) =   2
                l(6) =   2
     Q(r) pseudized with 0 coefficients 


     atomic species   valence    mass     pseudopotential
        Fr            19.00   223.00000     Fr( 1.00)

     48 Sym. Ops., with inversion, found



   Cartesian axes

     site n.     atom                  positions (alat units)
         1           Fr  tau(   1) = (   0.0000000   0.0000000   0.0000000  )

     number of k points=     4  gaussian smearing, width (Ry)=  0.0100
                       cart. coord. in units 2pi/alat
        k(    1) = (   0.0000000   0.0000000   0.0000000), wk =   0.0740741
        k(    2) = (  -0.3333333   0.3333333  -0.3333333), wk =   0.5925926
        k(    3) = (   0.0000000   0.6666667   0.0000000), wk =   0.4444444
        k(    4) = (   0.6666667  -0.0000000   0.6666667), wk =   0.8888889

     Dense  grid:      941 G-vectors     FFT dimensions: (  15,  15,  15)

     Estimated max dynamical RAM per process >       1.52 MB

     Estimated total dynamical RAM >       7.58 MB

     Check: negative/imaginary core charge=   -0.000222    0.000000

     Initial potential from superposition of free atoms

     starting charge   18.97009, renormalised to   19.00000
     Starting wfcs are   10 randomized atomic wfcs +    4 random wfcs
     Checking if some PAW data can be deallocated... 

     total cpu time spent up to now is        1.1 secs

     Self-consistent Calculation

     iteration #  1     ecut=    20.00 Ry     beta= 0.70
     Davidson diagonalization with overlap
     ethr =  1.00E-02,  avg # of iterations =  4.5

     total cpu time spent up to now is        1.2 secs

     total energy              =   -1059.62690505 Ry
     Harris-Foulkes estimate   =   -1061.46344930 Ry
     estimated scf accuracy    <       2.26112146 Ry

     iteration #  2     ecut=    20.00 Ry     beta= 0.70
     Davidson diagonalization with overlap
     ethr =  1.00E-02,  avg # of iterations =  2.0

     total cpu time spent up to now is        1.4 secs

     total energy              =   -1060.10734703 Ry
     Harris-Foulkes estimate   =   -1060.17319492 Ry
     estimated scf accuracy    <       0.18237331 Ry

     iteration #  3     ecut=    20.00 Ry     beta= 0.70
     Davidson diagonalization with overlap
     ethr =  9.60E-04,  avg # of iterations =  2.0

     total cpu time spent up to now is        1.5 secs

     total energy              =   -1060.12023784 Ry
     Harris-Foulkes estimate   =   -1060.12447470 Ry
     estimated scf accuracy    <       0.01239480 Ry

     iteration #  4     ecut=    20.00 Ry     beta= 0.70
     Davidson diagonalization with overlap
     ethr =  6.52E-05,  avg # of iterations =  1.5

     total cpu time spent up to now is        1.6 secs

     total energy              =   -1060.12084379 Ry
     Harris-Foulkes estimate   =   -1060.12095674 Ry
     estimated scf accuracy    <       0.00035439 Ry

     iteration #  5     ecut=    20.00 Ry     beta= 0.70
     Davidson diagonalization with overlap
     ethr =  1.87E-06,  avg # of iterations =  2.2

     total cpu time spent up to now is        1.8 secs

     total energy              =   -1060.12089627 Ry
     Harris-Foulkes estimate   =   -1060.12089638 Ry
     estimated scf accuracy    <       0.00000539 Ry

     iteration #  6     ecut=    20.00 Ry     beta= 0.70
     Davidson diagonalization with overlap
     ethr =  2.84E-08,  avg # of iterations =  1.8

     total cpu time spent up to now is        1.9 secs

     total energy              =   -1060.12089674 Ry
     Harris-Foulkes estimate   =   -1060.12089674 Ry
     estimated scf accuracy    <       0.00000084 Ry

     iteration #  7     ecut=    20.00 Ry     beta= 0.70
     Davidson diagonalization with overlap
     ethr =  4.45E-09,  avg # of iterations =  2.0

     total cpu time spent up to now is        2.0 secs

     total energy              =   -1060.12089682 Ry
     Harris-Foulkes estimate   =   -1060.12089685 Ry
     estimated scf accuracy    <       0.00000004 Ry

     iteration #  8     ecut=    20.00 Ry     beta= 0.70
     Davidson diagonalization with overlap
     ethr =  1.96E-10,  avg # of iterations =  2.0

     total cpu time spent up to now is        2.2 secs

     End of self-consistent calculation

          k = 0.0000 0.0000 0.0000 (   113 PWs)   bands (ev):

    -3.1378  -3.1378  -3.1378  -2.9977  -2.9977   8.4501  45.6805  45.6805
    45.6805  49.4148  56.2935  59.3768  59.3768  59.3768

          k =-0.3333 0.3333-0.3333 (   117 PWs)   bands (ev):

    -4.6074  -4.6074  -3.7266  -3.0937  -3.0937  12.6935  28.9597  42.7622
    42.7622  49.8342  54.1140  57.7268  57.7268  64.0804

          k = 0.0000 0.6667 0.0000 (   129 PWs)   bands (ev):

    -9.4770  -6.5743  -6.4762  -6.4762  -4.4541  14.0449  31.5625  36.9420
    36.9420  46.7573  47.4576  66.0136  66.0136  66.9301

          k = 0.6667-0.0000 0.6667 (   122 PWs)   bands (ev):

    -8.0318  -5.7288  -4.4587  -4.1768  -3.4949  17.6397  28.5980  28.6756
    38.3948  47.3844  59.1873  61.4962  61.8528  64.0934

     the Fermi energy is    47.3867 ev

!    total energy              =   -1060.12089683 Ry
     Harris-Foulkes estimate   =   -1060.12089683 Ry
     estimated scf accuracy    <          2.1E-10 Ry

     total all-electron energy =    -48505.731208 Ry

     The total energy is the sum of the following terms:

     one-electron contribution =      13.83619020 Ry
     hartree contribution      =      22.28079794 Ry
     xc contribution           =     -62.54833795 Ry
     ewald contribution        =    -242.33311997 Ry
     one-center paw contrib.   =    -791.35296459 Ry
     smearing contrib. (-TS)   =      -0.00346246 Ry

     convergence has been achieved in   8 iterations

     Forces acting on atoms (cartesian axes, Ry/au):

     atom    1 type  1   force =     0.00000000    0.00000000    0.00000000

     Total force =     0.000000     Total SCF correction =     0.000000


     Computing stress (Cartesian axis) and pressure

          total   stress  (Ry/bohr**3)                   (kbar)     P=********
  -0.20072651   0.00000000   0.00000000     -29527.88      0.00      0.00
   0.00000000  -0.20072651   0.00000000          0.00 -29527.88      0.00
   0.00000000   0.00000000  -0.20072651          0.00      0.00 -29527.88


     Writing output data file Fr.save/

     init_run     :      0.20s CPU      0.22s WALL (       1 calls)
     electrons    :      0.95s CPU      1.08s WALL (       1 calls)
     forces       :      0.01s CPU      0.01s WALL (       1 calls)
     stress       :      0.01s CPU      0.01s WALL (       1 calls)

     Called by init_run:
     wfcinit      :      0.00s CPU      0.01s WALL (       1 calls)
     potinit      :      0.10s CPU      0.11s WALL (       1 calls)
     hinit0       :      0.08s CPU      0.08s WALL (       1 calls)

     Called by electrons:
     c_bands      :      0.11s CPU      0.13s WALL (       8 calls)
     sum_band     :      0.02s CPU      0.03s WALL (       8 calls)
     v_of_rho     :      0.01s CPU      0.01s WALL (       9 calls)
     newd         :      0.01s CPU      0.01s WALL (       9 calls)
     PAW_pot      :      0.88s CPU      1.00s WALL (       9 calls)
     mix_rho      :      0.00s CPU      0.00s WALL (       8 calls)

     Called by c_bands:
     init_us_2    :      0.00s CPU      0.00s WALL (      76 calls)
     cegterg      :      0.11s CPU      0.12s WALL (      32 calls)

     Called by sum_band:
     sum_band:bec :      0.00s CPU      0.00s WALL (      32 calls)
     addusdens    :      0.01s CPU      0.01s WALL (       8 calls)

     Called by *egterg:
     h_psi        :      0.06s CPU      0.07s WALL (     108 calls)
     s_psi        :      0.00s CPU      0.00s WALL (     108 calls)
     g_psi        :      0.00s CPU      0.00s WALL (      72 calls)
     cdiaghg      :      0.04s CPU      0.04s WALL (     104 calls)

     Called by h_psi:
     h_psi:pot    :      0.06s CPU      0.07s WALL (     108 calls)
     h_psi:calbec :      0.00s CPU      0.00s WALL (     108 calls)
     vloc_psi     :      0.05s CPU      0.06s WALL (     108 calls)
     add_vuspsi   :      0.00s CPU      0.00s WALL (     108 calls)

     General routines
     calbec       :      0.00s CPU      0.00s WALL (     160 calls)
     fft          :      0.01s CPU      0.01s WALL (     125 calls)
     ffts         :      0.00s CPU      0.00s WALL (       8 calls)
     fftw         :      0.06s CPU      0.06s WALL (    2728 calls)

     Parallel routines
     fft_scatt_xy :      0.01s CPU      0.01s WALL (    2861 calls)
     fft_scatt_yz :      0.02s CPU      0.03s WALL (    2861 calls)

     PWSCF        :     2.05s CPU         2.24s WALL


   This run was terminated on:  22:23:38   7Apr2024            

=------------------------------------------------------------------------------=
   JOB DONE.
=------------------------------------------------------------------------------=
