
     Program PWSCF v.6.3MaX starts on  7Apr2024 at 22:30:17 

     This program is part of the open-source Quantum ESPRESSO suite
     for quantum simulation of materials; please cite
         "P. Giannozzi et al., J. Phys.:Condens. Matter 21 395502 (2009);
         "P. Giannozzi et al., J. Phys.:Condens. Matter 29 465901 (2017);
          URL http://www.quantum-espresso.org", 
     in publications or presentations arising from this work. More details at
     http://www.quantum-espresso.org/quote

     Parallel version (MPI), running on     5 processors

     MPI processes distributed on     1 nodes
     R & G space division:  proc/nbgrp/npool/nimage =       5
     Waiting for input...
     Reading input from standard input

     Current dimensions of program PWSCF are:
     Max number of different atomic species (ntypx) = 10
     Max number of k-points (npk) =  40000
     Max angular momentum in pseudopotentials (lmaxx) =  3

     Subspace diagonalization in iterative solution of the eigenvalue problem:
     a serial algorithm will be used


     Parallelization info
     --------------------
     sticks:   dense  smooth     PW     G-vecs:    dense   smooth      PW
     Min          43      43     16                  445      445      91
     Max          45      45     18                  446      446      92
     Sum         223     223     85                 2229     2229     459



     bravais-lattice index     =            2
     lattice parameter (alat)  =       6.8300  a.u.
     unit-cell volume          =      79.6530 (a.u.)^3
     number of atoms/cell      =            1
     number of atomic types    =            1
     number of electrons       =        19.00
     number of Kohn-Sham states=           14
     kinetic-energy cutoff     =      35.0000  Ry
     charge density cutoff     =     140.0000  Ry
     convergence threshold     =      1.0E-08
     mixing beta               =       0.7000
     number of iterations used =            8  plain     mixing
     Exchange-correlation      = LDA ( 1  1  0  0 0 0)

     celldm(1)=   6.830000  celldm(2)=   0.000000  celldm(3)=   0.000000
     celldm(4)=   0.000000  celldm(5)=   0.000000  celldm(6)=   0.000000

     crystal axes: (cart. coord. in units of alat)
               a(1) = (  -0.500000   0.000000   0.500000 )  
               a(2) = (   0.000000   0.500000   0.500000 )  
               a(3) = (  -0.500000   0.500000   0.000000 )  

     reciprocal axes: (cart. coord. in units 2 pi/alat)
               b(1) = ( -1.000000 -1.000000  1.000000 )  
               b(2) = (  1.000000  1.000000  1.000000 )  
               b(3) = ( -1.000000  1.000000 -1.000000 )  


     PseudoPot. # 1 for Fr read from file:
     /home/lorenzo/pseudos/Fr/Fr.pz-spdn-rrkjus_psl.1.0.0.UPF
     MD5 check sum: 5665a43a3d1ea02b0b7dc7a0ae9ace04
     Pseudo is Ultrasoft + core correction, Zval = 19.0
     Generated using "atomic" code by A. Dal Corso v.6.2.2
     Using radial grid of 1287 points,  6 beta functions with: 
                l(1) =   0
                l(2) =   0
                l(3) =   1
                l(4) =   1
                l(5) =   2
                l(6) =   2
     Q(r) pseudized with 0 coefficients 


     atomic species   valence    mass     pseudopotential
        Fr            19.00   223.00000     Fr( 1.00)

     48 Sym. Ops., with inversion, found



   Cartesian axes

     site n.     atom                  positions (alat units)
         1           Fr  tau(   1) = (   0.0000000   0.0000000   0.0000000  )

     number of k points=    16  gaussian smearing, width (Ry)=  0.0100
                       cart. coord. in units 2pi/alat
        k(    1) = (   0.0000000   0.0000000   0.0000000), wk =   0.0092593
        k(    2) = (  -0.1666667   0.1666667  -0.1666667), wk =   0.0740741
        k(    3) = (  -0.3333333   0.3333333  -0.3333333), wk =   0.0740741
        k(    4) = (   0.5000000  -0.5000000   0.5000000), wk =   0.0370370
        k(    5) = (   0.0000000   0.3333333   0.0000000), wk =   0.0555556
        k(    6) = (  -0.1666667   0.5000000  -0.1666667), wk =   0.2222222
        k(    7) = (   0.6666667  -0.3333333   0.6666667), wk =   0.2222222
        k(    8) = (   0.5000000  -0.1666667   0.5000000), wk =   0.2222222
        k(    9) = (   0.3333333   0.0000000   0.3333333), wk =   0.1111111
        k(   10) = (   0.0000000   0.6666667   0.0000000), wk =   0.0555556
        k(   11) = (   0.8333333  -0.1666667   0.8333333), wk =   0.2222222
        k(   12) = (   0.6666667  -0.0000000   0.6666667), wk =   0.1111111
        k(   13) = (   0.0000000  -1.0000000   0.0000000), wk =   0.0277778
        k(   14) = (   0.6666667  -0.3333333   1.0000000), wk =   0.2222222
        k(   15) = (   0.5000000  -0.1666667   0.8333333), wk =   0.2222222
        k(   16) = (  -0.3333333  -1.0000000   0.0000000), wk =   0.1111111

     Dense  grid:     2229 G-vectors     FFT dimensions: (  20,  20,  20)

     Estimated max dynamical RAM per process >       2.91 MB

     Estimated total dynamical RAM >      14.54 MB

     Check: negative/imaginary core charge=   -0.000020    0.000000

     Initial potential from superposition of free atoms

     starting charge   18.97647, renormalised to   19.00000
     Starting wfcs are   10 randomized atomic wfcs +    4 random wfcs

     total cpu time spent up to now is        1.1 secs

     Self-consistent Calculation

     iteration #  1     ecut=    35.00 Ry     beta= 0.70
     Davidson diagonalization with overlap
     ethr =  1.00E-02,  avg # of iterations =  4.7

     Threshold (ethr) on eigenvalues was too large:
     Diagonalizing with lowered threshold

     Davidson diagonalization with overlap
     ethr =  3.33E-04,  avg # of iterations =  1.0

     total cpu time spent up to now is        1.5 secs

     total energy              =    -281.87636814 Ry
     Harris-Foulkes estimate   =    -281.92721727 Ry
     estimated scf accuracy    <       0.06398018 Ry

     iteration #  2     ecut=    35.00 Ry     beta= 0.70
     Davidson diagonalization with overlap
     ethr =  3.37E-04,  avg # of iterations =  2.0

     total cpu time spent up to now is        1.8 secs

     total energy              =    -281.89300087 Ry
     Harris-Foulkes estimate   =    -281.89540784 Ry
     estimated scf accuracy    <       0.00341013 Ry

     iteration #  3     ecut=    35.00 Ry     beta= 0.70
     Davidson diagonalization with overlap
     ethr =  1.79E-05,  avg # of iterations =  2.3

     total cpu time spent up to now is        2.2 secs

     total energy              =    -281.89372880 Ry
     Harris-Foulkes estimate   =    -281.89375712 Ry
     estimated scf accuracy    <       0.00008426 Ry

     iteration #  4     ecut=    35.00 Ry     beta= 0.70
     Davidson diagonalization with overlap
     ethr =  4.43E-07,  avg # of iterations =  2.4

     total cpu time spent up to now is        2.5 secs

     total energy              =    -281.89373412 Ry
     Harris-Foulkes estimate   =    -281.89373415 Ry
     estimated scf accuracy    <       0.00000042 Ry

     iteration #  5     ecut=    35.00 Ry     beta= 0.70
     Davidson diagonalization with overlap
     ethr =  2.20E-09,  avg # of iterations =  2.0

     total cpu time spent up to now is        2.7 secs

     total energy              =    -281.89373421 Ry
     Harris-Foulkes estimate   =    -281.89373422 Ry
     estimated scf accuracy    <       0.00000001 Ry

     iteration #  6     ecut=    35.00 Ry     beta= 0.70
     Davidson diagonalization with overlap
     ethr =  7.57E-11,  avg # of iterations =  1.8

     total cpu time spent up to now is        2.9 secs

     End of self-consistent calculation

          k = 0.0000 0.0000 0.0000 (   283 PWs)   bands (ev):

    -9.6289  -9.6289  -9.6289  -9.4551  -9.4551   9.0556  46.7470  46.7470
    46.7470  48.1925  54.5096  54.5096  54.5096  57.4562

          k =-0.1667 0.1667-0.1667 (   277 PWs)   bands (ev):

    -9.7814  -9.4595  -9.4595  -9.1950  -9.1950  10.1656  38.5962  45.4549
    45.4549  48.1289  54.8457  55.9627  55.9627  56.8269

          k =-0.3333 0.3333-0.3333 (   287 PWs)   bands (ev):

    -9.7211  -9.6820  -9.6820  -9.2310  -9.2310  13.4512  28.8592  43.4227
    43.4227  48.1237  52.1158  53.1308  53.1308  61.4984

          k = 0.5000-0.5000 0.5000 (   272 PWs)   bands (ev):

    -9.6306  -9.6306  -9.5986  -8.7512  -8.7512  17.0652  22.9963  42.5404
    42.5404  47.9313  51.3840  52.2796  52.2796  65.1443

          k = 0.0000 0.3333 0.0000 (   291 PWs)   bands (ev):

    -9.9602  -9.6611  -9.6611  -9.5392  -9.2449  10.5348  41.9632  41.9632
    42.0225  46.0663  49.4712  58.8280  59.2902  59.2902

          k =-0.1667 0.5000-0.1667 (   286 PWs)   bands (ev):

    -9.8772  -9.6148  -9.5904  -9.1747  -9.1623  13.1089  32.5145  39.8313
    40.1403  45.9178  50.6661  58.1891  58.2954  59.0861

          k = 0.6667-0.3333 0.6667 (   277 PWs)   bands (ev):

    -9.7942  -9.5196  -9.4895  -8.9733  -8.7927  17.2108  24.9433  37.0103
    39.8673  45.5496  55.5613  55.8172  58.4650  59.0782

          k = 0.5000-0.1667 0.5000 (   280 PWs)   bands (ev):

    -9.7737  -9.6058  -9.4594  -9.0848  -8.9245  15.8257  27.0932  35.5998
    42.2798  46.9084  53.7731  54.6135  60.3474  60.4898

          k = 0.3333 0.0000 0.3333 (   279 PWs)   bands (ev):

    -9.7387  -9.4580  -9.3826  -9.3752  -9.0583  12.0100  35.0950  37.1007
    46.0650  50.1421  51.2022  54.1355  55.4669  57.5413

          k = 0.0000 0.6667 0.0000 (   274 PWs)   bands (ev):

   -10.0382  -9.3774  -9.0273  -8.8914  -8.8914  14.9451  32.5031  37.0245
    37.0245  44.0959  44.1047  64.6996  64.9676  64.9676

          k = 0.8333-0.1667 0.8333 (   272 PWs)   bands (ev):

    -9.9507  -9.6245  -9.0349  -8.7507  -8.6524  18.5527  27.5239  32.1294
    36.4923  43.7013  48.9396  61.5560  63.2528  68.5661

          k = 0.6667-0.0000 0.6667 (   284 PWs)   bands (ev):

    -9.9445  -9.3523  -9.2937  -9.2808  -9.1548  19.2676  28.0442  28.0827
    38.5143  44.6115  57.4339  59.1350  59.9495  62.7662

          k = 0.0000-1.0000 0.0000 (   286 PWs)   bands (ev):

   -10.3546  -9.9457  -9.0720  -8.7213  -8.7213  20.5123  24.6326  35.1825
    35.1825  42.7193  43.2844  64.1735  70.0739  70.9412

          k = 0.6667-0.3333 1.0000 (   274 PWs)   bands (ev):

    -9.7126  -9.5801  -9.1691  -9.0132  -8.8433  16.2518  30.0639  32.6416
    37.3552  49.4163  50.0795  55.1007  62.6651  64.8145

          k = 0.5000-0.1667 0.8333 (   274 PWs)   bands (ev):

    -9.6559  -9.4912  -9.2502  -9.0893  -8.7842  19.3502  26.0871  31.5251
    35.2787  49.3137  52.9479  58.4035  58.5340  64.2117

          k =-0.3333-1.0000 0.0000 (   274 PWs)   bands (ev):

    -9.7432  -9.6545  -9.0891  -9.0466  -8.6299  20.7251  26.3851  30.9952
    32.5654  49.1192  49.1711  58.4204  61.1940  68.4964

     the Fermi energy is    46.7568 ev

!    total energy              =    -281.89373421 Ry
     Harris-Foulkes estimate   =    -281.89373421 Ry
     estimated scf accuracy    <          1.0E-09 Ry

     The total energy is the sum of the following terms:

     one-electron contribution =      -3.46054399 Ry
     hartree contribution      =      27.54784034 Ry
     xc contribution           =     -63.64765171 Ry
     ewald contribution        =    -242.33311995 Ry
     smearing contrib. (-TS)   =      -0.00025891 Ry

     convergence has been achieved in   6 iterations

     Forces acting on atoms (cartesian axes, Ry/au):

     atom    1 type  1   force =     0.00000000    0.00000000    0.00000000

     Total force =     0.000000     Total SCF correction =     0.000000


     Computing stress (Cartesian axis) and pressure

          total   stress  (Ry/bohr**3)                   (kbar)     P= 1091.30
   0.00741849  -0.00000000  -0.00000000       1091.30     -0.00     -0.00
  -0.00000000   0.00741849   0.00000000         -0.00   1091.30      0.00
  -0.00000000   0.00000000   0.00741849         -0.00      0.00   1091.30


     Writing output data file Fr.save/

     init_run     :      0.17s CPU      0.17s WALL (       1 calls)
     electrons    :      1.68s CPU      1.78s WALL (       1 calls)
     forces       :      0.02s CPU      0.02s WALL (       1 calls)
     stress       :      0.07s CPU      0.07s WALL (       1 calls)

     Called by init_run:
     wfcinit      :      0.03s CPU      0.04s WALL (       1 calls)
     potinit      :      0.00s CPU      0.00s WALL (       1 calls)
     hinit0       :      0.13s CPU      0.13s WALL (       1 calls)

     Called by electrons:
     c_bands      :      1.39s CPU      1.48s WALL (       7 calls)
     sum_band     :      0.24s CPU      0.25s WALL (       7 calls)
     v_of_rho     :      0.00s CPU      0.00s WALL (       7 calls)
     newd         :      0.03s CPU      0.03s WALL (       7 calls)
     mix_rho      :      0.01s CPU      0.01s WALL (       7 calls)

     Called by c_bands:
     init_us_2    :      0.02s CPU      0.02s WALL (     272 calls)
     cegterg      :      1.34s CPU      1.43s WALL (     112 calls)

     Called by sum_band:
     sum_band:bec :      0.00s CPU      0.00s WALL (     112 calls)
     addusdens    :      0.03s CPU      0.03s WALL (       7 calls)

     Called by *egterg:
     h_psi        :      0.91s CPU      0.97s WALL (     386 calls)
     s_psi        :      0.01s CPU      0.01s WALL (     386 calls)
     g_psi        :      0.00s CPU      0.00s WALL (     258 calls)
     cdiaghg      :      0.25s CPU      0.26s WALL (     354 calls)

     Called by h_psi:
     h_psi:pot    :      0.90s CPU      0.97s WALL (     386 calls)
     h_psi:calbec :      0.05s CPU      0.05s WALL (     386 calls)
     vloc_psi     :      0.84s CPU      0.90s WALL (     386 calls)
     add_vuspsi   :      0.01s CPU      0.01s WALL (     386 calls)

     General routines
     calbec       :      0.08s CPU      0.08s WALL (     578 calls)
     fft          :      0.01s CPU      0.01s WALL (      38 calls)
     ffts         :      0.00s CPU      0.00s WALL (       7 calls)
     fftw         :      0.98s CPU      1.04s WALL (    9710 calls)

     Parallel routines
     fft_scatt_xy :      0.04s CPU      0.05s WALL (    9755 calls)
     fft_scatt_yz :      0.65s CPU      0.68s WALL (    9755 calls)

     PWSCF        :     2.94s CPU         3.12s WALL


   This run was terminated on:  22:30:20   7Apr2024            

=------------------------------------------------------------------------------=
   JOB DONE.
=------------------------------------------------------------------------------=
