
     Program PWSCF v.6.3MaX starts on  7Apr2024 at 22:37:38 

     This program is part of the open-source Quantum ESPRESSO suite
     for quantum simulation of materials; please cite
         "P. Giannozzi et al., J. Phys.:Condens. Matter 21 395502 (2009);
         "P. Giannozzi et al., J. Phys.:Condens. Matter 29 465901 (2017);
          URL http://www.quantum-espresso.org", 
     in publications or presentations arising from this work. More details at
     http://www.quantum-espresso.org/quote

     Parallel version (MPI), running on     5 processors

     MPI processes distributed on     1 nodes
     R & G space division:  proc/nbgrp/npool/nimage =       5
     Waiting for input...
     Reading input from standard input

     Current dimensions of program PWSCF are:
     Max number of different atomic species (ntypx) = 10
     Max number of k-points (npk) =  40000
     Max angular momentum in pseudopotentials (lmaxx) =  3

     Subspace diagonalization in iterative solution of the eigenvalue problem:
     a serial algorithm will be used


     Parallelization info
     --------------------
     sticks:   dense  smooth     PW     G-vecs:    dense   smooth      PW
     Min          62      62     21                  765      765     148
     Max          63      63     22                  770      770     151
     Sum         313     313    109                 3839     3839     749



     bravais-lattice index     =            2
     lattice parameter (alat)  =       6.8300  a.u.
     unit-cell volume          =      79.6530 (a.u.)^3
     number of atoms/cell      =            1
     number of atomic types    =            1
     number of electrons       =        19.00
     number of Kohn-Sham states=           14
     kinetic-energy cutoff     =      50.0000  Ry
     charge density cutoff     =     200.0000  Ry
     convergence threshold     =      1.0E-08
     mixing beta               =       0.7000
     number of iterations used =            8  plain     mixing
     Exchange-correlation      = PBE ( 1  4  3  4 0 0)

     celldm(1)=   6.830000  celldm(2)=   0.000000  celldm(3)=   0.000000
     celldm(4)=   0.000000  celldm(5)=   0.000000  celldm(6)=   0.000000

     crystal axes: (cart. coord. in units of alat)
               a(1) = (  -0.500000   0.000000   0.500000 )  
               a(2) = (   0.000000   0.500000   0.500000 )  
               a(3) = (  -0.500000   0.500000   0.000000 )  

     reciprocal axes: (cart. coord. in units 2 pi/alat)
               b(1) = ( -1.000000 -1.000000  1.000000 )  
               b(2) = (  1.000000  1.000000  1.000000 )  
               b(3) = ( -1.000000  1.000000 -1.000000 )  


     PseudoPot. # 1 for Fr read from file:
     /home/lorenzo/pseudos/Fr/Fr.pbe-spdn-rrkjus_psl.1.0.0.UPF
     MD5 check sum: 07cabfa18982bd6b5b9d8ae5689d9732
     Pseudo is Ultrasoft + core correction, Zval = 19.0
     Generated using "atomic" code by A. Dal Corso v.6.2.2
     Using radial grid of 1287 points,  6 beta functions with: 
                l(1) =   0
                l(2) =   0
                l(3) =   1
                l(4) =   1
                l(5) =   2
                l(6) =   2
     Q(r) pseudized with 0 coefficients 


     atomic species   valence    mass     pseudopotential
        Fr            19.00   223.00000     Fr( 1.00)

     48 Sym. Ops., with inversion, found



   Cartesian axes

     site n.     atom                  positions (alat units)
         1           Fr  tau(   1) = (   0.0000000   0.0000000   0.0000000  )

     number of k points=    29  gaussian smearing, width (Ry)=  0.0100
                       cart. coord. in units 2pi/alat
        k(    1) = (   0.0000000   0.0000000   0.0000000), wk =   0.0039062
        k(    2) = (  -0.1250000   0.1250000  -0.1250000), wk =   0.0312500
        k(    3) = (  -0.2500000   0.2500000  -0.2500000), wk =   0.0312500
        k(    4) = (  -0.3750000   0.3750000  -0.3750000), wk =   0.0312500
        k(    5) = (   0.5000000  -0.5000000   0.5000000), wk =   0.0156250
        k(    6) = (   0.0000000   0.2500000   0.0000000), wk =   0.0234375
        k(    7) = (  -0.1250000   0.3750000  -0.1250000), wk =   0.0937500
        k(    8) = (  -0.2500000   0.5000000  -0.2500000), wk =   0.0937500
        k(    9) = (   0.6250000  -0.3750000   0.6250000), wk =   0.0937500
        k(   10) = (   0.5000000  -0.2500000   0.5000000), wk =   0.0937500
        k(   11) = (   0.3750000  -0.1250000   0.3750000), wk =   0.0937500
        k(   12) = (   0.2500000   0.0000000   0.2500000), wk =   0.0468750
        k(   13) = (   0.0000000   0.5000000   0.0000000), wk =   0.0234375
        k(   14) = (  -0.1250000   0.6250000  -0.1250000), wk =   0.0937500
        k(   15) = (   0.7500000  -0.2500000   0.7500000), wk =   0.0937500
        k(   16) = (   0.6250000  -0.1250000   0.6250000), wk =   0.0937500
        k(   17) = (   0.5000000   0.0000000   0.5000000), wk =   0.0468750
        k(   18) = (   0.0000000   0.7500000   0.0000000), wk =   0.0234375
        k(   19) = (   0.8750000  -0.1250000   0.8750000), wk =   0.0937500
        k(   20) = (   0.7500000   0.0000000   0.7500000), wk =   0.0468750
        k(   21) = (   0.0000000  -1.0000000   0.0000000), wk =   0.0117188
        k(   22) = (  -0.2500000   0.5000000   0.0000000), wk =   0.0937500
        k(   23) = (   0.6250000  -0.3750000   0.8750000), wk =   0.1875000
        k(   24) = (   0.5000000  -0.2500000   0.7500000), wk =   0.0937500
        k(   25) = (   0.7500000  -0.2500000   1.0000000), wk =   0.0937500
        k(   26) = (   0.6250000  -0.1250000   0.8750000), wk =   0.1875000
        k(   27) = (   0.5000000   0.0000000   0.7500000), wk =   0.0937500
        k(   28) = (  -0.2500000  -1.0000000   0.0000000), wk =   0.0468750
        k(   29) = (  -0.5000000  -1.0000000   0.0000000), wk =   0.0234375

     Dense  grid:     3839 G-vectors     FFT dimensions: (  24,  24,  24)

     Estimated max dynamical RAM per process >       4.75 MB

     Estimated total dynamical RAM >      23.74 MB

     Check: negative/imaginary core charge=   -0.000008    0.000000

     Initial potential from superposition of free atoms

     starting charge   18.97009, renormalised to   19.00000
     Starting wfcs are   10 randomized atomic wfcs +    4 random wfcs

     total cpu time spent up to now is        1.1 secs

     Self-consistent Calculation

     iteration #  1     ecut=    50.00 Ry     beta= 0.70
     Davidson diagonalization with overlap
     ethr =  1.00E-02,  avg # of iterations =  4.6

     Threshold (ethr) on eigenvalues was too large:
     Diagonalizing with lowered threshold

     Davidson diagonalization with overlap
     ethr =  1.07E-04,  avg # of iterations =  1.7

     total cpu time spent up to now is        1.8 secs

     total energy              =    -282.82325536 Ry
     Harris-Foulkes estimate   =    -282.83588306 Ry
     estimated scf accuracy    <       0.02019129 Ry

     iteration #  2     ecut=    50.00 Ry     beta= 0.70
     Davidson diagonalization with overlap
     ethr =  1.06E-04,  avg # of iterations =  2.0

     total cpu time spent up to now is        2.0 secs

     total energy              =    -282.82623520 Ry
     Harris-Foulkes estimate   =    -282.82667091 Ry
     estimated scf accuracy    <       0.00066573 Ry

     iteration #  3     ecut=    50.00 Ry     beta= 0.70
     Davidson diagonalization with overlap
     ethr =  3.50E-06,  avg # of iterations =  2.6

     total cpu time spent up to now is        2.3 secs

     total energy              =    -282.82632994 Ry
     Harris-Foulkes estimate   =    -282.82634677 Ry
     estimated scf accuracy    <       0.00003894 Ry

     iteration #  4     ecut=    50.00 Ry     beta= 0.70
     Davidson diagonalization with overlap
     ethr =  2.05E-07,  avg # of iterations =  1.9

     total cpu time spent up to now is        2.5 secs

     total energy              =    -282.82633351 Ry
     Harris-Foulkes estimate   =    -282.82633351 Ry
     estimated scf accuracy    <       0.00000013 Ry

     iteration #  5     ecut=    50.00 Ry     beta= 0.70
     Davidson diagonalization with overlap
     ethr =  6.79E-10,  avg # of iterations =  2.5

     total cpu time spent up to now is        2.8 secs

     End of self-consistent calculation

          k = 0.0000 0.0000 0.0000 (   531 PWs)   bands (ev):

    -9.3287  -9.3287  -9.3287  -8.9854  -8.9854   9.4637  47.2863  47.2863
    47.2863  48.3055  53.8798  53.8798  53.8798  57.8361

          k =-0.1250 0.1250-0.1250 (   495 PWs)   bands (ev):

    -9.3226  -9.2819  -9.2819  -8.9810  -8.9810  10.0904  41.5482  46.3945
    46.3945  48.2017  55.4068  55.4068  55.7603  56.8509

          k =-0.2500 0.2500-0.2500 (   483 PWs)   bands (ev):

    -9.3148  -9.2355  -9.2355  -8.9092  -8.9092  11.9709  33.8449  44.8053
    44.8053  48.2378  53.4360  54.0840  54.0840  58.7892

          k =-0.3750 0.3750-0.3750 (   477 PWs)   bands (ev):

    -9.3134  -9.2562  -9.2562  -8.7655  -8.7655  14.9876  27.1068  43.5168
    43.5168  48.1584  51.7658  52.3762  52.3762  62.8791

          k = 0.5000-0.5000 0.5000 (   476 PWs)   bands (ev):

    -9.3151  -9.2734  -9.2734  -8.6975  -8.6975  17.5441  23.2829  43.0240
    43.0240  48.0709  51.2577  51.8201  51.8201  65.4789

          k = 0.0000 0.2500 0.0000 (   495 PWs)   bands (ev):

    -9.3753  -9.2314  -9.2314  -9.0341  -8.9428  10.2990  43.8622  43.8622
    44.3786  46.6875  51.9567  56.8868  57.7198  57.7198

          k =-0.1250 0.3750-0.1250 (   482 PWs)   bands (ev):

    -9.3871  -9.1703  -9.1527  -9.0332  -8.8733  11.7625  36.6709  41.9131
    43.4191  47.5226  50.1358  56.6219  58.2530  58.5795

          k =-0.2500 0.5000-0.2500 (   471 PWs)   bands (ev):

    -9.3557  -9.2031  -9.1569  -8.9075  -8.7447  14.4240  29.6386  40.9572
    41.1879  46.3197  54.1097  55.8980  55.9024  57.1735

          k = 0.6250-0.3750 0.6250 (   473 PWs)   bands (ev):

    -9.3258  -9.2274  -9.1876  -8.7903  -8.6932  17.5861  24.4387  39.2002
    41.2192  46.1824  54.0554  54.1652  56.5340  60.9715

          k = 0.5000-0.2500 0.5000 (   477 PWs)   bands (ev):

    -9.2873  -9.2487  -9.1906  -8.7819  -8.7506  16.6185  25.8345  38.1947
    42.7830  47.0995  52.8665  53.2675  57.9721  61.9829

          k = 0.3750-0.1250 0.3750 (   481 PWs)   bands (ev):

    -9.2912  -9.2328  -9.1680  -8.9561  -8.8069  13.4129  31.8863  38.3696
    45.4153  49.0531  51.8264  53.1848  57.3191  58.8564

          k = 0.2500 0.0000 0.2500 (   481 PWs)   bands (ev):

    -9.3233  -9.2215  -9.2201  -9.0228  -8.9093  11.1359  38.7051  40.1520
    47.7065  49.9371  52.3039  53.9672  54.4911  56.7754

          k = 0.0000 0.5000 0.0000 (   480 PWs)   bands (ev):

    -9.4916  -9.1653  -8.9919  -8.9919  -8.8445  12.8068  38.1030  39.5268
    39.5268  44.7099  45.8702  62.0991  62.0991  62.8630

          k =-0.1250 0.6250-0.1250 (   474 PWs)   bands (ev):

    -9.4976  -9.2200  -8.9475  -8.8849  -8.7359  15.0655  32.4283  36.8421
    38.2658  44.4034  47.8606  60.7028  61.3866  63.7054

          k = 0.7500-0.2500 0.7500 (   472 PWs)   bands (ev):

    -9.4312  -9.1765  -8.9771  -8.8761  -8.6822  18.1537  27.1196  33.8789
    38.3686  44.3441  53.4840  58.5852  59.2507  63.9836

          k = 0.6250-0.1250 0.6250 (   473 PWs)   bands (ev):

    -9.3606  -9.0870  -9.0004  -8.9062  -8.7805  18.9222  26.2106  32.0347
    39.8798  45.1226  57.2584  57.4771  59.7329  62.5646

          k = 0.5000 0.0000 0.5000 (   481 PWs)   bands (ev):

    -9.2861  -9.1851  -9.0038  -8.9713  -8.8188  15.9765  30.4736  32.2619
    42.5699  46.7795  55.1691  56.5509  57.4774  59.3349

          k = 0.0000 0.7500 0.0000 (   472 PWs)   bands (ev):

    -9.6052  -9.3114  -8.7454  -8.7438  -8.7438  16.9098  30.4377  36.5938
    36.5938  43.3961  43.5225  64.5245  66.8925  66.8925

          k = 0.8750-0.1250 0.8750 (   472 PWs)   bands (ev):

    -9.5767  -9.3185  -8.7709  -8.7204  -8.6656  19.6274  27.1471  33.0422
    36.3031  43.2719  46.7589  62.7213  65.5307  69.3596

          k = 0.7500 0.0000 0.7500 (   470 PWs)   bands (ev):

    -9.4646  -9.1805  -8.8439  -8.8261  -8.7329  20.8620  26.8811  29.1672
    37.4690  43.8269  52.9518  60.5807  62.7970  65.0708

          k = 0.0000-1.0000 0.0000 (   468 PWs)   bands (ev):

    -9.6533  -9.3766  -8.7037  -8.6387  -8.6387  21.0830  24.9310  35.5657
    35.5657  42.7329  43.1284  64.3682  70.3533  71.3263

          k =-0.2500 0.5000 0.0000 (   478 PWs)   bands (ev):

    -9.3874  -9.1865  -9.0511  -9.0019  -8.7932  13.6250  34.1586  36.2127
    41.9051  48.9177  48.9696  55.4466  59.1100  61.9670

          k = 0.6250-0.3750 0.8750 (   479 PWs)   bands (ev):

    -9.3189  -9.2282  -9.0468  -8.8909  -8.7440  16.5499  28.5420  34.8156
    39.2000  48.2555  52.3576  55.2837  59.8502  62.5425

          k = 0.5000-0.2500 0.7500 (   476 PWs)   bands (ev):

    -9.2870  -9.2419  -9.0169  -8.8859  -8.7182  18.9045  25.0594  34.7696
    37.9814  48.0122  52.2315  60.0626  60.4980  61.2230

          k = 0.7500-0.2500 1.0000 (   471 PWs)   bands (ev):

    -9.4762  -9.2563  -8.9301  -8.7476  -8.7286  17.5974  29.8623  33.5758
    35.5223  47.3939  47.4067  58.2027  65.9964  66.1078

          k = 0.6250-0.1250 0.8750 (   477 PWs)   bands (ev):

    -9.3718  -9.1893  -8.9829  -8.8381  -8.6853  20.2597  27.1776  30.7042
    34.8414  47.7366  53.2519  56.1813  61.4246  65.6885

          k = 0.5000 0.0000 0.7500 (   479 PWs)   bands (ev):

    -9.2958  -9.1550  -9.0304  -8.8691  -8.7546  19.3310  28.5171  29.6089
    36.4169  48.8326  54.0904  56.3492  60.0368  63.4044

          k =-0.2500-1.0000 0.0000 (   478 PWs)   bands (ev):

    -9.5146  -9.3045  -8.7974  -8.7694  -8.6390  21.2358  25.9139  32.6452
    33.5086  46.8771  46.8831  60.6805  64.3773  68.4308

          k =-0.5000-1.0000 0.0000 (   464 PWs)   bands (ev):

    -9.2056  -9.1634  -9.1634  -8.8594  -8.6378  21.4038  28.6775  28.6775
    32.1415  53.3744  53.5083  53.5083  56.5416  70.1659

     the Fermi energy is    47.1684 ev

!    total energy              =    -282.82633356 Ry
     Harris-Foulkes estimate   =    -282.82633356 Ry
     estimated scf accuracy    <          6.5E-09 Ry

     The total energy is the sum of the following terms:

     one-electron contribution =      -4.03114676 Ry
     hartree contribution      =      28.11895717 Ry
     xc contribution           =     -64.58077114 Ry
     ewald contribution        =    -242.33311993 Ry
     smearing contrib. (-TS)   =      -0.00025289 Ry

     convergence has been achieved in   5 iterations

     Forces acting on atoms (cartesian axes, Ry/au):

     atom    1 type  1   force =     0.00000000    0.00000000    0.00000000

     Total force =     0.000000     Total SCF correction =     0.000000


     Computing stress (Cartesian axis) and pressure

          total   stress  (Ry/bohr**3)                   (kbar)     P= 7065.67
   0.04803146   0.00000000  -0.00000000       7065.67      0.00     -0.00
   0.00000000   0.04803146   0.00000000          0.00   7065.67      0.00
  -0.00000000   0.00000000   0.04803146         -0.00      0.00   7065.67


     Writing output data file Fr.save/

     init_run     :      0.22s CPU      0.23s WALL (       1 calls)
     electrons    :      1.53s CPU      1.65s WALL (       1 calls)
     forces       :      0.03s CPU      0.04s WALL (       1 calls)
     stress       :      0.08s CPU      0.08s WALL (       1 calls)

     Called by init_run:
     wfcinit      :      0.07s CPU      0.08s WALL (       1 calls)
     potinit      :      0.01s CPU      0.01s WALL (       1 calls)
     hinit0       :      0.13s CPU      0.13s WALL (       1 calls)

     Called by electrons:
     c_bands      :      1.28s CPU      1.38s WALL (       6 calls)
     sum_band     :      0.21s CPU      0.23s WALL (       6 calls)
     v_of_rho     :      0.02s CPU      0.02s WALL (       6 calls)
     newd         :      0.02s CPU      0.02s WALL (       6 calls)
     mix_rho      :      0.00s CPU      0.00s WALL (       6 calls)

     Called by c_bands:
     init_us_2    :      0.03s CPU      0.03s WALL (     435 calls)
     cegterg      :      1.25s CPU      1.34s WALL (     174 calls)

     Called by sum_band:
     sum_band:bec :      0.00s CPU      0.00s WALL (     174 calls)
     addusdens    :      0.02s CPU      0.02s WALL (       6 calls)

     Called by *egterg:
     h_psi        :      0.86s CPU      0.93s WALL (     644 calls)
     s_psi        :      0.03s CPU      0.03s WALL (     644 calls)
     g_psi        :      0.00s CPU      0.00s WALL (     441 calls)
     cdiaghg      :      0.25s CPU      0.26s WALL (     586 calls)

     Called by h_psi:
     h_psi:pot    :      0.85s CPU      0.92s WALL (     644 calls)
     h_psi:calbec :      0.04s CPU      0.04s WALL (     644 calls)
     vloc_psi     :      0.78s CPU      0.85s WALL (     644 calls)
     add_vuspsi   :      0.03s CPU      0.03s WALL (     644 calls)

     General routines
     calbec       :      0.07s CPU      0.08s WALL (     963 calls)
     fft          :      0.01s CPU      0.01s WALL (      93 calls)
     ffts         :      0.00s CPU      0.00s WALL (       6 calls)
     fftw         :      0.86s CPU      0.94s WALL (   15458 calls)

     Parallel routines
     fft_scatt_xy :      0.08s CPU      0.09s WALL (   15557 calls)
     fft_scatt_yz :      0.22s CPU      0.24s WALL (   15557 calls)

     PWSCF        :     2.80s CPU         2.99s WALL


   This run was terminated on:  22:37:41   7Apr2024            

=------------------------------------------------------------------------------=
   JOB DONE.
=------------------------------------------------------------------------------=
