
     Program PWSCF v.6.3MaX starts on  7Apr2024 at 22:16:51 

     This program is part of the open-source Quantum ESPRESSO suite
     for quantum simulation of materials; please cite
         "P. Giannozzi et al., J. Phys.:Condens. Matter 21 395502 (2009);
         "P. Giannozzi et al., J. Phys.:Condens. Matter 29 465901 (2017);
          URL http://www.quantum-espresso.org", 
     in publications or presentations arising from this work. More details at
     http://www.quantum-espresso.org/quote

     Parallel version (MPI), running on     5 processors

     MPI processes distributed on     1 nodes
     R & G space division:  proc/nbgrp/npool/nimage =       5
     Waiting for input...
     Reading input from standard input

     Current dimensions of program PWSCF are:
     Max number of different atomic species (ntypx) = 10
     Max number of k-points (npk) =  40000
     Max angular momentum in pseudopotentials (lmaxx) =  3
               file Fr.pz-spdn-kjpaw_psl.1.0.0.UPF: wavefunction(s)  6P renormalized

     Subspace diagonalization in iterative solution of the eigenvalue problem:
     a serial algorithm will be used


     Parallelization info
     --------------------
     sticks:   dense  smooth     PW     G-vecs:    dense   smooth      PW
     Min         129     129     39                 2168     2168     365
     Max         130     130     40                 2171     2171     368
     Sum         649     649    199                10849    10849    1837



     bravais-lattice index     =            2
     lattice parameter (alat)  =       6.8300  a.u.
     unit-cell volume          =      79.6530 (a.u.)^3
     number of atoms/cell      =            1
     number of atomic types    =            1
     number of electrons       =        19.00
     number of Kohn-Sham states=           14
     kinetic-energy cutoff     =     100.0000  Ry
     charge density cutoff     =     400.0000  Ry
     convergence threshold     =      1.0E-08
     mixing beta               =       0.7000
     number of iterations used =            8  plain     mixing
     Exchange-correlation      = SLA PZ NOGX NOGC ( 1  1  0  0 0 0)

     celldm(1)=   6.830000  celldm(2)=   0.000000  celldm(3)=   0.000000
     celldm(4)=   0.000000  celldm(5)=   0.000000  celldm(6)=   0.000000

     crystal axes: (cart. coord. in units of alat)
               a(1) = (  -0.500000   0.000000   0.500000 )  
               a(2) = (   0.000000   0.500000   0.500000 )  
               a(3) = (  -0.500000   0.500000   0.000000 )  

     reciprocal axes: (cart. coord. in units 2 pi/alat)
               b(1) = ( -1.000000 -1.000000  1.000000 )  
               b(2) = (  1.000000  1.000000  1.000000 )  
               b(3) = ( -1.000000  1.000000 -1.000000 )  


     PseudoPot. # 1 for Fr read from file:
     /home/lorenzo/pseudos/Fr/Fr.pz-spdn-kjpaw_psl.1.0.0.UPF
     MD5 check sum: 60dafd115682613df3cc92ec23a62a32
     Pseudo is Projector augmented-wave + core cor, Zval = 19.0
     Generated using "atomic" code by A. Dal Corso v.6.2.2
     Shape of augmentation charge: PSQ
     Using radial grid of 1287 points,  6 beta functions with: 
                l(1) =   0
                l(2) =   0
                l(3) =   1
                l(4) =   1
                l(5) =   2
                l(6) =   2
     Q(r) pseudized with 0 coefficients 


     atomic species   valence    mass     pseudopotential
        Fr            19.00   223.00000     Fr( 1.00)

     48 Sym. Ops., with inversion, found



   Cartesian axes

     site n.     atom                  positions (alat units)
         1           Fr  tau(   1) = (   0.0000000   0.0000000   0.0000000  )

     number of k points=    10  gaussian smearing, width (Ry)=  0.0100
                       cart. coord. in units 2pi/alat
        k(    1) = (   0.0000000   0.0000000   0.0000000), wk =   0.0160000
        k(    2) = (  -0.2000000   0.2000000  -0.2000000), wk =   0.1280000
        k(    3) = (  -0.4000000   0.4000000  -0.4000000), wk =   0.1280000
        k(    4) = (   0.0000000   0.4000000   0.0000000), wk =   0.0960000
        k(    5) = (  -0.2000000   0.6000000  -0.2000000), wk =   0.3840000
        k(    6) = (   0.6000000  -0.2000000   0.6000000), wk =   0.3840000
        k(    7) = (   0.4000000   0.0000000   0.4000000), wk =   0.1920000
        k(    8) = (   0.0000000   0.8000000   0.0000000), wk =   0.0960000
        k(    9) = (   0.8000000   0.0000000   0.8000000), wk =   0.1920000
        k(   10) = (   0.6000000  -0.2000000   1.0000000), wk =   0.3840000

     Dense  grid:    10849 G-vectors     FFT dimensions: (  32,  32,  32)

     Estimated max dynamical RAM per process >      10.50 MB

     Estimated total dynamical RAM >      52.52 MB

     Initial potential from superposition of free atoms

     starting charge   18.97647, renormalised to   19.00000
     Starting wfcs are   10 randomized atomic wfcs +    4 random wfcs
     Checking if some PAW data can be deallocated... 

     total cpu time spent up to now is        1.3 secs

     Self-consistent Calculation

     iteration #  1     ecut=   100.00 Ry     beta= 0.70
     Davidson diagonalization with overlap
     ethr =  1.00E-02,  avg # of iterations =  4.8

     Threshold (ethr) on eigenvalues was too large:
     Diagonalizing with lowered threshold

     Davidson diagonalization with overlap
     ethr =  9.09E-05,  avg # of iterations =  1.8

     total cpu time spent up to now is        1.8 secs

     total energy              =   -1045.29112499 Ry
     Harris-Foulkes estimate   =   -1045.30316033 Ry
     estimated scf accuracy    <       0.01696884 Ry

     iteration #  2     ecut=   100.00 Ry     beta= 0.70
     Davidson diagonalization with overlap
     ethr =  8.93E-05,  avg # of iterations =  2.0

     total cpu time spent up to now is        2.2 secs

     total energy              =   -1045.29470252 Ry
     Harris-Foulkes estimate   =   -1045.29504957 Ry
     estimated scf accuracy    <       0.00071335 Ry

     iteration #  3     ecut=   100.00 Ry     beta= 0.70
     Davidson diagonalization with overlap
     ethr =  3.75E-06,  avg # of iterations =  2.3

     total cpu time spent up to now is        2.4 secs

     total energy              =   -1045.29480585 Ry
     Harris-Foulkes estimate   =   -1045.29480302 Ry
     estimated scf accuracy    <       0.00001796 Ry

     iteration #  4     ecut=   100.00 Ry     beta= 0.70
     Davidson diagonalization with overlap
     ethr =  9.45E-08,  avg # of iterations =  2.0

     total cpu time spent up to now is        2.7 secs

     total energy              =   -1045.29481094 Ry
     Harris-Foulkes estimate   =   -1045.29481023 Ry
     estimated scf accuracy    <       0.00000029 Ry

     iteration #  5     ecut=   100.00 Ry     beta= 0.70
     Davidson diagonalization with overlap
     ethr =  1.52E-09,  avg # of iterations =  2.4

     total cpu time spent up to now is        2.9 secs

     total energy              =   -1045.29481103 Ry
     Harris-Foulkes estimate   =   -1045.29481101 Ry
     estimated scf accuracy    <       0.00000004 Ry

     iteration #  6     ecut=   100.00 Ry     beta= 0.70
     Davidson diagonalization with overlap
     ethr =  2.26E-10,  avg # of iterations =  2.0

     total cpu time spent up to now is        3.2 secs

     End of self-consistent calculation

          k = 0.0000 0.0000 0.0000 (  1363 PWs)   bands (ev):

    -9.4035  -9.4035  -9.4035  -9.0587  -9.0587   9.1045  46.8719  46.8719
    46.8719  48.1064  53.6921  53.6921  53.6921  57.4906

          k =-0.2000 0.2000-0.2000 (  1345 PWs)   bands (ev):

    -9.3925  -9.3194  -9.3194  -9.0258  -9.0258  10.7080  36.5245  45.0606
    45.0606  47.9972  54.1174  54.8191  54.8191  57.0250

          k =-0.4000 0.4000-0.4000 (  1362 PWs)   bands (ev):

    -9.3894  -9.3386  -9.3386  -8.8105  -8.8105  15.2931  25.6570  42.9685
    42.9685  47.8886  51.3002  51.9360  51.9360  63.3280

          k = 0.0000 0.4000 0.0000 (  1343 PWs)   bands (ev):

    -9.5184  -9.1830  -9.1691  -9.1691  -8.9605  11.2416  40.5240  40.7933
    40.7933  45.2318  47.5163  60.0176  60.1820  60.1820

          k =-0.2000 0.6000-0.2000 (  1345 PWs)   bands (ev):

    -9.5033  -9.2657  -9.1170  -8.9868  -8.7848  14.8979  29.8750  37.4894
    38.8451  44.7137  51.3707  57.9940  58.3919  60.3281

          k = 0.6000-0.2000 0.6000 (  1350 PWs)   bands (ev):

    -9.4151  -9.2264  -9.1595  -8.9109  -8.8222  18.0259  24.8964  34.2639
    40.2892  45.3590  55.4472  55.4783  60.5611  62.2156

          k = 0.4000 0.0000 0.4000 (  1344 PWs)   bands (ev):

    -9.3433  -9.3143  -9.1505  -9.1074  -8.8769  13.3468  32.8852  34.8840
    44.6884  48.4153  52.4822  54.7280  55.2740  57.7535

          k = 0.0000 0.8000 0.0000 (  1347 PWs)   bands (ev):

    -9.7025  -9.4146  -8.7999  -8.7721  -8.7721  17.5033  28.6408  35.8935
    35.8935  42.8648  43.1937  64.1909  67.6584  67.6584

          k = 0.8000 0.0000 0.8000 (  1348 PWs)   bands (ev):

    -9.5922  -9.3348  -8.8577  -8.8438  -8.7646  20.6485  25.9080  30.0574
    36.4615  43.2548  50.0350  61.3080  64.2577  66.1981

          k = 0.6000-0.2000 1.0000 (  1336 PWs)   bands (ev):

    -9.3798  -9.3125  -9.0969  -8.8855  -8.7777  18.9502  28.2201  30.4786
    34.3360  50.4557  50.8445  54.4775  61.6027  65.6816

     the Fermi energy is    45.3596 ev

!    total energy              =   -1045.29481103 Ry
     Harris-Foulkes estimate   =   -1045.29481104 Ry
     estimated scf accuracy    <          1.2E-10 Ry

     total all-electron energy =    -48490.747784 Ry

     The total energy is the sum of the following terms:

     one-electron contribution =       1.38755318 Ry
     hartree contribution      =      28.28199549 Ry
     xc contribution           =     -63.91059583 Ry
     ewald contribution        =    -242.33311988 Ry
     one-center paw contrib.   =    -768.71944307 Ry
     smearing contrib. (-TS)   =      -0.00120093 Ry

     convergence has been achieved in   6 iterations

     Forces acting on atoms (cartesian axes, Ry/au):

     atom    1 type  1   force =     0.00000000    0.00000000    0.00000000

     Total force =     0.000000     Total SCF correction =     0.000000


     Computing stress (Cartesian axis) and pressure

          total   stress  (Ry/bohr**3)                   (kbar)     P= 7086.63
   0.04817396   0.00000000  -0.00000000       7086.63      0.00     -0.00
   0.00000000   0.04817396   0.00000000          0.00   7086.63      0.00
  -0.00000000   0.00000000   0.04817396         -0.00      0.00   7086.63


     Writing output data file Fr.save/

     init_run     :      0.34s CPU      0.35s WALL (       1 calls)
     electrons    :      1.77s CPU      1.88s WALL (       1 calls)
     forces       :      0.03s CPU      0.04s WALL (       1 calls)
     stress       :      0.12s CPU      0.12s WALL (       1 calls)

     Called by init_run:
     wfcinit      :      0.05s CPU      0.06s WALL (       1 calls)
     potinit      :      0.05s CPU      0.05s WALL (       1 calls)
     hinit0       :      0.21s CPU      0.22s WALL (       1 calls)

     Called by electrons:
     c_bands      :      1.12s CPU      1.20s WALL (       7 calls)
     sum_band     :      0.27s CPU      0.29s WALL (       7 calls)
     v_of_rho     :      0.01s CPU      0.01s WALL (       7 calls)
     newd         :      0.08s CPU      0.08s WALL (       7 calls)
     PAW_pot      :      0.33s CPU      0.33s WALL (       7 calls)
     mix_rho      :      0.01s CPU      0.01s WALL (       7 calls)

     Called by c_bands:
     init_us_2    :      0.03s CPU      0.03s WALL (     170 calls)
     cegterg      :      1.08s CPU      1.16s WALL (      70 calls)

     Called by sum_band:
     sum_band:bec :      0.00s CPU      0.00s WALL (      70 calls)
     addusdens    :      0.08s CPU      0.09s WALL (       7 calls)

     Called by *egterg:
     h_psi        :      0.81s CPU      0.87s WALL (     253 calls)
     s_psi        :      0.03s CPU      0.03s WALL (     253 calls)
     g_psi        :      0.00s CPU      0.00s WALL (     173 calls)
     cdiaghg      :      0.11s CPU      0.11s WALL (     233 calls)

     Called by h_psi:
     h_psi:pot    :      0.80s CPU      0.87s WALL (     253 calls)
     h_psi:calbec :      0.04s CPU      0.04s WALL (     253 calls)
     vloc_psi     :      0.73s CPU      0.79s WALL (     253 calls)
     add_vuspsi   :      0.03s CPU      0.03s WALL (     253 calls)

     General routines
     calbec       :      0.06s CPU      0.07s WALL (     373 calls)
     fft          :      0.01s CPU      0.01s WALL (      38 calls)
     ffts         :      0.00s CPU      0.00s WALL (       7 calls)
     fftw         :      0.80s CPU      0.87s WALL (    6078 calls)

     Parallel routines
     fft_scatt_xy :      0.08s CPU      0.09s WALL (    6123 calls)
     fft_scatt_yz :      0.25s CPU      0.27s WALL (    6123 calls)

     PWSCF        :     3.21s CPU         3.38s WALL


   This run was terminated on:  22:16:54   7Apr2024            

=------------------------------------------------------------------------------=
   JOB DONE.
=------------------------------------------------------------------------------=
