
     Program PWSCF v.6.3MaX starts on  7Apr2024 at 22:32:34 

     This program is part of the open-source Quantum ESPRESSO suite
     for quantum simulation of materials; please cite
         "P. Giannozzi et al., J. Phys.:Condens. Matter 21 395502 (2009);
         "P. Giannozzi et al., J. Phys.:Condens. Matter 29 465901 (2017);
          URL http://www.quantum-espresso.org", 
     in publications or presentations arising from this work. More details at
     http://www.quantum-espresso.org/quote

     Parallel version (MPI), running on     5 processors

     MPI processes distributed on     1 nodes
     R & G space division:  proc/nbgrp/npool/nimage =       5
     Waiting for input...
     Reading input from standard input

     Current dimensions of program PWSCF are:
     Max number of different atomic species (ntypx) = 10
     Max number of k-points (npk) =  40000
     Max angular momentum in pseudopotentials (lmaxx) =  3

     Subspace diagonalization in iterative solution of the eigenvalue problem:
     a serial algorithm will be used


     Parallelization info
     --------------------
     sticks:   dense  smooth     PW     G-vecs:    dense   smooth      PW
     Min          50      50     17                  544      544     107
     Max          51      51     17                  548      548     108
     Sum         253     253     85                 2733     2733     537



     bravais-lattice index     =            2
     lattice parameter (alat)  =       6.8300  a.u.
     unit-cell volume          =      79.6530 (a.u.)^3
     number of atoms/cell      =            1
     number of atomic types    =            1
     number of electrons       =        19.00
     number of Kohn-Sham states=           14
     kinetic-energy cutoff     =      40.0000  Ry
     charge density cutoff     =     160.0000  Ry
     convergence threshold     =      1.0E-08
     mixing beta               =       0.7000
     number of iterations used =            8  plain     mixing
     Exchange-correlation      = LDA ( 1  1  0  0 0 0)

     celldm(1)=   6.830000  celldm(2)=   0.000000  celldm(3)=   0.000000
     celldm(4)=   0.000000  celldm(5)=   0.000000  celldm(6)=   0.000000

     crystal axes: (cart. coord. in units of alat)
               a(1) = (  -0.500000   0.000000   0.500000 )  
               a(2) = (   0.000000   0.500000   0.500000 )  
               a(3) = (  -0.500000   0.500000   0.000000 )  

     reciprocal axes: (cart. coord. in units 2 pi/alat)
               b(1) = ( -1.000000 -1.000000  1.000000 )  
               b(2) = (  1.000000  1.000000  1.000000 )  
               b(3) = ( -1.000000  1.000000 -1.000000 )  


     PseudoPot. # 1 for Fr read from file:
     /home/lorenzo/pseudos/Fr/Fr.pz-spdn-rrkjus_psl.1.0.0.UPF
     MD5 check sum: 5665a43a3d1ea02b0b7dc7a0ae9ace04
     Pseudo is Ultrasoft + core correction, Zval = 19.0
     Generated using "atomic" code by A. Dal Corso v.6.2.2
     Using radial grid of 1287 points,  6 beta functions with: 
                l(1) =   0
                l(2) =   0
                l(3) =   1
                l(4) =   1
                l(5) =   2
                l(6) =   2
     Q(r) pseudized with 0 coefficients 


     atomic species   valence    mass     pseudopotential
        Fr            19.00   223.00000     Fr( 1.00)

     48 Sym. Ops., with inversion, found



   Cartesian axes

     site n.     atom                  positions (alat units)
         1           Fr  tau(   1) = (   0.0000000   0.0000000   0.0000000  )

     number of k points=    16  gaussian smearing, width (Ry)=  0.0100
                       cart. coord. in units 2pi/alat
        k(    1) = (   0.0000000   0.0000000   0.0000000), wk =   0.0092593
        k(    2) = (  -0.1666667   0.1666667  -0.1666667), wk =   0.0740741
        k(    3) = (  -0.3333333   0.3333333  -0.3333333), wk =   0.0740741
        k(    4) = (   0.5000000  -0.5000000   0.5000000), wk =   0.0370370
        k(    5) = (   0.0000000   0.3333333   0.0000000), wk =   0.0555556
        k(    6) = (  -0.1666667   0.5000000  -0.1666667), wk =   0.2222222
        k(    7) = (   0.6666667  -0.3333333   0.6666667), wk =   0.2222222
        k(    8) = (   0.5000000  -0.1666667   0.5000000), wk =   0.2222222
        k(    9) = (   0.3333333   0.0000000   0.3333333), wk =   0.1111111
        k(   10) = (   0.0000000   0.6666667   0.0000000), wk =   0.0555556
        k(   11) = (   0.8333333  -0.1666667   0.8333333), wk =   0.2222222
        k(   12) = (   0.6666667  -0.0000000   0.6666667), wk =   0.1111111
        k(   13) = (   0.0000000  -1.0000000   0.0000000), wk =   0.0277778
        k(   14) = (   0.6666667  -0.3333333   1.0000000), wk =   0.2222222
        k(   15) = (   0.5000000  -0.1666667   0.8333333), wk =   0.2222222
        k(   16) = (  -0.3333333  -1.0000000   0.0000000), wk =   0.1111111

     Dense  grid:     2733 G-vectors     FFT dimensions: (  20,  20,  20)

     Estimated max dynamical RAM per process >       3.38 MB

     Estimated total dynamical RAM >      16.89 MB

     Check: negative/imaginary core charge=   -0.000005    0.000000

     Initial potential from superposition of free atoms

     starting charge   18.97647, renormalised to   19.00000
     Starting wfcs are   10 randomized atomic wfcs +    4 random wfcs

     total cpu time spent up to now is        1.0 secs

     Self-consistent Calculation

     iteration #  1     ecut=    40.00 Ry     beta= 0.70
     Davidson diagonalization with overlap
     ethr =  1.00E-02,  avg # of iterations =  4.6

     Threshold (ethr) on eigenvalues was too large:
     Diagonalizing with lowered threshold

     Davidson diagonalization with overlap
     ethr =  1.35E-04,  avg # of iterations =  1.6

     total cpu time spent up to now is        1.3 secs

     total energy              =    -282.32317318 Ry
     Harris-Foulkes estimate   =    -282.34279485 Ry
     estimated scf accuracy    <       0.02569086 Ry

     iteration #  2     ecut=    40.00 Ry     beta= 0.70
     Davidson diagonalization with overlap
     ethr =  1.35E-04,  avg # of iterations =  2.0

     total cpu time spent up to now is        1.4 secs

     total energy              =    -282.32954428 Ry
     Harris-Foulkes estimate   =    -282.33039918 Ry
     estimated scf accuracy    <       0.00114777 Ry

     iteration #  3     ecut=    40.00 Ry     beta= 0.70
     Davidson diagonalization with overlap
     ethr =  6.04E-06,  avg # of iterations =  2.3

     total cpu time spent up to now is        1.5 secs

     total energy              =    -282.32980532 Ry
     Harris-Foulkes estimate   =    -282.32981450 Ry
     estimated scf accuracy    <       0.00002513 Ry

     iteration #  4     ecut=    40.00 Ry     beta= 0.70
     Davidson diagonalization with overlap
     ethr =  1.32E-07,  avg # of iterations =  2.1

     total cpu time spent up to now is        1.6 secs

     total energy              =    -282.32980776 Ry
     Harris-Foulkes estimate   =    -282.32980775 Ry
     estimated scf accuracy    <       0.00000015 Ry

     iteration #  5     ecut=    40.00 Ry     beta= 0.70
     Davidson diagonalization with overlap
     ethr =  8.12E-10,  avg # of iterations =  2.1

     total cpu time spent up to now is        1.8 secs

     End of self-consistent calculation

          k = 0.0000 0.0000 0.0000 (   331 PWs)   bands (ev):

    -9.5954  -9.5954  -9.5954  -9.2603  -9.2603   9.0853  46.8399  46.8399
    46.8399  48.1303  54.0742  54.0742  54.0742  57.5065

          k =-0.1667 0.1667-0.1667 (   332 PWs)   bands (ev):

    -9.5694  -9.5394  -9.5394  -9.1909  -9.1909  10.1976  38.6198  45.4916
    45.4916  48.0565  54.8168  55.7537  55.7537  56.4234

          k =-0.3333 0.3333-0.3333 (   344 PWs)   bands (ev):

    -9.5587  -9.5365  -9.5365  -9.1036  -9.1036  13.4903  28.8762  43.4844
    43.4844  48.0391  52.0280  52.8327  52.8327  61.3463

          k = 0.5000-0.5000 0.5000 (   344 PWs)   bands (ev):

    -9.6418  -9.5628  -9.5628  -8.9286  -8.9286  17.1063  23.0013  42.6157
    42.6157  47.8710  51.1111  51.8874  51.8874  65.1410

          k = 0.0000 0.3333 0.0000 (   335 PWs)   bands (ev):

    -9.7089  -9.4077  -9.4077  -9.3425  -9.1655  10.5676  41.9942  41.9942
    42.1325  45.9218  49.3365  58.6461  59.1836  59.1836

          k =-0.1667 0.5000-0.1667 (   335 PWs)   bands (ev):

    -9.6725  -9.4160  -9.3215  -9.2326  -9.0139  13.1453  32.5465  39.8646
    40.1745  45.7469  50.5551  58.0413  58.1491  58.9161

          k = 0.6667-0.3333 0.6667 (   335 PWs)   bands (ev):

    -9.6105  -9.3975  -9.3441  -9.0638  -8.9007  17.2602  24.9492  37.0220
    39.9020  45.4123  55.4217  55.5783  58.3217  58.9244

          k = 0.5000-0.1667 0.5000 (   347 PWs)   bands (ev):

    -9.5625  -9.4853  -9.4038  -9.1557  -9.0667  15.8673  27.1059  35.6024
    42.3082  46.7973  53.6484  54.2982  60.1063  60.4002

          k = 0.3333 0.0000 0.3333 (   341 PWs)   bands (ev):

    -9.5659  -9.5056  -9.3916  -9.3471  -9.1029  12.0450  35.1361  37.0712
    46.1461  50.0097  51.1497  53.8849  55.0725  57.3063

          k = 0.0000 0.6667 0.0000 (   335 PWs)   bands (ev):

    -9.8124  -9.4921  -9.0518  -9.0436  -9.0436  14.9848  32.5641  37.0413
    37.0413  43.8765  43.9147  64.4939  64.9132  64.9132

          k = 0.8333-0.1667 0.8333 (   338 PWs)   bands (ev):

    -9.7783  -9.5117  -9.0548  -9.0425  -8.8950  18.6080  27.5585  32.1103
    36.5203  43.5298  48.7701  61.3687  63.1354  68.5175

          k = 0.6667-0.0000 0.6667 (   347 PWs)   bands (ev):

    -9.6595  -9.3085  -9.2279  -9.1856  -9.0755  19.3415  28.0345  28.0696
    38.5374  44.5006  57.2777  58.9211  59.8435  62.5416

          k = 0.0000-1.0000 0.0000 (   342 PWs)   bands (ev):

    -9.8929  -9.6659  -8.9354  -8.9261  -8.9261  20.5980  24.6442  35.2202
    35.2202  42.6156  43.2537  64.1108  70.0518  70.9582

          k = 0.6667-0.3333 1.0000 (   343 PWs)   bands (ev):

    -9.6224  -9.4666  -9.2846  -9.1103  -9.0569  16.2921  30.1095  32.6181
    37.3187  49.3414  49.8651  54.8068  62.4928  64.8058

          k = 0.5000-0.1667 0.8333 (   346 PWs)   bands (ev):

    -9.5135  -9.4913  -9.2831  -9.1654  -8.9626  19.4193  26.0699  31.5228
    35.2486  49.2373  52.6393  58.2545  58.3290  64.0911

          k =-0.3333-1.0000 0.0000 (   344 PWs)   bands (ev):

    -9.6725  -9.5123  -9.1592  -9.0681  -8.9147  20.8144  26.3798  30.9837
    32.5378  48.9350  49.0213  58.2075  61.0645  68.4555

     the Fermi energy is    46.6835 ev

!    total energy              =    -282.32980779 Ry
     Harris-Foulkes estimate   =    -282.32980779 Ry
     estimated scf accuracy    <          1.9E-09 Ry

     The total energy is the sum of the following terms:

     one-electron contribution =      -4.17906936 Ry
     hartree contribution      =      27.99466031 Ry
     xc contribution           =     -63.81194636 Ry
     ewald contribution        =    -242.33311992 Ry
     smearing contrib. (-TS)   =      -0.00033246 Ry

     convergence has been achieved in   5 iterations

     Forces acting on atoms (cartesian axes, Ry/au):

     atom    1 type  1   force =     0.00000000    0.00000000    0.00000000

     Total force =     0.000000     Total SCF correction =     0.000000


     Computing stress (Cartesian axis) and pressure

          total   stress  (Ry/bohr**3)                   (kbar)     P= 4741.13
   0.03222955  -0.00000000   0.00000000       4741.13     -0.00      0.00
  -0.00000000   0.03222955  -0.00000000         -0.00   4741.13     -0.00
   0.00000000  -0.00000000   0.03222955          0.00     -0.00   4741.13


     Writing output data file Fr.save/

     init_run     :      0.16s CPU      0.17s WALL (       1 calls)
     electrons    :      0.70s CPU      0.75s WALL (       1 calls)
     forces       :      0.02s CPU      0.02s WALL (       1 calls)
     stress       :      0.06s CPU      0.06s WALL (       1 calls)

     Called by init_run:
     wfcinit      :      0.04s CPU      0.04s WALL (       1 calls)
     potinit      :      0.00s CPU      0.00s WALL (       1 calls)
     hinit0       :      0.12s CPU      0.12s WALL (       1 calls)

     Called by electrons:
     c_bands      :      0.59s CPU      0.63s WALL (       6 calls)
     sum_band     :      0.09s CPU      0.10s WALL (       6 calls)
     v_of_rho     :      0.00s CPU      0.00s WALL (       6 calls)
     newd         :      0.02s CPU      0.02s WALL (       6 calls)
     mix_rho      :      0.00s CPU      0.00s WALL (       6 calls)

     Called by c_bands:
     init_us_2    :      0.01s CPU      0.02s WALL (     240 calls)
     cegterg      :      0.57s CPU      0.61s WALL (      96 calls)

     Called by sum_band:
     sum_band:bec :      0.00s CPU      0.00s WALL (      96 calls)
     addusdens    :      0.02s CPU      0.02s WALL (       6 calls)

     Called by *egterg:
     h_psi        :      0.37s CPU      0.40s WALL (     346 calls)
     s_psi        :      0.01s CPU      0.01s WALL (     346 calls)
     g_psi        :      0.00s CPU      0.00s WALL (     234 calls)
     cdiaghg      :      0.14s CPU      0.15s WALL (     314 calls)

     Called by h_psi:
     h_psi:pot    :      0.37s CPU      0.40s WALL (     346 calls)
     h_psi:calbec :      0.02s CPU      0.02s WALL (     346 calls)
     vloc_psi     :      0.33s CPU      0.36s WALL (     346 calls)
     add_vuspsi   :      0.01s CPU      0.01s WALL (     346 calls)

     General routines
     calbec       :      0.03s CPU      0.03s WALL (     522 calls)
     fft          :      0.00s CPU      0.00s WALL (      34 calls)
     ffts         :      0.00s CPU      0.00s WALL (       6 calls)
     fftw         :      0.36s CPU      0.39s WALL (    8650 calls)

     Parallel routines
     fft_scatt_xy :      0.03s CPU      0.04s WALL (    8690 calls)
     fft_scatt_yz :      0.12s CPU      0.13s WALL (    8690 calls)

     PWSCF        :     1.83s CPU         1.93s WALL


   This run was terminated on:  22:32:36   7Apr2024            

=------------------------------------------------------------------------------=
   JOB DONE.
=------------------------------------------------------------------------------=
