
     Program PWSCF v.6.3MaX starts on  7Apr2024 at 22:45:14 

     This program is part of the open-source Quantum ESPRESSO suite
     for quantum simulation of materials; please cite
         "P. Giannozzi et al., J. Phys.:Condens. Matter 21 395502 (2009);
         "P. Giannozzi et al., J. Phys.:Condens. Matter 29 465901 (2017);
          URL http://www.quantum-espresso.org", 
     in publications or presentations arising from this work. More details at
     http://www.quantum-espresso.org/quote

     Parallel version (MPI), running on     5 processors

     MPI processes distributed on     1 nodes
     R & G space division:  proc/nbgrp/npool/nimage =       5
     Waiting for input...
     Reading input from standard input

     Current dimensions of program PWSCF are:
     Max number of different atomic species (ntypx) = 10
     Max number of k-points (npk) =  40000
     Max angular momentum in pseudopotentials (lmaxx) =  3
               file Fr.pbe-spdn-kjpaw_psl.1.0.0.UPF: wavefunction(s)  6P renormalized

     Subspace diagonalization in iterative solution of the eigenvalue problem:
     a serial algorithm will be used


     Parallelization info
     --------------------
     sticks:   dense  smooth     PW     G-vecs:    dense   smooth      PW
     Min          84      84     27                 1134     1134     213
     Max          85      85     28                 1137     1137     214
     Sum         421     421    139                 5673     5673    1067



     bravais-lattice index     =            2
     lattice parameter (alat)  =       6.8300  a.u.
     unit-cell volume          =      79.6530 (a.u.)^3
     number of atoms/cell      =            1
     number of atomic types    =            1
     number of electrons       =        19.00
     number of Kohn-Sham states=           14
     kinetic-energy cutoff     =      65.0000  Ry
     charge density cutoff     =     260.0000  Ry
     convergence threshold     =      1.0E-08
     mixing beta               =       0.7000
     number of iterations used =            8  plain     mixing
     Exchange-correlation      = SLA PW PBX PBC ( 1  4  3  4 0 0)

     celldm(1)=   6.830000  celldm(2)=   0.000000  celldm(3)=   0.000000
     celldm(4)=   0.000000  celldm(5)=   0.000000  celldm(6)=   0.000000

     crystal axes: (cart. coord. in units of alat)
               a(1) = (  -0.500000   0.000000   0.500000 )  
               a(2) = (   0.000000   0.500000   0.500000 )  
               a(3) = (  -0.500000   0.500000   0.000000 )  

     reciprocal axes: (cart. coord. in units 2 pi/alat)
               b(1) = ( -1.000000 -1.000000  1.000000 )  
               b(2) = (  1.000000  1.000000  1.000000 )  
               b(3) = ( -1.000000  1.000000 -1.000000 )  


     PseudoPot. # 1 for Fr read from file:
     /home/lorenzo/pseudos/Fr/Fr.pbe-spdn-kjpaw_psl.1.0.0.UPF
     MD5 check sum: 362a188b966a64328b94f1ef5f32e8c4
     Pseudo is Projector augmented-wave + core cor, Zval = 19.0
     Generated using "atomic" code by A. Dal Corso v.6.2.2
     Shape of augmentation charge: PSQ
     Using radial grid of 1287 points,  6 beta functions with: 
                l(1) =   0
                l(2) =   0
                l(3) =   1
                l(4) =   1
                l(5) =   2
                l(6) =   2
     Q(r) pseudized with 0 coefficients 


     atomic species   valence    mass     pseudopotential
        Fr            19.00   223.00000     Fr( 1.00)

     48 Sym. Ops., with inversion, found



   Cartesian axes

     site n.     atom                  positions (alat units)
         1           Fr  tau(   1) = (   0.0000000   0.0000000   0.0000000  )

     number of k points=    20  gaussian smearing, width (Ry)=  0.0100
                       cart. coord. in units 2pi/alat
        k(    1) = (   0.0000000   0.0000000   0.0000000), wk =   0.0058309
        k(    2) = (  -0.1428571   0.1428571  -0.1428571), wk =   0.0466472
        k(    3) = (  -0.2857143   0.2857143  -0.2857143), wk =   0.0466472
        k(    4) = (  -0.4285714   0.4285714  -0.4285714), wk =   0.0466472
        k(    5) = (   0.0000000   0.2857143   0.0000000), wk =   0.0349854
        k(    6) = (  -0.1428571   0.4285714  -0.1428571), wk =   0.1399417
        k(    7) = (  -0.2857143   0.5714286  -0.2857143), wk =   0.1399417
        k(    8) = (   0.5714286  -0.2857143   0.5714286), wk =   0.1399417
        k(    9) = (   0.4285714  -0.1428571   0.4285714), wk =   0.1399417
        k(   10) = (   0.2857143  -0.0000000   0.2857143), wk =   0.0699708
        k(   11) = (   0.0000000   0.5714286   0.0000000), wk =   0.0349854
        k(   12) = (  -0.1428571   0.7142857  -0.1428571), wk =   0.1399417
        k(   13) = (   0.7142857  -0.1428571   0.7142857), wk =   0.1399417
        k(   14) = (   0.5714286   0.0000000   0.5714286), wk =   0.0699708
        k(   15) = (   0.0000000   0.8571429   0.0000000), wk =   0.0349854
        k(   16) = (   0.8571429  -0.0000000   0.8571429), wk =   0.0699708
        k(   17) = (  -0.2857143   0.5714286   0.0000000), wk =   0.1399417
        k(   18) = (   0.5714286  -0.2857143   0.8571429), wk =   0.2798834
        k(   19) = (   0.7142857  -0.1428571   1.0000000), wk =   0.1399417
        k(   20) = (   0.5714286   0.0000000   0.8571429), wk =   0.1399417

     Dense  grid:     5673 G-vectors     FFT dimensions: (  25,  25,  25)

     Estimated max dynamical RAM per process >       6.25 MB

     Estimated total dynamical RAM >      31.26 MB

     Check: negative/imaginary core charge=   -0.000003    0.000000

     Initial potential from superposition of free atoms

     starting charge   18.97009, renormalised to   19.00000
     Starting wfcs are   10 randomized atomic wfcs +    4 random wfcs
     Checking if some PAW data can be deallocated... 

     total cpu time spent up to now is        1.4 secs

     Self-consistent Calculation

     iteration #  1     ecut=    65.00 Ry     beta= 0.70
     Davidson diagonalization with overlap
     ethr =  1.00E-02,  avg # of iterations =  4.5

     Threshold (ethr) on eigenvalues was too large:
     Diagonalizing with lowered threshold

     Davidson diagonalization with overlap
     ethr =  1.10E-04,  avg # of iterations =  1.7

     total cpu time spent up to now is        2.3 secs

     total energy              =   -1069.95819886 Ry
     Harris-Foulkes estimate   =   -1069.97155247 Ry
     estimated scf accuracy    <       0.02074288 Ry

     iteration #  2     ecut=    65.00 Ry     beta= 0.70
     Davidson diagonalization with overlap
     ethr =  1.09E-04,  avg # of iterations =  2.0

     total cpu time spent up to now is        2.7 secs

     total energy              =   -1069.96144963 Ry
     Harris-Foulkes estimate   =   -1069.96179841 Ry
     estimated scf accuracy    <       0.00064508 Ry

     iteration #  3     ecut=    65.00 Ry     beta= 0.70
     Davidson diagonalization with overlap
     ethr =  3.40E-06,  avg # of iterations =  3.3

     total cpu time spent up to now is        3.1 secs

     total energy              =   -1069.96153001 Ry
     Harris-Foulkes estimate   =   -1069.96153741 Ry
     estimated scf accuracy    <       0.00002298 Ry

     iteration #  4     ecut=    65.00 Ry     beta= 0.70
     Davidson diagonalization with overlap
     ethr =  1.21E-07,  avg # of iterations =  2.0

     total cpu time spent up to now is        3.5 secs

     total energy              =   -1069.96153563 Ry
     Harris-Foulkes estimate   =   -1069.96153511 Ry
     estimated scf accuracy    <       0.00000026 Ry

     iteration #  5     ecut=    65.00 Ry     beta= 0.70
     Davidson diagonalization with overlap
     ethr =  1.36E-09,  avg # of iterations =  2.3

     total cpu time spent up to now is        3.9 secs

     total energy              =   -1069.96153572 Ry
     Harris-Foulkes estimate   =   -1069.96153567 Ry
     estimated scf accuracy    <       0.00000002 Ry

     iteration #  6     ecut=    65.00 Ry     beta= 0.70
     Davidson diagonalization with overlap
     ethr =  1.29E-10,  avg # of iterations =  2.0

     total cpu time spent up to now is        4.4 secs

     End of self-consistent calculation

          k = 0.0000 0.0000 0.0000 (   725 PWs)   bands (ev):

    -9.2842  -9.2842  -9.2842  -8.9384  -8.9384   9.4657  47.2644  47.2644
    47.2644  48.3121  53.8739  53.8739  53.8739  57.8171

          k =-0.1429 0.1429-0.1429 (   712 PWs)   bands (ev):

    -9.2753  -9.2272  -9.2272  -8.9313  -8.9313  10.2843  40.4122  46.1551
    46.1551  48.2071  55.4983  55.7772  55.7772  56.3907

          k =-0.2857 0.2857-0.2857 (   697 PWs)   bands (ev):

    -9.2684  -9.1904  -9.1904  -8.8206  -8.8206  12.7327  31.7726  44.3615
    44.3615  48.2201  52.8252  53.4419  53.4419  59.8977

          k =-0.4286 0.4286-0.4286 (   709 PWs)   bands (ev):

    -9.2681  -9.2216  -9.2216  -8.6731  -8.6731  16.4305  24.8057  43.1742
    43.1742  48.0976  51.3967  51.9641  51.9641  64.4372

          k = 0.0000 0.2857 0.0000 (   697 PWs)   bands (ev):

    -9.3444  -9.1554  -9.1554  -9.0028  -8.8841  10.5568  43.1748  43.1748
    43.6402  46.3625  50.8109  57.5982  58.4134  58.4134

          k =-0.1429 0.4286-0.1429 (   706 PWs)   bands (ev):

    -9.3536  -9.1185  -9.0760  -8.9690  -8.7875  12.4650  34.9823  41.1029
    42.2499  46.7004  50.2247  57.2711  58.2062  58.6735

          k =-0.2857 0.5714-0.2857 (   713 PWs)   bands (ev):

    -9.3111  -9.1582  -9.1007  -8.8259  -8.6580  15.8408  27.4552  39.5054
    40.4745  45.7778  55.2286  55.6405  56.3551  57.7597

          k = 0.5714-0.2857 0.5714 (   705 PWs)   bands (ev):

    -9.2685  -9.1739  -9.1250  -8.7272  -8.6797  17.9971  24.2610  37.5994
    41.5457  46.2579  53.8947  54.0484  58.2543  62.9835

          k = 0.4286-0.1429 0.4286 (   696 PWs)   bands (ev):

    -9.2216  -9.2021  -9.1067  -8.8630  -8.7339  14.5819  29.8115  37.1955
    44.2405  48.0787  52.5719  53.5040  58.4482  59.7540

          k = 0.2857-0.0000 0.2857 (   698 PWs)   bands (ev):

    -9.2701  -9.1721  -9.1439  -8.9817  -8.8332  11.6486  37.2810  38.8935
    47.3511  50.4985  51.3524  53.7349  54.6460  56.9787

          k = 0.0000 0.5714 0.0000 (   709 PWs)   bands (ev):

    -9.4833  -9.1652  -8.8671  -8.8671  -8.7655  13.8266  35.9109  38.4997
    38.4997  44.2670  44.8666  63.3455  63.3455  64.7524

          k =-0.1429 0.7143-0.1429 (   697 PWs)   bands (ev):

    -9.4719  -9.2062  -8.8444  -8.7756  -8.6448  16.7107  30.3704  34.7036
    37.4725  43.8849  48.1480  61.0436  62.1763  65.8624

          k = 0.7143-0.1429 0.7143 (   704 PWs)   bands (ev):

    -9.3784  -9.0842  -8.8829  -8.8458  -8.6671  19.7669  26.2458  31.3002
    38.2976  44.2434  55.0349  58.9155  59.8103  65.3595

          k = 0.5714 0.0000 0.5714 (   700 PWs)   bands (ev):

    -9.2845  -9.0522  -8.9188  -8.8468  -8.8374  17.7206  29.0666  30.4172
    40.8544  45.6675  57.1236  57.4745  59.5457  60.3193

          k = 0.0000 0.8571 0.0000 (   708 PWs)   bands (ev):

    -9.5917  -9.3095  -8.6694  -8.6255  -8.6255  19.0331  27.4184  35.8924
    35.8924  42.9138  43.2296  64.4235  69.1923  69.1923

          k = 0.8571-0.0000 0.8571 (   706 PWs)   bands (ev):

    -9.5252  -9.2741  -8.7002  -8.6640  -8.6215  21.1519  25.5718  32.0673
    36.1868  43.1857  47.4343  62.6931  66.5544  68.2846

          k =-0.2857 0.5714 0.0000 (   700 PWs)   bands (ev):

    -9.3369  -9.1570  -8.9941  -8.8772  -8.7185  14.8667  32.4378  34.6784
    39.9736  49.0734  49.2701  55.1151  60.5230  63.5860

          k = 0.5714-0.2857 0.8571 (   707 PWs)   bands (ev):

    -9.2488  -9.1839  -8.9625  -8.8364  -8.6841  18.3400  26.8807  33.4414
    37.3042  48.6096  52.4450  56.4265  61.7271  62.5677

          k = 0.7143-0.1429 1.0000 (   698 PWs)   bands (ev):

    -9.4156  -9.2252  -8.8506  -8.7071  -8.6265  19.6992  27.8119  32.3400
    33.8731  47.9032  47.9747  58.4322  64.3239  68.6929

          k = 0.5714 0.0000 0.8571 (   713 PWs)   bands (ev):

    -9.2826  -9.0883  -9.0035  -8.8161  -8.6308  20.8660  28.0330  28.7523
    34.3566  48.7558  55.1828  55.7333  58.1805  66.2029

     the Fermi energy is    47.3695 ev

!    total energy              =   -1069.96153572 Ry
     Harris-Foulkes estimate   =   -1069.96153573 Ry
     estimated scf accuracy    <          4.6E-10 Ry

     total all-electron energy =    -48515.571847 Ry

     The total energy is the sum of the following terms:

     one-electron contribution =       1.52810060 Ry
     hartree contribution      =      28.13693794 Ry
     xc contribution           =     -64.58213162 Ry
     ewald contribution        =    -242.33311988 Ry
     one-center paw contrib.   =    -792.71094445 Ry
     smearing contrib. (-TS)   =      -0.00037831 Ry

     convergence has been achieved in   6 iterations

     Forces acting on atoms (cartesian axes, Ry/au):

     atom    1 type  1   force =     0.00000000    0.00000000    0.00000000

     Total force =     0.000000     Total SCF correction =     0.000000


     Computing stress (Cartesian axis) and pressure

          total   stress  (Ry/bohr**3)                   (kbar)     P= 7079.57
   0.04812593   0.00000000   0.00000000       7079.57      0.00      0.00
   0.00000000   0.04812593  -0.00000000          0.00   7079.57     -0.00
   0.00000000  -0.00000000   0.04812593          0.00     -0.00   7079.57


     Writing output data file Fr.save/

     init_run     :      0.45s CPU      0.46s WALL (       1 calls)
     electrons    :      2.81s CPU      2.99s WALL (       1 calls)
     forces       :      0.12s CPU      0.12s WALL (       1 calls)
     stress       :      0.24s CPU      0.25s WALL (       1 calls)

     Called by init_run:
     wfcinit      :      0.11s CPU      0.11s WALL (       1 calls)
     potinit      :      0.15s CPU      0.16s WALL (       1 calls)
     hinit0       :      0.16s CPU      0.16s WALL (       1 calls)

     Called by electrons:
     c_bands      :      1.64s CPU      1.72s WALL (       7 calls)
     sum_band     :      0.31s CPU      0.32s WALL (       7 calls)
     v_of_rho     :      0.03s CPU      0.03s WALL (       7 calls)
     newd         :      0.06s CPU      0.07s WALL (       7 calls)
     PAW_pot      :      0.88s CPU      0.97s WALL (       7 calls)
     mix_rho      :      0.01s CPU      0.01s WALL (       7 calls)

     Called by c_bands:
     init_us_2    :      0.04s CPU      0.04s WALL (     340 calls)
     cegterg      :      1.59s CPU      1.66s WALL (     140 calls)

     Called by sum_band:
     sum_band:bec :      0.00s CPU      0.00s WALL (     140 calls)
     addusdens    :      0.04s CPU      0.04s WALL (       7 calls)

     Called by *egterg:
     h_psi        :      1.18s CPU      1.24s WALL (     518 calls)
     s_psi        :      0.03s CPU      0.03s WALL (     518 calls)
     g_psi        :      0.00s CPU      0.00s WALL (     358 calls)
     cdiaghg      :      0.24s CPU      0.24s WALL (     478 calls)

     Called by h_psi:
     h_psi:pot    :      1.18s CPU      1.23s WALL (     518 calls)
     h_psi:calbec :      0.05s CPU      0.06s WALL (     518 calls)
     vloc_psi     :      1.09s CPU      1.14s WALL (     518 calls)
     add_vuspsi   :      0.03s CPU      0.03s WALL (     518 calls)

     General routines
     calbec       :      0.18s CPU      0.19s WALL (     758 calls)
     fft          :      0.07s CPU      0.07s WALL (     104 calls)
     ffts         :      0.00s CPU      0.00s WALL (       7 calls)
     fftw         :      1.22s CPU      1.27s WALL (   12220 calls)

     Parallel routines
     fft_scatt_xy :      0.09s CPU      0.09s WALL (   12331 calls)
     fft_scatt_yz :      0.50s CPU      0.52s WALL (   12331 calls)

     PWSCF        :     4.69s CPU         4.97s WALL


   This run was terminated on:  22:45:19   7Apr2024            

=------------------------------------------------------------------------------=
   JOB DONE.
=------------------------------------------------------------------------------=
