
     Program PWSCF v.6.3MaX starts on  7Apr2024 at 22:51:30 

     This program is part of the open-source Quantum ESPRESSO suite
     for quantum simulation of materials; please cite
         "P. Giannozzi et al., J. Phys.:Condens. Matter 21 395502 (2009);
         "P. Giannozzi et al., J. Phys.:Condens. Matter 29 465901 (2017);
          URL http://www.quantum-espresso.org", 
     in publications or presentations arising from this work. More details at
     http://www.quantum-espresso.org/quote

     Parallel version (MPI), running on     5 processors

     MPI processes distributed on     1 nodes
     R & G space division:  proc/nbgrp/npool/nimage =       5
     Waiting for input...
     Reading input from standard input

     Current dimensions of program PWSCF are:
     Max number of different atomic species (ntypx) = 10
     Max number of k-points (npk) =  40000
     Max angular momentum in pseudopotentials (lmaxx) =  3
               file Fr.pbe-spdn-kjpaw_psl.1.0.0.UPF: wavefunction(s)  6P renormalized

     Subspace diagonalization in iterative solution of the eigenvalue problem:
     a serial algorithm will be used


     Parallelization info
     --------------------
     sticks:   dense  smooth     PW     G-vecs:    dense   smooth      PW
     Min          95      95     30                 1375     1375     248
     Max          95      95     31                 1376     1376     251
     Sum         475     475    151                 6879     6879    1243



     bravais-lattice index     =            2
     lattice parameter (alat)  =       6.8300  a.u.
     unit-cell volume          =      79.6530 (a.u.)^3
     number of atoms/cell      =            1
     number of atomic types    =            1
     number of electrons       =        19.00
     number of Kohn-Sham states=           14
     kinetic-energy cutoff     =      75.0000  Ry
     charge density cutoff     =     300.0000  Ry
     convergence threshold     =      1.0E-08
     mixing beta               =       0.7000
     number of iterations used =            8  plain     mixing
     Exchange-correlation      = SLA PW PBX PBC ( 1  4  3  4 0 0)

     celldm(1)=   6.830000  celldm(2)=   0.000000  celldm(3)=   0.000000
     celldm(4)=   0.000000  celldm(5)=   0.000000  celldm(6)=   0.000000

     crystal axes: (cart. coord. in units of alat)
               a(1) = (  -0.500000   0.000000   0.500000 )  
               a(2) = (   0.000000   0.500000   0.500000 )  
               a(3) = (  -0.500000   0.500000   0.000000 )  

     reciprocal axes: (cart. coord. in units 2 pi/alat)
               b(1) = ( -1.000000 -1.000000  1.000000 )  
               b(2) = (  1.000000  1.000000  1.000000 )  
               b(3) = ( -1.000000  1.000000 -1.000000 )  


     PseudoPot. # 1 for Fr read from file:
     /home/lorenzo/pseudos/Fr/Fr.pbe-spdn-kjpaw_psl.1.0.0.UPF
     MD5 check sum: 362a188b966a64328b94f1ef5f32e8c4
     Pseudo is Projector augmented-wave + core cor, Zval = 19.0
     Generated using "atomic" code by A. Dal Corso v.6.2.2
     Shape of augmentation charge: PSQ
     Using radial grid of 1287 points,  6 beta functions with: 
                l(1) =   0
                l(2) =   0
                l(3) =   1
                l(4) =   1
                l(5) =   2
                l(6) =   2
     Q(r) pseudized with 0 coefficients 


     atomic species   valence    mass     pseudopotential
        Fr            19.00   223.00000     Fr( 1.00)

     48 Sym. Ops., with inversion, found



   Cartesian axes

     site n.     atom                  positions (alat units)
         1           Fr  tau(   1) = (   0.0000000   0.0000000   0.0000000  )

     number of k points=    20  gaussian smearing, width (Ry)=  0.0100
                       cart. coord. in units 2pi/alat
        k(    1) = (   0.0000000   0.0000000   0.0000000), wk =   0.0058309
        k(    2) = (  -0.1428571   0.1428571  -0.1428571), wk =   0.0466472
        k(    3) = (  -0.2857143   0.2857143  -0.2857143), wk =   0.0466472
        k(    4) = (  -0.4285714   0.4285714  -0.4285714), wk =   0.0466472
        k(    5) = (   0.0000000   0.2857143   0.0000000), wk =   0.0349854
        k(    6) = (  -0.1428571   0.4285714  -0.1428571), wk =   0.1399417
        k(    7) = (  -0.2857143   0.5714286  -0.2857143), wk =   0.1399417
        k(    8) = (   0.5714286  -0.2857143   0.5714286), wk =   0.1399417
        k(    9) = (   0.4285714  -0.1428571   0.4285714), wk =   0.1399417
        k(   10) = (   0.2857143  -0.0000000   0.2857143), wk =   0.0699708
        k(   11) = (   0.0000000   0.5714286   0.0000000), wk =   0.0349854
        k(   12) = (  -0.1428571   0.7142857  -0.1428571), wk =   0.1399417
        k(   13) = (   0.7142857  -0.1428571   0.7142857), wk =   0.1399417
        k(   14) = (   0.5714286   0.0000000   0.5714286), wk =   0.0699708
        k(   15) = (   0.0000000   0.8571429   0.0000000), wk =   0.0349854
        k(   16) = (   0.8571429  -0.0000000   0.8571429), wk =   0.0699708
        k(   17) = (  -0.2857143   0.5714286   0.0000000), wk =   0.1399417
        k(   18) = (   0.5714286  -0.2857143   0.8571429), wk =   0.2798834
        k(   19) = (   0.7142857  -0.1428571   1.0000000), wk =   0.1399417
        k(   20) = (   0.5714286   0.0000000   0.8571429), wk =   0.1399417

     Dense  grid:     6879 G-vectors     FFT dimensions: (  27,  27,  27)

     Estimated max dynamical RAM per process >       7.43 MB

     Estimated total dynamical RAM >      37.16 MB

     Initial potential from superposition of free atoms

     starting charge   18.97009, renormalised to   19.00000
     Starting wfcs are   10 randomized atomic wfcs +    4 random wfcs
     Checking if some PAW data can be deallocated... 

     total cpu time spent up to now is        1.4 secs

     Self-consistent Calculation

     iteration #  1     ecut=    75.00 Ry     beta= 0.70
     Davidson diagonalization with overlap
     ethr =  1.00E-02,  avg # of iterations =  4.7

     Threshold (ethr) on eigenvalues was too large:
     Diagonalizing with lowered threshold

     Davidson diagonalization with overlap
     ethr =  1.10E-04,  avg # of iterations =  1.8

     total cpu time spent up to now is        2.2 secs

     total energy              =   -1069.96589121 Ry
     Harris-Foulkes estimate   =   -1069.97933855 Ry
     estimated scf accuracy    <       0.02082474 Ry

     iteration #  2     ecut=    75.00 Ry     beta= 0.70
     Davidson diagonalization with overlap
     ethr =  1.10E-04,  avg # of iterations =  2.0

     total cpu time spent up to now is        2.6 secs

     total energy              =   -1069.96921707 Ry
     Harris-Foulkes estimate   =   -1069.96956385 Ry
     estimated scf accuracy    <       0.00064977 Ry

     iteration #  3     ecut=    75.00 Ry     beta= 0.70
     Davidson diagonalization with overlap
     ethr =  3.42E-06,  avg # of iterations =  3.0

     total cpu time spent up to now is        3.0 secs

     total energy              =   -1069.96930060 Ry
     Harris-Foulkes estimate   =   -1069.96930715 Ry
     estimated scf accuracy    <       0.00002253 Ry

     iteration #  4     ecut=    75.00 Ry     beta= 0.70
     Davidson diagonalization with overlap
     ethr =  1.19E-07,  avg # of iterations =  2.0

     total cpu time spent up to now is        3.4 secs

     total energy              =   -1069.96930606 Ry
     Harris-Foulkes estimate   =   -1069.96930552 Ry
     estimated scf accuracy    <       0.00000026 Ry

     iteration #  5     ecut=    75.00 Ry     beta= 0.70
     Davidson diagonalization with overlap
     ethr =  1.34E-09,  avg # of iterations =  2.3

     total cpu time spent up to now is        3.9 secs

     total energy              =   -1069.96930615 Ry
     Harris-Foulkes estimate   =   -1069.96930610 Ry
     estimated scf accuracy    <       0.00000002 Ry

     iteration #  6     ecut=    75.00 Ry     beta= 0.70
     Davidson diagonalization with overlap
     ethr =  1.25E-10,  avg # of iterations =  2.0

     total cpu time spent up to now is        4.3 secs

     End of self-consistent calculation

          k = 0.0000 0.0000 0.0000 (   893 PWs)   bands (ev):

    -9.2896  -9.2896  -9.2896  -8.9442  -8.9442   9.4633  47.2584  47.2584
    47.2584  48.3117  53.8730  53.8730  53.8730  57.8147

          k =-0.1429 0.1429-0.1429 (   893 PWs)   bands (ev):

    -9.2822  -9.2330  -9.2330  -8.9383  -8.9383  10.2819  40.4082  46.1496
    46.1496  48.2061  55.4967  55.7756  55.7756  56.3888

          k =-0.2857 0.2857-0.2857 (   887 PWs)   bands (ev):

    -9.2734  -9.1987  -9.1987  -8.8278  -8.8278  12.7302  31.7693  44.3562
    44.3562  48.2192  52.8234  53.4402  53.4402  59.8954

          k =-0.4286 0.4286-0.4286 (   878 PWs)   bands (ev):

    -9.2746  -9.2281  -9.2281  -8.6778  -8.6778  16.4278  24.8027  43.1690
    43.1690  48.0969  51.3948  51.9627  51.9627  64.4351

          k = 0.0000 0.2857 0.0000 (   881 PWs)   bands (ev):

    -9.3510  -9.1633  -9.1633  -9.0093  -8.8912  10.5544  43.1701  43.1701
    43.6348  46.3620  50.8095  57.5973  58.4123  58.4123

          k =-0.1429 0.4286-0.1429 (   867 PWs)   bands (ev):

    -9.3597  -9.1244  -9.0828  -8.9739  -8.7931  12.4625  34.9786  41.0985
    42.2455  46.6994  50.2224  57.2701  58.2047  58.6714

          k =-0.2857 0.5714-0.2857 (   872 PWs)   bands (ev):

    -9.3176  -9.1632  -9.1064  -8.8311  -8.6616  15.8382  27.4521  39.5013
    40.4701  45.7768  55.2254  55.6389  56.3537  57.7585

          k = 0.5714-0.2857 0.5714 (   864 PWs)   bands (ev):

    -9.2746  -9.1796  -9.1311  -8.7321  -8.6843  17.9943  24.2582  37.5956
    41.5410  46.2567  53.8929  54.0468  58.2525  62.9813

          k = 0.4286-0.1429 0.4286 (   884 PWs)   bands (ev):

    -9.2292  -9.2099  -9.1143  -8.8696  -8.7397  14.5794  29.8083  37.1918
    44.2351  48.0774  52.5699  53.5023  58.4461  59.7524

          k = 0.2857-0.0000 0.2857 (   879 PWs)   bands (ev):

    -9.2775  -9.1781  -9.1514  -8.9892  -8.8394  11.6462  37.2769  38.8901
    47.3442  50.4966  51.3510  53.7336  54.6448  56.9768

          k = 0.0000 0.5714 0.0000 (   861 PWs)   bands (ev):

    -9.4891  -9.1704  -8.8716  -8.8716  -8.7715  13.8241  35.9066  38.4956
    38.4956  44.2663  44.8653  63.3447  63.3447  64.7515

          k =-0.1429 0.7143-0.1429 (   877 PWs)   bands (ev):

    -9.4791  -9.2132  -8.8512  -8.7815  -8.6509  16.7080  30.3668  34.7003
    37.4684  43.8837  48.1459  61.0424  62.1747  65.8606

          k = 0.7143-0.1429 0.7143 (   870 PWs)   bands (ev):

    -9.3849  -9.0900  -8.8894  -8.8503  -8.6723  19.7640  26.2428  31.2970
    38.2934  44.2422  55.0327  58.9144  59.8086  65.3563

          k = 0.5714 0.0000 0.5714 (   867 PWs)   bands (ev):

    -9.2904  -9.0590  -8.9249  -8.8528  -8.8426  17.7178  29.0634  30.4141
    40.8499  45.6662  57.1219  57.4739  59.5419  60.3179

          k = 0.0000 0.8571 0.0000 (   878 PWs)   bands (ev):

    -9.5986  -9.3156  -8.6750  -8.6302  -8.6302  19.0302  27.4151  35.8885
    35.8885  42.9122  43.2287  64.4237  69.1904  69.1904

          k = 0.8571-0.0000 0.8571 (   874 PWs)   bands (ev):

    -9.5324  -9.2797  -8.7059  -8.6688  -8.6257  21.1489  25.5688  32.0641
    36.1828  43.1845  47.4323  62.6931  66.5528  68.2819

          k =-0.2857 0.5714 0.0000 (   872 PWs)   bands (ev):

    -9.3436  -9.1634  -9.0011  -8.8831  -8.7241  14.8641  32.4341  34.6752
    39.9699  49.0705  49.2685  55.1137  60.5221  63.5832

          k = 0.5714-0.2857 0.8571 (   871 PWs)   bands (ev):

    -9.2548  -9.1897  -8.9681  -8.8420  -8.6889  18.3372  26.8776  33.4379
    37.3009  48.6071  52.4435  56.4245  61.7260  62.5665

          k = 0.7143-0.1429 1.0000 (   884 PWs)   bands (ev):

    -9.4233  -9.2323  -8.8570  -8.7135  -8.6321  19.6963  27.8087  32.3367
    33.8700  47.9016  47.9719  58.4309  64.3217  68.6915

          k = 0.5714 0.0000 0.8571 (   873 PWs)   bands (ev):

    -9.2881  -9.0938  -9.0091  -8.8209  -8.6346  20.8629  28.0300  28.7493
    34.3535  48.7536  55.1803  55.7322  58.1782  66.2022

     the Fermi energy is    47.3647 ev

!    total energy              =   -1069.96930616 Ry
     Harris-Foulkes estimate   =   -1069.96930616 Ry
     estimated scf accuracy    <          3.4E-10 Ry

     total all-electron energy =    -48515.579617 Ry

     The total energy is the sum of the following terms:

     one-electron contribution =       1.51764317 Ry
     hartree contribution      =      28.14020237 Ry
     xc contribution           =     -64.58299506 Ry
     ewald contribution        =    -242.33311988 Ry
     one-center paw contrib.   =    -792.71066275 Ry
     smearing contrib. (-TS)   =      -0.00037401 Ry

     convergence has been achieved in   6 iterations

     Forces acting on atoms (cartesian axes, Ry/au):

     atom    1 type  1   force =     0.00000000    0.00000000    0.00000000

     Total force =     0.000000     Total SCF correction =     0.000000


     Computing stress (Cartesian axis) and pressure

          total   stress  (Ry/bohr**3)                   (kbar)     P= 7114.63
   0.04836428   0.00000000   0.00000000       7114.63      0.00      0.00
   0.00000000   0.04836428   0.00000000          0.00   7114.63      0.00
   0.00000000   0.00000000   0.04836428          0.00      0.00   7114.63


     Writing output data file Fr.save/

     init_run     :      0.39s CPU      0.41s WALL (       1 calls)
     electrons    :      2.72s CPU      2.91s WALL (       1 calls)
     forces       :      0.04s CPU      0.04s WALL (       1 calls)
     stress       :      0.11s CPU      0.12s WALL (       1 calls)

     Called by init_run:
     wfcinit      :      0.08s CPU      0.08s WALL (       1 calls)
     potinit      :      0.12s CPU      0.13s WALL (       1 calls)
     hinit0       :      0.17s CPU      0.17s WALL (       1 calls)

     Called by electrons:
     c_bands      :      1.74s CPU      1.81s WALL (       7 calls)
     sum_band     :      0.30s CPU      0.32s WALL (       7 calls)
     v_of_rho     :      0.03s CPU      0.03s WALL (       7 calls)
     newd         :      0.05s CPU      0.06s WALL (       7 calls)
     PAW_pot      :      0.72s CPU      0.82s WALL (       7 calls)
     mix_rho      :      0.00s CPU      0.00s WALL (       7 calls)

     Called by c_bands:
     init_us_2    :      0.04s CPU      0.04s WALL (     340 calls)
     cegterg      :      1.68s CPU      1.75s WALL (     140 calls)

     Called by sum_band:
     sum_band:bec :      0.00s CPU      0.00s WALL (     140 calls)
     addusdens    :      0.04s CPU      0.05s WALL (       7 calls)

     Called by *egterg:
     h_psi        :      1.24s CPU      1.29s WALL (     518 calls)
     s_psi        :      0.03s CPU      0.04s WALL (     518 calls)
     g_psi        :      0.00s CPU      0.00s WALL (     358 calls)
     cdiaghg      :      0.22s CPU      0.23s WALL (     478 calls)

     Called by h_psi:
     h_psi:pot    :      1.23s CPU      1.28s WALL (     518 calls)
     h_psi:calbec :      0.05s CPU      0.06s WALL (     518 calls)
     vloc_psi     :      1.14s CPU      1.18s WALL (     518 calls)
     add_vuspsi   :      0.04s CPU      0.04s WALL (     518 calls)

     General routines
     calbec       :      0.09s CPU      0.09s WALL (     758 calls)
     fft          :      0.02s CPU      0.02s WALL (     104 calls)
     ffts         :      0.00s CPU      0.00s WALL (       7 calls)
     fftw         :      1.25s CPU      1.31s WALL (   12260 calls)

     Parallel routines
     fft_scatt_xy :      0.11s CPU      0.12s WALL (   12371 calls)
     fft_scatt_yz :      0.31s CPU      0.32s WALL (   12371 calls)

     PWSCF        :     4.27s CPU         4.53s WALL


   This run was terminated on:  22:51:35   7Apr2024            

=------------------------------------------------------------------------------=
   JOB DONE.
=------------------------------------------------------------------------------=
