
     Program PWSCF v.6.3MaX starts on  7Apr2024 at 22:36:56 

     This program is part of the open-source Quantum ESPRESSO suite
     for quantum simulation of materials; please cite
         "P. Giannozzi et al., J. Phys.:Condens. Matter 21 395502 (2009);
         "P. Giannozzi et al., J. Phys.:Condens. Matter 29 465901 (2017);
          URL http://www.quantum-espresso.org", 
     in publications or presentations arising from this work. More details at
     http://www.quantum-espresso.org/quote

     Parallel version (MPI), running on     5 processors

     MPI processes distributed on     1 nodes
     R & G space division:  proc/nbgrp/npool/nimage =       5
     Waiting for input...
     Reading input from standard input

     Current dimensions of program PWSCF are:
     Max number of different atomic species (ntypx) = 10
     Max number of k-points (npk) =  40000
     Max angular momentum in pseudopotentials (lmaxx) =  3

     Subspace diagonalization in iterative solution of the eigenvalue problem:
     a serial algorithm will be used


     Parallelization info
     --------------------
     sticks:   dense  smooth     PW     G-vecs:    dense   smooth      PW
     Min          62      62     21                  765      765     144
     Max          63      63     22                  770      770     146
     Sum         313     313    109                 3839     3839     725



     bravais-lattice index     =            2
     lattice parameter (alat)  =       6.8300  a.u.
     unit-cell volume          =      79.6530 (a.u.)^3
     number of atoms/cell      =            1
     number of atomic types    =            1
     number of electrons       =        19.00
     number of Kohn-Sham states=           14
     kinetic-energy cutoff     =      50.0000  Ry
     charge density cutoff     =     200.0000  Ry
     convergence threshold     =      1.0E-08
     mixing beta               =       0.7000
     number of iterations used =            8  plain     mixing
     Exchange-correlation      = LDA ( 1  1  0  0 0 0)

     celldm(1)=   6.830000  celldm(2)=   0.000000  celldm(3)=   0.000000
     celldm(4)=   0.000000  celldm(5)=   0.000000  celldm(6)=   0.000000

     crystal axes: (cart. coord. in units of alat)
               a(1) = (  -0.500000   0.000000   0.500000 )  
               a(2) = (   0.000000   0.500000   0.500000 )  
               a(3) = (  -0.500000   0.500000   0.000000 )  

     reciprocal axes: (cart. coord. in units 2 pi/alat)
               b(1) = ( -1.000000 -1.000000  1.000000 )  
               b(2) = (  1.000000  1.000000  1.000000 )  
               b(3) = ( -1.000000  1.000000 -1.000000 )  


     PseudoPot. # 1 for Fr read from file:
     /home/lorenzo/pseudos/Fr/Fr.pz-spdn-rrkjus_psl.1.0.0.UPF
     MD5 check sum: 5665a43a3d1ea02b0b7dc7a0ae9ace04
     Pseudo is Ultrasoft + core correction, Zval = 19.0
     Generated using "atomic" code by A. Dal Corso v.6.2.2
     Using radial grid of 1287 points,  6 beta functions with: 
                l(1) =   0
                l(2) =   0
                l(3) =   1
                l(4) =   1
                l(5) =   2
                l(6) =   2
     Q(r) pseudized with 0 coefficients 


     atomic species   valence    mass     pseudopotential
        Fr            19.00   223.00000     Fr( 1.00)

     48 Sym. Ops., with inversion, found



   Cartesian axes

     site n.     atom                  positions (alat units)
         1           Fr  tau(   1) = (   0.0000000   0.0000000   0.0000000  )

     number of k points=     8  gaussian smearing, width (Ry)=  0.0100
                       cart. coord. in units 2pi/alat
        k(    1) = (   0.0000000   0.0000000   0.0000000), wk =   0.0312500
        k(    2) = (  -0.2500000   0.2500000  -0.2500000), wk =   0.2500000
        k(    3) = (   0.5000000  -0.5000000   0.5000000), wk =   0.1250000
        k(    4) = (   0.0000000   0.5000000   0.0000000), wk =   0.1875000
        k(    5) = (   0.7500000  -0.2500000   0.7500000), wk =   0.7500000
        k(    6) = (   0.5000000   0.0000000   0.5000000), wk =   0.3750000
        k(    7) = (   0.0000000  -1.0000000   0.0000000), wk =   0.0937500
        k(    8) = (  -0.5000000  -1.0000000   0.0000000), wk =   0.1875000

     Dense  grid:     3839 G-vectors     FFT dimensions: (  24,  24,  24)

     Estimated max dynamical RAM per process >       4.32 MB

     Estimated total dynamical RAM >      21.61 MB

     Check: negative/imaginary core charge=   -0.000007    0.000000

     Initial potential from superposition of free atoms

     starting charge   18.97647, renormalised to   19.00000
     Starting wfcs are   10 randomized atomic wfcs +    4 random wfcs

     total cpu time spent up to now is        1.0 secs

     Self-consistent Calculation

     iteration #  1     ecut=    50.00 Ry     beta= 0.70
     Davidson diagonalization with overlap
     ethr =  1.00E-02,  avg # of iterations =  4.8

     Threshold (ethr) on eigenvalues was too large:
     Diagonalizing with lowered threshold

     Davidson diagonalization with overlap
     ethr =  7.06E-05,  avg # of iterations =  1.9

     total cpu time spent up to now is        1.2 secs

     total energy              =    -282.49079726 Ry
     Harris-Foulkes estimate   =    -282.49977165 Ry
     estimated scf accuracy    <       0.01312119 Ry

     iteration #  2     ecut=    50.00 Ry     beta= 0.70
     Davidson diagonalization with overlap
     ethr =  6.91E-05,  avg # of iterations =  2.0

     total cpu time spent up to now is        1.3 secs

     total energy              =    -282.49274919 Ry
     Harris-Foulkes estimate   =    -282.49310326 Ry
     estimated scf accuracy    <       0.00048587 Ry

     iteration #  3     ecut=    50.00 Ry     beta= 0.70
     Davidson diagonalization with overlap
     ethr =  2.56E-06,  avg # of iterations =  2.2

     total cpu time spent up to now is        1.4 secs

     total energy              =    -282.49282317 Ry
     Harris-Foulkes estimate   =    -282.49283770 Ry
     estimated scf accuracy    <       0.00002515 Ry

     iteration #  4     ecut=    50.00 Ry     beta= 0.70
     Davidson diagonalization with overlap
     ethr =  1.32E-07,  avg # of iterations =  2.0

     total cpu time spent up to now is        1.4 secs

     total energy              =    -282.49282628 Ry
     Harris-Foulkes estimate   =    -282.49282631 Ry
     estimated scf accuracy    <       0.00000014 Ry

     iteration #  5     ecut=    50.00 Ry     beta= 0.70
     Davidson diagonalization with overlap
     ethr =  7.46E-10,  avg # of iterations =  2.0

     total cpu time spent up to now is        1.5 secs

     End of self-consistent calculation

          k = 0.0000 0.0000 0.0000 (   531 PWs)   bands (ev):

    -9.3710  -9.3710  -9.3710  -9.0358  -9.0358   9.1300  46.9139  46.9139
    46.9139  48.1409  53.7219  53.7219  53.7219  57.4532

          k =-0.2500 0.2500-0.2500 (   483 PWs)   bands (ev):

    -9.3573  -9.2801  -9.2801  -8.9555  -8.9555  11.6353  33.5462  44.4812
    44.4812  48.0233  53.1785  53.8563  53.8563  58.5490

          k = 0.5000-0.5000 0.5000 (   476 PWs)   bands (ev):

    -9.3584  -9.3223  -9.3223  -8.7373  -8.7373  17.1806  23.0147  42.7042
    42.7042  47.8111  51.0505  51.6190  51.6190  65.1589

          k = 0.0000 0.5000 0.0000 (   480 PWs)   bands (ev):

    -9.5361  -9.2194  -9.0298  -9.0298  -8.8930  12.4706  37.7538  39.2269
    39.2269  44.5752  45.5972  61.8176  61.8176  62.6677

          k = 0.7500-0.2500 0.7500 (   472 PWs)   bands (ev):

    -9.4776  -9.2275  -9.0226  -8.9140  -8.7211  17.7955  26.8349  33.6055
    38.0708  44.1215  53.2288  58.3528  58.9981  63.7306

          k = 0.5000 0.0000 0.5000 (   481 PWs)   bands (ev):

    -9.3341  -9.2258  -9.0553  -9.0087  -8.8621  15.6311  30.1495  32.0183
    42.2658  46.5395  54.9396  56.3563  57.1803  59.0588

          k = 0.0000-1.0000 0.0000 (   468 PWs)   bands (ev):

    -9.7000  -9.4350  -8.7504  -8.6716  -8.6716  20.6825  24.6837  35.2679
    35.2679  42.4326  43.0069  64.1074  70.0526  70.9767

          k =-0.5000-1.0000 0.0000 (   464 PWs)   bands (ev):

    -9.2611  -9.2038  -9.2038  -8.9088  -8.6707  20.9929  28.4315  28.4315
    31.8595  53.0382  53.3072  53.3072  56.2649  69.8763

     the Fermi energy is    44.6868 ev

!    total energy              =    -282.49282630 Ry
     Harris-Foulkes estimate   =    -282.49282630 Ry
     estimated scf accuracy    <          2.3E-09 Ry

     The total energy is the sum of the following terms:

     one-electron contribution =      -4.56114929 Ry
     hartree contribution      =      28.31906215 Ry
     xc contribution           =     -63.91720519 Ry
     ewald contribution        =    -242.33311993 Ry
     smearing contrib. (-TS)   =      -0.00041404 Ry

     convergence has been achieved in   5 iterations

     Forces acting on atoms (cartesian axes, Ry/au):

     atom    1 type  1   force =     0.00000000    0.00000000    0.00000000

     Total force =     0.000000     Total SCF correction =     0.000000


     Computing stress (Cartesian axis) and pressure

          total   stress  (Ry/bohr**3)                   (kbar)     P= 7073.20
   0.04808262  -0.00000000   0.00000000       7073.20     -0.00      0.00
  -0.00000000   0.04808262  -0.00000000         -0.00   7073.20     -0.00
   0.00000000  -0.00000000   0.04808262          0.00     -0.00   7073.20


     Writing output data file Fr.save/

     init_run     :      0.16s CPU      0.16s WALL (       1 calls)
     electrons    :      0.45s CPU      0.48s WALL (       1 calls)
     forces       :      0.02s CPU      0.02s WALL (       1 calls)
     stress       :      0.05s CPU      0.05s WALL (       1 calls)

     Called by init_run:
     wfcinit      :      0.02s CPU      0.02s WALL (       1 calls)
     potinit      :      0.00s CPU      0.00s WALL (       1 calls)
     hinit0       :      0.13s CPU      0.13s WALL (       1 calls)

     Called by electrons:
     c_bands      :      0.35s CPU      0.37s WALL (       6 calls)
     sum_band     :      0.08s CPU      0.08s WALL (       6 calls)
     v_of_rho     :      0.00s CPU      0.00s WALL (       6 calls)
     newd         :      0.02s CPU      0.02s WALL (       6 calls)
     mix_rho      :      0.00s CPU      0.00s WALL (       6 calls)

     Called by c_bands:
     init_us_2    :      0.01s CPU      0.01s WALL (     120 calls)
     cegterg      :      0.34s CPU      0.36s WALL (      48 calls)

     Called by sum_band:
     sum_band:bec :      0.00s CPU      0.00s WALL (      48 calls)
     addusdens    :      0.02s CPU      0.02s WALL (       6 calls)

     Called by *egterg:
     h_psi        :      0.24s CPU      0.25s WALL (     175 calls)
     s_psi        :      0.01s CPU      0.01s WALL (     175 calls)
     g_psi        :      0.00s CPU      0.00s WALL (     119 calls)
     cdiaghg      :      0.07s CPU      0.07s WALL (     159 calls)

     Called by h_psi:
     h_psi:pot    :      0.24s CPU      0.25s WALL (     175 calls)
     h_psi:calbec :      0.01s CPU      0.01s WALL (     175 calls)
     vloc_psi     :      0.22s CPU      0.23s WALL (     175 calls)
     add_vuspsi   :      0.01s CPU      0.01s WALL (     175 calls)

     General routines
     calbec       :      0.02s CPU      0.02s WALL (     263 calls)
     fft          :      0.00s CPU      0.00s WALL (      34 calls)
     ffts         :      0.00s CPU      0.00s WALL (       6 calls)
     fftw         :      0.24s CPU      0.26s WALL (    4214 calls)

     Parallel routines
     fft_scatt_xy :      0.02s CPU      0.02s WALL (    4254 calls)
     fft_scatt_yz :      0.07s CPU      0.07s WALL (    4254 calls)

     PWSCF        :     1.53s CPU         1.60s WALL


   This run was terminated on:  22:36:58   7Apr2024            

=------------------------------------------------------------------------------=
   JOB DONE.
=------------------------------------------------------------------------------=
