
     Program PWSCF v.6.3MaX starts on  7Apr2024 at 22:17:37 

     This program is part of the open-source Quantum ESPRESSO suite
     for quantum simulation of materials; please cite
         "P. Giannozzi et al., J. Phys.:Condens. Matter 21 395502 (2009);
         "P. Giannozzi et al., J. Phys.:Condens. Matter 29 465901 (2017);
          URL http://www.quantum-espresso.org", 
     in publications or presentations arising from this work. More details at
     http://www.quantum-espresso.org/quote

     Parallel version (MPI), running on     5 processors

     MPI processes distributed on     1 nodes
     R & G space division:  proc/nbgrp/npool/nimage =       5
     Waiting for input...
     Reading input from standard input

     Current dimensions of program PWSCF are:
     Max number of different atomic species (ntypx) = 10
     Max number of k-points (npk) =  40000
     Max angular momentum in pseudopotentials (lmaxx) =  3
               file Fr.pbe-spdn-kjpaw_psl.1.0.0.UPF: wavefunction(s)  6P renormalized

     Subspace diagonalization in iterative solution of the eigenvalue problem:
     a serial algorithm will be used


     Parallelization info
     --------------------
     sticks:   dense  smooth     PW     G-vecs:    dense   smooth      PW
     Min         129     129     39                 2168     2168     376
     Max         130     130     40                 2171     2171     380
     Sum         649     649    199                10849    10849    1893



     bravais-lattice index     =            2
     lattice parameter (alat)  =       6.8300  a.u.
     unit-cell volume          =      79.6530 (a.u.)^3
     number of atoms/cell      =            1
     number of atomic types    =            1
     number of electrons       =        19.00
     number of Kohn-Sham states=           14
     kinetic-energy cutoff     =     100.0000  Ry
     charge density cutoff     =     400.0000  Ry
     convergence threshold     =      1.0E-08
     mixing beta               =       0.7000
     number of iterations used =            8  plain     mixing
     Exchange-correlation      = SLA PW PBX PBC ( 1  4  3  4 0 0)

     celldm(1)=   6.830000  celldm(2)=   0.000000  celldm(3)=   0.000000
     celldm(4)=   0.000000  celldm(5)=   0.000000  celldm(6)=   0.000000

     crystal axes: (cart. coord. in units of alat)
               a(1) = (  -0.500000   0.000000   0.500000 )  
               a(2) = (   0.000000   0.500000   0.500000 )  
               a(3) = (  -0.500000   0.500000   0.000000 )  

     reciprocal axes: (cart. coord. in units 2 pi/alat)
               b(1) = ( -1.000000 -1.000000  1.000000 )  
               b(2) = (  1.000000  1.000000  1.000000 )  
               b(3) = ( -1.000000  1.000000 -1.000000 )  


     PseudoPot. # 1 for Fr read from file:
     /home/lorenzo/pseudos/Fr/Fr.pbe-spdn-kjpaw_psl.1.0.0.UPF
     MD5 check sum: 362a188b966a64328b94f1ef5f32e8c4
     Pseudo is Projector augmented-wave + core cor, Zval = 19.0
     Generated using "atomic" code by A. Dal Corso v.6.2.2
     Shape of augmentation charge: PSQ
     Using radial grid of 1287 points,  6 beta functions with: 
                l(1) =   0
                l(2) =   0
                l(3) =   1
                l(4) =   1
                l(5) =   2
                l(6) =   2
     Q(r) pseudized with 0 coefficients 


     atomic species   valence    mass     pseudopotential
        Fr            19.00   223.00000     Fr( 1.00)

     48 Sym. Ops., with inversion, found



   Cartesian axes

     site n.     atom                  positions (alat units)
         1           Fr  tau(   1) = (   0.0000000   0.0000000   0.0000000  )

     number of k points=    29  gaussian smearing, width (Ry)=  0.0100
                       cart. coord. in units 2pi/alat
        k(    1) = (   0.0000000   0.0000000   0.0000000), wk =   0.0039062
        k(    2) = (  -0.1250000   0.1250000  -0.1250000), wk =   0.0312500
        k(    3) = (  -0.2500000   0.2500000  -0.2500000), wk =   0.0312500
        k(    4) = (  -0.3750000   0.3750000  -0.3750000), wk =   0.0312500
        k(    5) = (   0.5000000  -0.5000000   0.5000000), wk =   0.0156250
        k(    6) = (   0.0000000   0.2500000   0.0000000), wk =   0.0234375
        k(    7) = (  -0.1250000   0.3750000  -0.1250000), wk =   0.0937500
        k(    8) = (  -0.2500000   0.5000000  -0.2500000), wk =   0.0937500
        k(    9) = (   0.6250000  -0.3750000   0.6250000), wk =   0.0937500
        k(   10) = (   0.5000000  -0.2500000   0.5000000), wk =   0.0937500
        k(   11) = (   0.3750000  -0.1250000   0.3750000), wk =   0.0937500
        k(   12) = (   0.2500000   0.0000000   0.2500000), wk =   0.0468750
        k(   13) = (   0.0000000   0.5000000   0.0000000), wk =   0.0234375
        k(   14) = (  -0.1250000   0.6250000  -0.1250000), wk =   0.0937500
        k(   15) = (   0.7500000  -0.2500000   0.7500000), wk =   0.0937500
        k(   16) = (   0.6250000  -0.1250000   0.6250000), wk =   0.0937500
        k(   17) = (   0.5000000   0.0000000   0.5000000), wk =   0.0468750
        k(   18) = (   0.0000000   0.7500000   0.0000000), wk =   0.0234375
        k(   19) = (   0.8750000  -0.1250000   0.8750000), wk =   0.0937500
        k(   20) = (   0.7500000   0.0000000   0.7500000), wk =   0.0468750
        k(   21) = (   0.0000000  -1.0000000   0.0000000), wk =   0.0117188
        k(   22) = (  -0.2500000   0.5000000   0.0000000), wk =   0.0937500
        k(   23) = (   0.6250000  -0.3750000   0.8750000), wk =   0.1875000
        k(   24) = (   0.5000000  -0.2500000   0.7500000), wk =   0.0937500
        k(   25) = (   0.7500000  -0.2500000   1.0000000), wk =   0.0937500
        k(   26) = (   0.6250000  -0.1250000   0.8750000), wk =   0.1875000
        k(   27) = (   0.5000000   0.0000000   0.7500000), wk =   0.0937500
        k(   28) = (  -0.2500000  -1.0000000   0.0000000), wk =   0.0468750
        k(   29) = (  -0.5000000  -1.0000000   0.0000000), wk =   0.0234375

     Dense  grid:    10849 G-vectors     FFT dimensions: (  32,  32,  32)

     Estimated max dynamical RAM per process >      11.60 MB

     Estimated total dynamical RAM >      57.98 MB

     Initial potential from superposition of free atoms

     starting charge   18.97009, renormalised to   19.00000
     Starting wfcs are   10 randomized atomic wfcs +    4 random wfcs
     Checking if some PAW data can be deallocated... 

     total cpu time spent up to now is        1.5 secs

     Self-consistent Calculation

     iteration #  1     ecut=   100.00 Ry     beta= 0.70
     Davidson diagonalization with overlap
     ethr =  1.00E-02,  avg # of iterations =  5.0

     Threshold (ethr) on eigenvalues was too large:
     Diagonalizing with lowered threshold

     Davidson diagonalization with overlap
     ethr =  1.07E-04,  avg # of iterations =  1.7

     total cpu time spent up to now is        2.9 secs

     total energy              =   -1069.95791626 Ry
     Harris-Foulkes estimate   =   -1069.97096237 Ry
     estimated scf accuracy    <       0.02021241 Ry

     iteration #  2     ecut=   100.00 Ry     beta= 0.70
     Davidson diagonalization with overlap
     ethr =  1.06E-04,  avg # of iterations =  2.0

     total cpu time spent up to now is        3.6 secs

     total energy              =   -1069.96083671 Ry
     Harris-Foulkes estimate   =   -1069.96115855 Ry
     estimated scf accuracy    <       0.00058286 Ry

     iteration #  3     ecut=   100.00 Ry     beta= 0.70
     Davidson diagonalization with overlap
     ethr =  3.07E-06,  avg # of iterations =  2.6

     total cpu time spent up to now is        4.2 secs

     total energy              =   -1069.96089340 Ry
     Harris-Foulkes estimate   =   -1069.96090367 Ry
     estimated scf accuracy    <       0.00002451 Ry

     iteration #  4     ecut=   100.00 Ry     beta= 0.70
     Davidson diagonalization with overlap
     ethr =  1.29E-07,  avg # of iterations =  2.1

     total cpu time spent up to now is        5.0 secs

     total energy              =   -1069.96089862 Ry
     Harris-Foulkes estimate   =   -1069.96089826 Ry
     estimated scf accuracy    <       0.00000018 Ry

     iteration #  5     ecut=   100.00 Ry     beta= 0.70
     Davidson diagonalization with overlap
     ethr =  9.65E-10,  avg # of iterations =  2.3

     total cpu time spent up to now is        5.6 secs

     total energy              =   -1069.96089871 Ry
     Harris-Foulkes estimate   =   -1069.96089865 Ry
     estimated scf accuracy    <       0.00000002 Ry

     iteration #  6     ecut=   100.00 Ry     beta= 0.70
     Davidson diagonalization with overlap
     ethr =  8.32E-11,  avg # of iterations =  2.0

     total cpu time spent up to now is        6.4 secs

     End of self-consistent calculation

          k = 0.0000 0.0000 0.0000 (  1363 PWs)   bands (ev):

    -9.3002  -9.3002  -9.3002  -8.9558  -8.9558   9.4584  47.2565  47.2565
    47.2565  48.3039  53.8666  53.8666  53.8666  57.8258

          k =-0.1250 0.1250-0.1250 (  1357 PWs)   bands (ev):

    -9.2946  -9.2547  -9.2547  -8.9527  -8.9527  10.0849  41.5249  46.3636
    46.3636  48.1938  55.3679  55.3679  55.7505  56.8239

          k =-0.2500 0.2500-0.2500 (  1345 PWs)   bands (ev):

    -9.2864  -9.2075  -9.2075  -8.8799  -8.8799  11.9648  33.8261  44.7750
    44.7750  48.2258  53.4214  54.0498  54.0498  58.7499

          k =-0.3750 0.3750-0.3750 (  1350 PWs)   bands (ev):

    -9.2850  -9.2285  -9.2285  -8.7357  -8.7357  14.9810  27.0923  43.4892
    43.4892  48.1510  51.7400  52.3372  52.3372  62.8453

          k = 0.5000-0.5000 0.5000 (  1350 PWs)   bands (ev):

    -9.2864  -9.2454  -9.2454  -8.6666  -8.6666  17.5376  23.2694  42.9982
    42.9982  48.0673  51.2226  51.7827  51.7827  65.4661

          k = 0.0000 0.2500 0.0000 (  1355 PWs)   bands (ev):

    -9.3485  -9.2029  -9.2029  -9.0058  -8.9148  10.2934  43.8343  43.8343
    44.3523  46.6738  51.9367  56.8574  57.6930  57.6930

          k =-0.1250 0.3750-0.1250 (  1344 PWs)   bands (ev):

    -9.3597  -9.1426  -9.1245  -9.0046  -8.8439  11.7565  36.6494  41.8856
    43.3912  47.5023  50.1143  56.5893  58.2295  58.5586

          k =-0.2500 0.5000-0.2500 (  1339 PWs)   bands (ev):

    -9.3287  -9.1762  -9.1297  -8.8793  -8.7152  14.4172  29.6222  40.9312
    41.1608  46.2984  54.0771  55.8559  55.8752  57.1361

          k = 0.6250-0.3750 0.6250 (  1344 PWs)   bands (ev):

    -9.2981  -9.2001  -9.1594  -8.7606  -8.6624  17.5790  24.4248  39.1758
    41.1946  46.1632  54.0249  54.1287  56.4934  60.9438

          k = 0.5000-0.2500 0.5000 (  1359 PWs)   bands (ev):

    -9.2592  -9.2212  -9.1625  -8.7525  -8.7200  16.6116  25.8203  38.1713
    42.7558  47.0834  52.8390  53.2325  57.9368  61.9460

          k = 0.3750-0.1250 0.3750 (  1348 PWs)   bands (ev):

    -9.2633  -9.2049  -9.1402  -8.9271  -8.7772  13.4065  31.8688  38.3452
    45.3832  49.0397  51.8045  53.1496  57.2819  58.8253

          k = 0.2500 0.0000 0.2500 (  1365 PWs)   bands (ev):

    -9.2964  -9.1945  -9.1930  -8.9945  -8.8803  11.1301  38.6829  40.1239
    47.6707  49.9237  52.2901  53.9389  54.4482  56.7292

          k = 0.0000 0.5000 0.0000 (  1331 PWs)   bands (ev):

    -9.4643  -9.1378  -8.9622  -8.9622  -8.8150  12.8005  38.0817  39.5020
    39.5020  44.6873  45.8490  62.0952  62.0952  62.8425

          k =-0.1250 0.6250-0.1250 (  1339 PWs)   bands (ev):

    -9.4710  -9.1928  -8.9183  -8.8551  -8.7053  15.0585  32.4111  36.8192
    38.2430  44.3746  47.8335  60.6737  61.3680  63.6721

          k = 0.7500-0.2500 0.7500 (  1340 PWs)   bands (ev):

    -9.4041  -9.1481  -8.9492  -8.8460  -8.6514  18.1460  27.1051  33.8594
    38.3456  44.3174  53.4551  58.5474  59.2276  63.9540

          k = 0.6250-0.1250 0.6250 (  1339 PWs)   bands (ev):

    -9.3331  -9.0581  -8.9729  -8.8764  -8.7507  18.9147  26.1956  32.0157
    39.8542  45.0999  57.2212  57.4534  59.7116  62.5127

          k = 0.5000 0.0000 0.5000 (  1340 PWs)   bands (ev):

    -9.2583  -9.1555  -8.9761  -8.9417  -8.7884  15.9694  30.4579  32.2431
    42.5410  46.7595  55.1531  56.5193  57.4307  59.3090

          k = 0.0000 0.7500 0.0000 (  1359 PWs)   bands (ev):

    -9.5794  -9.2841  -8.7145  -8.7128  -8.7128  16.9022  30.4218  36.5732
    36.5732  43.3715  43.4856  64.5116  66.8809  66.8809

          k = 0.8750-0.1250 0.8750 (  1343 PWs)   bands (ev):

    -9.5500  -9.2905  -8.7403  -8.6889  -8.6341  19.6195  27.1327  33.0234
    36.2831  43.2445  46.7313  62.7073  65.5108  69.3271

          k = 0.7500 0.0000 0.7500 (  1350 PWs)   bands (ev):

    -9.4382  -9.1523  -8.8142  -8.7966  -8.7022  20.8542  26.8652  29.1510
    37.4472  43.7957  52.9234  60.5596  62.7752  65.0466

          k = 0.0000-1.0000 0.0000 (  1362 PWs)   bands (ev):

    -9.6267  -9.3483  -8.6727  -8.6066  -8.6066  21.0755  24.9169  35.5466
    35.5466  42.7125  43.0940  64.3683  70.3448  71.3097

          k =-0.2500 0.5000 0.0000 (  1343 PWs)   bands (ev):

    -9.3599  -9.1587  -9.0228  -8.9726  -8.7634  13.6185  34.1406  36.1892
    41.8776  48.8925  48.9470  55.4170  59.0836  61.9243

          k = 0.6250-0.3750 0.8750 (  1346 PWs)   bands (ev):

    -9.2909  -9.2002  -9.0181  -8.8607  -8.7134  16.5428  28.5269  34.7956
    39.1749  48.2334  52.3303  55.2512  59.8244  62.5199

          k = 0.5000-0.2500 0.7500 (  1356 PWs)   bands (ev):

    -9.2590  -9.2132  -8.9885  -8.8560  -8.6872  18.8973  25.0449  34.7487
    37.9590  47.9928  52.1987  60.0492  60.4766  61.1838

          k = 0.7500-0.2500 1.0000 (  1339 PWs)   bands (ev):

    -9.4492  -9.2290  -8.9009  -8.7164  -8.6983  17.5896  29.8470  33.5555
    35.5003  47.3669  47.3766  58.1732  65.9885  66.0985

          k = 0.6250-0.1250 0.8750 (  1342 PWs)   bands (ev):

    -9.3435  -9.1606  -8.9539  -8.8086  -8.6536  20.2520  27.1625  30.6870
    34.8217  47.7126  53.2247  56.1504  61.3966  65.6708

          k = 0.5000 0.0000 0.7500 (  1342 PWs)   bands (ev):

    -9.2675  -9.1259  -9.0013  -8.8398  -8.7236  19.3233  28.5018  29.5922
    36.3957  48.8089  54.0643  56.3133  60.0112  63.3878

          k =-0.2500-1.0000 0.0000 (  1350 PWs)   bands (ev):

    -9.4868  -9.2763  -8.7664  -8.7392  -8.6066  21.2283  25.8991  32.6274
    33.4902  46.8537  46.8592  60.6629  64.3434  68.4231

          k =-0.5000-1.0000 0.0000 (  1348 PWs)   bands (ev):

    -9.1783  -9.1365  -9.1365  -8.8316  -8.6065  21.3961  28.6600  28.6600
    32.1219  53.3402  53.4741  53.4741  56.5059  70.1607

     the Fermi energy is    47.1498 ev

!    total energy              =   -1069.96089872 Ry
     Harris-Foulkes estimate   =   -1069.96089872 Ry
     estimated scf accuracy    <          5.1E-10 Ry

     total all-electron energy =    -48515.571210 Ry

     The total energy is the sum of the following terms:

     one-electron contribution =       1.53638678 Ry
     hartree contribution      =      28.12752123 Ry
     xc contribution           =     -64.58223659 Ry
     ewald contribution        =    -242.33311988 Ry
     one-center paw contrib.   =    -792.70918381 Ry
     smearing contrib. (-TS)   =      -0.00026645 Ry

     convergence has been achieved in   6 iterations

     Forces acting on atoms (cartesian axes, Ry/au):

     atom    1 type  1   force =     0.00000000    0.00000000    0.00000000

     Total force =     0.000000     Total SCF correction =     0.000000


     Computing stress (Cartesian axis) and pressure

          total   stress  (Ry/bohr**3)                   (kbar)     P= 7156.94
   0.04865187   0.00000000   0.00000000       7156.94      0.00      0.00
   0.00000000   0.04865187  -0.00000000          0.00   7156.94     -0.00
   0.00000000  -0.00000000   0.04865187          0.00     -0.00   7156.94


     Writing output data file Fr.save/

     init_run     :      0.49s CPU      0.53s WALL (       1 calls)
     electrons    :      4.61s CPU      4.91s WALL (       1 calls)
     forces       :      0.09s CPU      0.09s WALL (       1 calls)
     stress       :      0.26s CPU      0.26s WALL (       1 calls)

     Called by init_run:
     wfcinit      :      0.14s CPU      0.16s WALL (       1 calls)
     potinit      :      0.11s CPU      0.13s WALL (       1 calls)
     hinit0       :      0.21s CPU      0.22s WALL (       1 calls)

     Called by electrons:
     c_bands      :      3.30s CPU      3.54s WALL (       7 calls)
     sum_band     :      0.56s CPU      0.60s WALL (       7 calls)
     v_of_rho     :      0.05s CPU      0.05s WALL (       7 calls)
     newd         :      0.08s CPU      0.08s WALL (       7 calls)
     PAW_pot      :      0.72s CPU      0.74s WALL (       7 calls)
     mix_rho      :      0.00s CPU      0.00s WALL (       7 calls)

     Called by c_bands:
     init_us_2    :      0.08s CPU      0.08s WALL (     493 calls)
     cegterg      :      3.18s CPU      3.42s WALL (     203 calls)

     Called by sum_band:
     sum_band:bec :      0.00s CPU      0.00s WALL (     203 calls)
     addusdens    :      0.07s CPU      0.07s WALL (       7 calls)

     Called by *egterg:
     h_psi        :      2.32s CPU      2.53s WALL (     744 calls)
     s_psi        :      0.07s CPU      0.08s WALL (     744 calls)
     g_psi        :      0.01s CPU      0.01s WALL (     512 calls)
     cdiaghg      :      0.33s CPU      0.34s WALL (     686 calls)

     Called by h_psi:
     h_psi:pot    :      2.30s CPU      2.52s WALL (     744 calls)
     h_psi:calbec :      0.13s CPU      0.15s WALL (     744 calls)
     vloc_psi     :      2.09s CPU      2.28s WALL (     744 calls)
     add_vuspsi   :      0.07s CPU      0.08s WALL (     744 calls)

     General routines
     calbec       :      0.21s CPU      0.23s WALL (    1092 calls)
     fft          :      0.03s CPU      0.03s WALL (     104 calls)
     ffts         :      0.00s CPU      0.00s WALL (       7 calls)
     fftw         :      2.28s CPU      2.49s WALL (   17806 calls)

     Parallel routines
     fft_scatt_xy :      0.21s CPU      0.23s WALL (   17917 calls)
     fft_scatt_yz :      0.82s CPU      0.89s WALL (   17917 calls)

     PWSCF        :     6.39s CPU         6.82s WALL


   This run was terminated on:  22:17:44   7Apr2024            

=------------------------------------------------------------------------------=
   JOB DONE.
=------------------------------------------------------------------------------=
