
     Program PWSCF v.6.3MaX starts on  7Apr2024 at 22:52:38 

     This program is part of the open-source Quantum ESPRESSO suite
     for quantum simulation of materials; please cite
         "P. Giannozzi et al., J. Phys.:Condens. Matter 21 395502 (2009);
         "P. Giannozzi et al., J. Phys.:Condens. Matter 29 465901 (2017);
          URL http://www.quantum-espresso.org", 
     in publications or presentations arising from this work. More details at
     http://www.quantum-espresso.org/quote

     Parallel version (MPI), running on     5 processors

     MPI processes distributed on     1 nodes
     R & G space division:  proc/nbgrp/npool/nimage =       5
     Waiting for input...
     Reading input from standard input

     Current dimensions of program PWSCF are:
     Max number of different atomic species (ntypx) = 10
     Max number of k-points (npk) =  40000
     Max angular momentum in pseudopotentials (lmaxx) =  3

     Subspace diagonalization in iterative solution of the eigenvalue problem:
     a serial algorithm will be used


     Parallelization info
     --------------------
     sticks:   dense  smooth     PW     G-vecs:    dense   smooth      PW
     Min         102     102     32                 1545     1545     280
     Max         103     103     33                 1546     1546     283
     Sum         511     511    163                 7727     7727    1411



     bravais-lattice index     =            2
     lattice parameter (alat)  =       6.8300  a.u.
     unit-cell volume          =      79.6530 (a.u.)^3
     number of atoms/cell      =            1
     number of atomic types    =            1
     number of electrons       =        19.00
     number of Kohn-Sham states=           14
     kinetic-energy cutoff     =      80.0000  Ry
     charge density cutoff     =     320.0000  Ry
     convergence threshold     =      1.0E-08
     mixing beta               =       0.7000
     number of iterations used =            8  plain     mixing
     Exchange-correlation      = PBE ( 1  4  3  4 0 0)

     celldm(1)=   6.830000  celldm(2)=   0.000000  celldm(3)=   0.000000
     celldm(4)=   0.000000  celldm(5)=   0.000000  celldm(6)=   0.000000

     crystal axes: (cart. coord. in units of alat)
               a(1) = (  -0.500000   0.000000   0.500000 )  
               a(2) = (   0.000000   0.500000   0.500000 )  
               a(3) = (  -0.500000   0.500000   0.000000 )  

     reciprocal axes: (cart. coord. in units 2 pi/alat)
               b(1) = ( -1.000000 -1.000000  1.000000 )  
               b(2) = (  1.000000  1.000000  1.000000 )  
               b(3) = ( -1.000000  1.000000 -1.000000 )  


     PseudoPot. # 1 for Fr read from file:
     /home/lorenzo/pseudos/Fr/Fr.pbe-spdn-rrkjus_psl.1.0.0.UPF
     MD5 check sum: 07cabfa18982bd6b5b9d8ae5689d9732
     Pseudo is Ultrasoft + core correction, Zval = 19.0
     Generated using "atomic" code by A. Dal Corso v.6.2.2
     Using radial grid of 1287 points,  6 beta functions with: 
                l(1) =   0
                l(2) =   0
                l(3) =   1
                l(4) =   1
                l(5) =   2
                l(6) =   2
     Q(r) pseudized with 0 coefficients 


     atomic species   valence    mass     pseudopotential
        Fr            19.00   223.00000     Fr( 1.00)

     48 Sym. Ops., with inversion, found



   Cartesian axes

     site n.     atom                  positions (alat units)
         1           Fr  tau(   1) = (   0.0000000   0.0000000   0.0000000  )

     number of k points=    47  gaussian smearing, width (Ry)=  0.0100
                       cart. coord. in units 2pi/alat
        k(    1) = (   0.0000000   0.0000000   0.0000000), wk =   0.0020000
        k(    2) = (  -0.1000000   0.1000000  -0.1000000), wk =   0.0160000
        k(    3) = (  -0.2000000   0.2000000  -0.2000000), wk =   0.0160000
        k(    4) = (  -0.3000000   0.3000000  -0.3000000), wk =   0.0160000
        k(    5) = (  -0.4000000   0.4000000  -0.4000000), wk =   0.0160000
        k(    6) = (   0.5000000  -0.5000000   0.5000000), wk =   0.0080000
        k(    7) = (   0.0000000   0.2000000   0.0000000), wk =   0.0120000
        k(    8) = (  -0.1000000   0.3000000  -0.1000000), wk =   0.0480000
        k(    9) = (  -0.2000000   0.4000000  -0.2000000), wk =   0.0480000
        k(   10) = (  -0.3000000   0.5000000  -0.3000000), wk =   0.0480000
        k(   11) = (   0.6000000  -0.4000000   0.6000000), wk =   0.0480000
        k(   12) = (   0.5000000  -0.3000000   0.5000000), wk =   0.0480000
        k(   13) = (   0.4000000  -0.2000000   0.4000000), wk =   0.0480000
        k(   14) = (   0.3000000  -0.1000000   0.3000000), wk =   0.0480000
        k(   15) = (   0.2000000   0.0000000   0.2000000), wk =   0.0240000
        k(   16) = (   0.0000000   0.4000000   0.0000000), wk =   0.0120000
        k(   17) = (  -0.1000000   0.5000000  -0.1000000), wk =   0.0480000
        k(   18) = (  -0.2000000   0.6000000  -0.2000000), wk =   0.0480000
        k(   19) = (   0.7000000  -0.3000000   0.7000000), wk =   0.0480000
        k(   20) = (   0.6000000  -0.2000000   0.6000000), wk =   0.0480000
        k(   21) = (   0.5000000  -0.1000000   0.5000000), wk =   0.0480000
        k(   22) = (   0.4000000   0.0000000   0.4000000), wk =   0.0240000
        k(   23) = (   0.0000000   0.6000000   0.0000000), wk =   0.0120000
        k(   24) = (  -0.1000000   0.7000000  -0.1000000), wk =   0.0480000
        k(   25) = (   0.8000000  -0.2000000   0.8000000), wk =   0.0480000
        k(   26) = (   0.7000000  -0.1000000   0.7000000), wk =   0.0480000
        k(   27) = (   0.6000000  -0.0000000   0.6000000), wk =   0.0240000
        k(   28) = (   0.0000000   0.8000000   0.0000000), wk =   0.0120000
        k(   29) = (   0.9000000  -0.1000000   0.9000000), wk =   0.0480000
        k(   30) = (   0.8000000   0.0000000   0.8000000), wk =   0.0240000
        k(   31) = (   0.0000000  -1.0000000   0.0000000), wk =   0.0060000
        k(   32) = (  -0.2000000   0.4000000   0.0000000), wk =   0.0480000
        k(   33) = (  -0.3000000   0.5000000  -0.1000000), wk =   0.0960000
        k(   34) = (   0.6000000  -0.4000000   0.8000000), wk =   0.0960000
        k(   35) = (   0.5000000  -0.3000000   0.7000000), wk =   0.0480000
        k(   36) = (  -0.2000000   0.6000000   0.0000000), wk =   0.0480000
        k(   37) = (   0.7000000  -0.3000000   0.9000000), wk =   0.0960000
        k(   38) = (   0.6000000  -0.2000000   0.8000000), wk =   0.0960000
        k(   39) = (   0.5000000  -0.1000000   0.7000000), wk =   0.0960000
        k(   40) = (   0.4000000   0.0000000   0.6000000), wk =   0.0480000
        k(   41) = (   0.8000000  -0.2000000   1.0000000), wk =   0.0480000
        k(   42) = (   0.7000000  -0.1000000   0.9000000), wk =   0.0960000
        k(   43) = (   0.6000000   0.0000000   0.8000000), wk =   0.0480000
        k(   44) = (  -0.2000000  -1.0000000   0.0000000), wk =   0.0240000
        k(   45) = (   0.6000000  -0.2000000   1.0000000), wk =   0.0480000
        k(   46) = (   0.5000000  -0.1000000   0.9000000), wk =   0.0480000
        k(   47) = (  -0.4000000  -1.0000000   0.0000000), wk =   0.0240000

     Dense  grid:     7727 G-vectors     FFT dimensions: (  27,  27,  27)

     Estimated max dynamical RAM per process >       9.27 MB

     Estimated total dynamical RAM >      46.33 MB

     Initial potential from superposition of free atoms

     starting charge   18.97009, renormalised to   19.00000
     Starting wfcs are   10 randomized atomic wfcs +    4 random wfcs

     total cpu time spent up to now is        1.4 secs

     Self-consistent Calculation

     iteration #  1     ecut=    80.00 Ry     beta= 0.70
     Davidson diagonalization with overlap
     ethr =  1.00E-02,  avg # of iterations =  4.8

     Threshold (ethr) on eigenvalues was too large:
     Diagonalizing with lowered threshold

     Davidson diagonalization with overlap
     ethr =  1.04E-04,  avg # of iterations =  1.7

     total cpu time spent up to now is        3.3 secs

     total energy              =    -282.84457003 Ry
     Harris-Foulkes estimate   =    -282.85675505 Ry
     estimated scf accuracy    <       0.01959910 Ry

     iteration #  2     ecut=    80.00 Ry     beta= 0.70
     Davidson diagonalization with overlap
     ethr =  1.03E-04,  avg # of iterations =  2.0

     total cpu time spent up to now is        4.0 secs

     total energy              =    -282.84786289 Ry
     Harris-Foulkes estimate   =    -282.84842920 Ry
     estimated scf accuracy    <       0.00077575 Ry

     iteration #  3     ecut=    80.00 Ry     beta= 0.70
     Davidson diagonalization with overlap
     ethr =  4.08E-06,  avg # of iterations =  2.3

     total cpu time spent up to now is        4.7 secs

     total energy              =    -282.84801399 Ry
     Harris-Foulkes estimate   =    -282.84803058 Ry
     estimated scf accuracy    <       0.00003639 Ry

     iteration #  4     ecut=    80.00 Ry     beta= 0.70
     Davidson diagonalization with overlap
     ethr =  1.92E-07,  avg # of iterations =  1.6

     total cpu time spent up to now is        5.3 secs

     total energy              =    -282.84801750 Ry
     Harris-Foulkes estimate   =    -282.84801751 Ry
     estimated scf accuracy    <       0.00000016 Ry

     iteration #  5     ecut=    80.00 Ry     beta= 0.70
     Davidson diagonalization with overlap
     ethr =  8.33E-10,  avg # of iterations =  2.2

     total cpu time spent up to now is        6.0 secs

     End of self-consistent calculation

          k = 0.0000 0.0000 0.0000 (   941 PWs)   bands (ev):

    -9.2744  -9.2744  -9.2744  -8.9314  -8.9314   9.4728  47.2897  47.2897
    47.2897  48.3085  53.8681  53.8681  53.8681  57.8174

          k =-0.1000 0.1000-0.1000 (   950 PWs)   bands (ev):

    -9.2708  -9.2434  -9.2434  -8.9309  -8.9309   9.8737  43.0966  46.6795
    46.6795  48.1938  54.8693  54.8694  55.8563  57.4412

          k =-0.2000 0.2000-0.2000 (   956 PWs)   bands (ev):

    -9.2637  -9.1911  -9.1911  -8.8989  -8.8989  11.0791  36.8603  45.4435
    45.4435  48.2240  54.3914  55.0598  55.0598  57.2647

          k =-0.3000 0.3000-0.3000 (   956 PWs)   bands (ev):

    -9.2594  -9.1865  -9.1865  -8.7972  -8.7972  13.0713  30.9854  44.2242
    44.2242  48.2091  52.6142  53.2197  53.2197  60.3699

          k =-0.4000 0.4000-0.4000 (   951 PWs)   bands (ev):

    -9.2596  -9.2089  -9.2089  -8.6865  -8.6865  15.6835  25.9687  43.3503
    43.3503  48.1187  51.5626  52.1313  52.1313  63.6410

          k = 0.5000-0.5000 0.5000 (   960 PWs)   bands (ev):

    -9.2608  -9.2204  -9.2204  -8.6412  -8.6412  17.5611  23.2791  43.0325
    43.0325  48.0573  51.2383  51.7770  51.7770  65.4831

          k = 0.0000 0.2000 0.0000 (   945 PWs)   bands (ev):

    -9.3062  -9.2112  -9.2112  -8.9633  -8.9047  10.0072  44.7936  44.7936
    45.2973  47.1276  53.5948  55.9215  56.6562  56.6562

          k =-0.1000 0.3000-0.1000 (   954 PWs)   bands (ev):

    -9.3168  -9.1509  -9.1453  -8.9797  -8.8647  10.9446  39.1168  43.1337
    44.7486  48.2035  50.9207  55.7592  58.1585  58.3913

          k =-0.2000 0.4000-0.2000 (   956 PWs)   bands (ev):

    -9.2998  -9.1471  -9.1227  -8.9128  -8.7725  12.6778  33.1259  41.9845
    43.3216  47.5427  52.3266  55.5941  56.3403  56.8567

          k =-0.3000 0.5000-0.3000 (   966 PWs)   bands (ev):

    -9.2790  -9.1761  -9.1428  -8.7967  -8.6727  15.1139  27.8202  41.4963
    41.6674  46.6766  53.9954  54.5926  54.6399  58.4327

          k = 0.6000-0.4000 0.6000 (   968 PWs)   bands (ev):

    -9.2608  -9.1972  -9.1643  -8.7043  -8.6386  17.5735  24.0374  40.2980
    41.7758  46.6086  53.2125  53.3812  55.1341  62.3439

          k = 0.5000-0.3000 0.5000 (   958 PWs)   bands (ev):

    -9.2373  -9.2094  -9.1662  -8.6972  -8.6770  16.8756  25.0085  39.5536
    42.8598  47.2256  52.3609  52.7262  56.2397  62.9591

          k = 0.4000-0.2000 0.4000 (   958 PWs)   bands (ev):

    -9.2389  -9.1908  -9.1481  -8.8249  -8.7231  14.2366  29.5025  39.5313
    44.6508  48.4716  51.7532  52.6326  57.7670  59.2308

          k = 0.3000-0.1000 0.3000 (   949 PWs)   bands (ev):

    -9.2605  -9.1668  -9.1440  -8.9435  -8.8122  12.0134  35.0677  40.2151
    46.7408  49.8312  51.6296  53.1873  55.9673  57.6996

          k = 0.2000 0.0000 0.2000 (   955 PWs)   bands (ev):

    -9.2757  -9.2042  -9.1875  -8.9595  -8.8892  10.5430  40.7562  41.9151
    47.8223  49.2578  53.6095  54.2329  54.7343  56.4838

          k = 0.0000 0.4000 0.0000 (   966 PWs)   bands (ev):

    -9.3884  -9.0539  -9.0429  -9.0429  -8.8343  11.6136  40.9555  41.1366
    41.1366  45.4025  47.7376  60.2305  60.4402  60.4402

          k =-0.1000 0.5000-0.1000 (   963 PWs)   bands (ev):

    -9.4060  -9.1129  -8.9808  -8.9360  -8.7591  13.0805  35.4979  39.7713
    40.0683  45.4466  47.7792  60.0066  60.1227  61.2343

          k =-0.2000 0.6000-0.2000 (   964 PWs)   bands (ev):

    -9.3731  -9.1360  -8.9901  -8.8615  -8.6613  15.2823  30.2111  37.8207
    39.1861  44.9184  51.6380  58.2391  58.6503  60.5977

          k = 0.7000-0.3000 0.7000 (   960 PWs)   bands (ev):

    -9.3290  -9.1114  -9.0163  -8.8220  -8.6308  17.8401  25.9757  35.8681
    39.4687  44.9567  56.1831  56.7124  57.2397  60.9374

          k = 0.6000-0.2000 0.6000 (   963 PWs)   bands (ev):

    -9.2848  -9.0985  -9.0315  -8.7859  -8.6986  18.4481  25.1846  34.5840
    40.6386  45.5788  55.7050  55.7065  60.8471  62.5015

          k = 0.5000-0.1000 0.5000 (   964 PWs)   bands (ev):

    -9.2331  -9.1447  -9.0244  -8.8423  -8.7483  16.0987  28.8125  34.1353
    42.6103  46.8066  54.5330  55.2275  58.9341  60.1385

          k = 0.4000 0.0000 0.4000 (   967 PWs)   bands (ev):

    -9.2150  -9.1854  -9.0244  -8.9790  -8.7523  13.7251  33.2503  35.1681
    45.0738  48.6531  52.7393  54.9982  55.4740  58.0298

          k = 0.0000 0.6000 0.0000 (   966 PWs)   bands (ev):

    -9.4895  -9.1760  -8.8284  -8.8284  -8.7464  14.2796  35.0434  38.1466
    38.1466  44.1091  44.5398  63.8721  63.8721  64.7084

          k =-0.1000 0.7000-0.1000 (   972 PWs)   bands (ev):

    -9.4954  -9.2151  -8.8063  -8.7548  -8.6581  16.2249  31.4323  35.5375
    37.3237  43.8080  46.2816  62.1333  63.3981  66.6878

          k = 0.8000-0.2000 0.8000 (   963 PWs)   bands (ev):

    -9.4362  -9.1802  -8.8317  -8.7646  -8.6200  18.6504  27.9506  32.5084
    37.4065  43.7933  50.6367  60.3570  61.6321  66.9371

          k = 0.7000-0.1000 0.7000 (   965 PWs)   bands (ev):

    -9.3653  -9.0501  -8.8584  -8.8549  -8.6852  20.0536  26.4852  30.3576
    38.4091  44.2796  55.7258  59.0499  60.0523  64.4149

          k = 0.6000-0.0000 0.6000 (   967 PWs)   bands (ev):

    -9.2964  -9.0068  -8.8933  -8.8693  -8.8097  18.4153  28.6935  29.7540
    40.2362  45.2840  57.8984  57.9621  60.3264  60.4562

          k = 0.0000 0.8000 0.0000 (   962 PWs)   bands (ev):

    -9.5705  -9.2822  -8.6752  -8.6498  -8.6498  17.9003  28.9949  36.2280
    36.2280  43.1146  43.3463  64.4680  67.9619  67.9619

          k = 0.9000-0.1000 0.9000 (   967 PWs)   bands (ev):

    -9.5504  -9.2874  -8.6881  -8.6347  -8.6026  20.0231  26.5473  33.6770
    36.0422  43.1108  45.5843  63.3117  66.8407  69.7599

          k = 0.8000 0.0000 0.8000 (   959 PWs)   bands (ev):

    -9.4608  -9.2035  -8.7321  -8.7206  -8.6426  21.1154  26.1905  30.3409
    36.7973  43.4630  50.2878  61.5621  64.5235  66.5287

          k = 0.0000-1.0000 0.0000 (   982 PWs)   bands (ev):

    -9.6016  -9.3245  -8.6483  -8.5808  -8.5808  21.1030  24.9326  35.5678
    35.5678  42.7015  43.0962  64.3750  70.3542  71.3283

          k =-0.2000 0.4000 0.0000 (   956 PWs)   bands (ev):

    -9.3279  -9.1245  -9.0511  -9.0019  -8.7993  12.1471  36.8467  38.5340
    44.4731  48.5151  49.2975  55.9708  57.3234  59.8448

          k =-0.3000 0.5000-0.1000 (   962 PWs)   bands (ev):

    -9.2937  -9.1546  -9.0356  -8.9127  -8.7214  14.1190  31.7653  37.0361
    42.2534  48.1080  51.8057  54.5485  57.6342  61.4275

          k = 0.6000-0.4000 0.8000 (   962 PWs)   bands (ev):

    -9.2524  -9.1895  -9.0442  -8.8105  -8.6714  16.6666  26.9701  36.6998
    40.3106  47.5928  52.2537  57.1258  58.1141  59.8710

          k = 0.5000-0.3000 0.7000 (   964 PWs)   bands (ev):

    -9.2330  -9.2083  -9.0428  -8.7695  -8.6577  18.4390  24.4311  36.7263
    39.4946  47.4130  51.9807  58.2834  58.8262  61.7263

          k =-0.2000 0.6000 0.0000 (   963 PWs)   bands (ev):

    -9.4135  -9.1563  -8.9365  -8.8339  -8.7019  14.7877  33.2274  35.8258
    38.6960  47.0032  47.0968  58.0023  62.4884  65.3555

          k = 0.7000-0.3000 0.9000 (   962 PWs)   bands (ev):

    -9.3572  -9.1622  -8.9463  -8.7810  -8.6609  17.1324  29.2630  34.0489
    36.9846  46.8435  51.1196  56.1136  63.0699  64.0982

          k = 0.6000-0.2000 0.8000 (   961 PWs)   bands (ev):

    -9.2972  -9.1173  -8.9345  -8.8408  -8.6514  19.3458  26.1175  32.7772
    36.7757  47.1579  54.2394  56.4586  61.7942  62.8795

          k = 0.5000-0.1000 0.7000 (   965 PWs)   bands (ev):

    -9.2482  -9.1262  -8.9335  -8.8468  -8.7108  18.6810  27.1147  31.9093
    37.9028  48.0151  53.4947  57.7918  61.0255  61.3852

          k = 0.4000 0.0000 0.6000 (   960 PWs)   bands (ev):

    -9.2156  -9.1972  -8.9765  -8.8431  -8.7375  16.2499  30.5224  32.4838
    39.8921  49.2194  52.1140  54.6574  59.8818  62.8435

          k = 0.8000-0.2000 1.0000 (   975 PWs)   bands (ev):

    -9.4837  -9.2406  -8.7968  -8.6552  -8.6517  18.3080  28.9458  34.0774
    35.0460  45.9437  46.0471  60.4213  66.3333  67.9183

          k = 0.7000-0.1000 0.9000 (   968 PWs)   bands (ev):

    -9.3994  -9.1926  -8.8370  -8.7350  -8.6131  20.4407  27.1037  30.9725
    34.8479  46.2262  50.5410  58.6277  63.3721  66.4921

          k = 0.6000 0.0000 0.8000 (   964 PWs)   bands (ev):

    -9.3161  -9.0506  -8.9530  -8.8144  -8.6589  20.5436  27.9934  28.5590
    35.9684  46.9674  55.8251  56.7539  59.3908  64.2092

          k =-0.2000-1.0000 0.0000 (   966 PWs)   bands (ev):

    -9.5104  -9.2763  -8.6923  -8.6852  -8.5805  21.2079  25.5651  33.4725
    34.0224  45.5806  45.7301  61.9536  66.2138  68.4630

          k = 0.6000-0.2000 1.0000 (   974 PWs)   bands (ev):

    -9.2510  -9.1822  -8.9701  -8.7603  -8.6557  19.3742  28.5540  30.7634
    34.6221  50.7675  51.0595  54.7186  61.9032  65.9485

          k = 0.5000-0.1000 0.9000 (   958 PWs)   bands (ev):

    -9.2025  -9.1270  -9.0244  -8.8157  -8.6153  20.7380  27.4974  29.9606
    33.6729  50.8499  53.0924  56.3623  57.3022  67.1175

          k =-0.4000-1.0000 0.0000 (   964 PWs)   bands (ev):

    -9.2660  -9.1766  -8.9516  -8.7856  -8.5804  21.3924  27.3849  30.1702
    32.3631  50.6976  51.1903  56.3664  58.8890  69.2083

     the Fermi energy is    46.8633 ev

!    total energy              =    -282.84801755 Ry
     Harris-Foulkes estimate   =    -282.84801756 Ry
     estimated scf accuracy    <          4.6E-09 Ry

     The total energy is the sum of the following terms:

     one-electron contribution =      -4.10318616 Ry
     hartree contribution      =      28.18169034 Ry
     xc contribution           =     -64.59279061 Ry
     ewald contribution        =    -242.33311988 Ry
     smearing contrib. (-TS)   =      -0.00061125 Ry

     convergence has been achieved in   5 iterations

     Forces acting on atoms (cartesian axes, Ry/au):

     atom    1 type  1   force =     0.00000000    0.00000000    0.00000000

     Total force =     0.000000     Total SCF correction =     0.000000


     Computing stress (Cartesian axis) and pressure

          total   stress  (Ry/bohr**3)                   (kbar)     P= 7259.79
   0.04935105  -0.00000000  -0.00000000       7259.79     -0.00     -0.00
  -0.00000000   0.04935105   0.00000000         -0.00   7259.79      0.00
  -0.00000000   0.00000000   0.04935105         -0.00      0.00   7259.79


     Writing output data file Fr.save/

     init_run     :      0.52s CPU      0.54s WALL (       1 calls)
     electrons    :      4.45s CPU      4.63s WALL (       1 calls)
     forces       :      0.07s CPU      0.07s WALL (       1 calls)
     stress       :      0.22s CPU      0.23s WALL (       1 calls)

     Called by init_run:
     wfcinit      :      0.32s CPU      0.33s WALL (       1 calls)
     potinit      :      0.01s CPU      0.01s WALL (       1 calls)
     hinit0       :      0.18s CPU      0.18s WALL (       1 calls)

     Called by electrons:
     c_bands      :      3.77s CPU      3.92s WALL (       6 calls)
     sum_band     :      0.61s CPU      0.64s WALL (       6 calls)
     v_of_rho     :      0.02s CPU      0.03s WALL (       6 calls)
     newd         :      0.05s CPU      0.05s WALL (       6 calls)
     mix_rho      :      0.00s CPU      0.00s WALL (       6 calls)

     Called by c_bands:
     init_us_2    :      0.09s CPU      0.09s WALL (     705 calls)
     cegterg      :      3.64s CPU      3.78s WALL (     282 calls)

     Called by sum_band:
     sum_band:bec :      0.00s CPU      0.00s WALL (     282 calls)
     addusdens    :      0.04s CPU      0.04s WALL (       6 calls)

     Called by *egterg:
     h_psi        :      2.78s CPU      2.89s WALL (    1015 calls)
     s_psi        :      0.09s CPU      0.10s WALL (    1015 calls)
     g_psi        :      0.01s CPU      0.01s WALL (     686 calls)
     cdiaghg      :      0.46s CPU      0.48s WALL (     921 calls)

     Called by h_psi:
     h_psi:pot    :      2.76s CPU      2.87s WALL (    1015 calls)
     h_psi:calbec :      0.13s CPU      0.13s WALL (    1015 calls)
     vloc_psi     :      2.53s CPU      2.63s WALL (    1015 calls)
     add_vuspsi   :      0.09s CPU      0.10s WALL (    1015 calls)

     General routines
     calbec       :      0.22s CPU      0.23s WALL (    1532 calls)
     fft          :      0.02s CPU      0.02s WALL (      93 calls)
     ffts         :      0.00s CPU      0.00s WALL (       6 calls)
     fftw         :      2.81s CPU      2.92s WALL (   25026 calls)

     Parallel routines
     fft_scatt_xy :      0.24s CPU      0.25s WALL (   25125 calls)
     fft_scatt_yz :      0.71s CPU      0.74s WALL (   25125 calls)

     PWSCF        :     6.19s CPU         6.48s WALL


   This run was terminated on:  22:52:44   7Apr2024            

=------------------------------------------------------------------------------=
   JOB DONE.
=------------------------------------------------------------------------------=
