
     Program PWSCF v.6.3MaX starts on  7Apr2024 at 22:29:50 

     This program is part of the open-source Quantum ESPRESSO suite
     for quantum simulation of materials; please cite
         "P. Giannozzi et al., J. Phys.:Condens. Matter 21 395502 (2009);
         "P. Giannozzi et al., J. Phys.:Condens. Matter 29 465901 (2017);
          URL http://www.quantum-espresso.org", 
     in publications or presentations arising from this work. More details at
     http://www.quantum-espresso.org/quote

     Parallel version (MPI), running on     5 processors

     MPI processes distributed on     1 nodes
     R & G space division:  proc/nbgrp/npool/nimage =       5
     Waiting for input...
     Reading input from standard input

     Current dimensions of program PWSCF are:
     Max number of different atomic species (ntypx) = 10
     Max number of k-points (npk) =  40000
     Max angular momentum in pseudopotentials (lmaxx) =  3

     Subspace diagonalization in iterative solution of the eigenvalue problem:
     a serial algorithm will be used


     Parallelization info
     --------------------
     sticks:   dense  smooth     PW     G-vecs:    dense   smooth      PW
     Min          43      43     16                  445      445      91
     Max          45      45     18                  446      446      92
     Sum         223     223     85                 2229     2229     459



     bravais-lattice index     =            2
     lattice parameter (alat)  =       6.8300  a.u.
     unit-cell volume          =      79.6530 (a.u.)^3
     number of atoms/cell      =            1
     number of atomic types    =            1
     number of electrons       =        19.00
     number of Kohn-Sham states=           14
     kinetic-energy cutoff     =      35.0000  Ry
     charge density cutoff     =     140.0000  Ry
     convergence threshold     =      1.0E-08
     mixing beta               =       0.7000
     number of iterations used =            8  plain     mixing
     Exchange-correlation      = PBE ( 1  4  3  4 0 0)

     celldm(1)=   6.830000  celldm(2)=   0.000000  celldm(3)=   0.000000
     celldm(4)=   0.000000  celldm(5)=   0.000000  celldm(6)=   0.000000

     crystal axes: (cart. coord. in units of alat)
               a(1) = (  -0.500000   0.000000   0.500000 )  
               a(2) = (   0.000000   0.500000   0.500000 )  
               a(3) = (  -0.500000   0.500000   0.000000 )  

     reciprocal axes: (cart. coord. in units 2 pi/alat)
               b(1) = ( -1.000000 -1.000000  1.000000 )  
               b(2) = (  1.000000  1.000000  1.000000 )  
               b(3) = ( -1.000000  1.000000 -1.000000 )  


     PseudoPot. # 1 for Fr read from file:
     /home/lorenzo/pseudos/Fr/Fr.pbe-spdn-rrkjus_psl.1.0.0.UPF
     MD5 check sum: 07cabfa18982bd6b5b9d8ae5689d9732
     Pseudo is Ultrasoft + core correction, Zval = 19.0
     Generated using "atomic" code by A. Dal Corso v.6.2.2
     Using radial grid of 1287 points,  6 beta functions with: 
                l(1) =   0
                l(2) =   0
                l(3) =   1
                l(4) =   1
                l(5) =   2
                l(6) =   2
     Q(r) pseudized with 0 coefficients 


     atomic species   valence    mass     pseudopotential
        Fr            19.00   223.00000     Fr( 1.00)

     48 Sym. Ops., with inversion, found



   Cartesian axes

     site n.     atom                  positions (alat units)
         1           Fr  tau(   1) = (   0.0000000   0.0000000   0.0000000  )

     number of k points=     8  gaussian smearing, width (Ry)=  0.0100
                       cart. coord. in units 2pi/alat
        k(    1) = (   0.0000000   0.0000000   0.0000000), wk =   0.0312500
        k(    2) = (  -0.2500000   0.2500000  -0.2500000), wk =   0.2500000
        k(    3) = (   0.5000000  -0.5000000   0.5000000), wk =   0.1250000
        k(    4) = (   0.0000000   0.5000000   0.0000000), wk =   0.1875000
        k(    5) = (   0.7500000  -0.2500000   0.7500000), wk =   0.7500000
        k(    6) = (   0.5000000   0.0000000   0.5000000), wk =   0.3750000
        k(    7) = (   0.0000000  -1.0000000   0.0000000), wk =   0.0937500
        k(    8) = (  -0.5000000  -1.0000000   0.0000000), wk =   0.1875000

     Dense  grid:     2229 G-vectors     FFT dimensions: (  20,  20,  20)

     Estimated max dynamical RAM per process >       2.81 MB

     Estimated total dynamical RAM >      14.07 MB

     Check: negative/imaginary core charge=   -0.000020    0.000000

     Initial potential from superposition of free atoms

     starting charge   18.97009, renormalised to   19.00000
     Starting wfcs are   10 randomized atomic wfcs +    4 random wfcs

     total cpu time spent up to now is        1.0 secs

     Self-consistent Calculation

     iteration #  1     ecut=    35.00 Ry     beta= 0.70
     Davidson diagonalization with overlap
     ethr =  1.00E-02,  avg # of iterations =  5.1

     Threshold (ethr) on eigenvalues was too large:
     Diagonalizing with lowered threshold

     Davidson diagonalization with overlap
     ethr =  2.98E-04,  avg # of iterations =  1.0

     total cpu time spent up to now is        1.2 secs

     total energy              =    -282.25436222 Ry
     Harris-Foulkes estimate   =    -282.29673680 Ry
     estimated scf accuracy    <       0.05717991 Ry

     iteration #  2     ecut=    35.00 Ry     beta= 0.70
     Davidson diagonalization with overlap
     ethr =  3.01E-04,  avg # of iterations =  2.0

     total cpu time spent up to now is        1.2 secs

     total energy              =    -282.26923660 Ry
     Harris-Foulkes estimate   =    -282.27079020 Ry
     estimated scf accuracy    <       0.00252938 Ry

     iteration #  3     ecut=    35.00 Ry     beta= 0.70
     Davidson diagonalization with overlap
     ethr =  1.33E-05,  avg # of iterations =  2.2

     total cpu time spent up to now is        1.3 secs

     total energy              =    -282.26978643 Ry
     Harris-Foulkes estimate   =    -282.26976260 Ry
     estimated scf accuracy    <       0.00007562 Ry

     iteration #  4     ecut=    35.00 Ry     beta= 0.70
     Davidson diagonalization with overlap
     ethr =  3.98E-07,  avg # of iterations =  1.8

     total cpu time spent up to now is        1.3 secs

     total energy              =    -282.26979241 Ry
     Harris-Foulkes estimate   =    -282.26979202 Ry
     estimated scf accuracy    <       0.00000059 Ry

     iteration #  5     ecut=    35.00 Ry     beta= 0.70
     Davidson diagonalization with overlap
     ethr =  3.10E-09,  avg # of iterations =  2.1

     total cpu time spent up to now is        1.4 secs

     total energy              =    -282.26979250 Ry
     Harris-Foulkes estimate   =    -282.26979251 Ry
     estimated scf accuracy    <       0.00000002 Ry

     iteration #  6     ecut=    35.00 Ry     beta= 0.70
     Davidson diagonalization with overlap
     ethr =  1.11E-10,  avg # of iterations =  2.0

     total cpu time spent up to now is        1.4 secs

     End of self-consistent calculation

          k = 0.0000 0.0000 0.0000 (   283 PWs)   bands (ev):

    -9.3354  -9.3354  -9.3354  -9.1759  -9.1759   9.4635  47.1843  47.1843
    47.1843  48.4556  54.7438  54.7438  54.7438  57.6739

          k =-0.2500 0.2500-0.2500 (   289 PWs)   bands (ev):

    -9.5135  -9.3889  -9.3889  -9.0550  -9.0550  11.9653  33.8683  44.7971
    44.7971  48.4144  53.5377  54.5468  54.5468  59.1997

          k = 0.5000-0.5000 0.5000 (   272 PWs)   bands (ev):

    -9.3436  -9.3436  -9.3054  -8.4691  -8.4691  17.5418  23.2915  42.9752
    42.9752  48.1326  51.7058  52.4825  52.4825  65.5113

          k = 0.0000 0.5000 0.0000 (   290 PWs)   bands (ev):

    -9.7476  -9.2875  -9.1810  -9.1810  -8.8943  12.7995  38.0276  39.5470
    39.5470  45.1205  46.1119  62.1764  62.1764  63.2140

          k = 0.7500-0.2500 0.7500 (   279 PWs)   bands (ev):

    -9.6173  -9.2760  -9.0490  -8.7815  -8.4586  18.1358  27.1333  33.9494
    38.3781  44.6489  53.7833  59.0099  59.4814  64.2561

          k = 0.5000 0.0000 0.5000 (   273 PWs)   bands (ev):

    -9.3939  -9.1722  -8.9049  -8.8959  -8.5405  15.9706  30.4538  32.3795
    42.6161  47.0339  55.3602  57.1393  57.9074  59.5783

          k = 0.0000-1.0000 0.0000 (   286 PWs)   bands (ev):

   -10.0585  -9.6657  -8.7941  -8.4320  -8.4320  21.0283  24.9565  35.5467
    35.5467  42.9126  43.5036  64.5049  70.4089  71.3237

          k =-0.5000-1.0000 0.0000 (   280 PWs)   bands (ev):

    -9.3708  -9.2326  -9.2326  -8.7978  -8.5902  21.3364  28.7415  28.7415
    32.2198  53.4410  53.9015  53.9015  56.8710  70.2553

     the Fermi energy is    45.2136 ev

!    total energy              =    -282.26979250 Ry
     Harris-Foulkes estimate   =    -282.26979250 Ry
     estimated scf accuracy    <          2.2E-10 Ry

     The total energy is the sum of the following terms:

     one-electron contribution =      -3.18769688 Ry
     hartree contribution      =      27.58626581 Ry
     xc contribution           =     -64.33491013 Ry
     ewald contribution        =    -242.33311995 Ry
     smearing contrib. (-TS)   =      -0.00033135 Ry

     convergence has been achieved in   6 iterations

     Forces acting on atoms (cartesian axes, Ry/au):

     atom    1 type  1   force =     0.00000000    0.00000000    0.00000000

     Total force =     0.000000     Total SCF correction =     0.000000


     Computing stress (Cartesian axis) and pressure

          total   stress  (Ry/bohr**3)                   (kbar)     P= 1597.76
   0.01086138   0.00000000  -0.00000000       1597.76      0.00     -0.00
   0.00000000   0.01086138  -0.00000000          0.00   1597.76     -0.00
   0.00000000  -0.00000000   0.01086138          0.00     -0.00   1597.76


     Writing output data file Fr.save/

     init_run     :      0.14s CPU      0.15s WALL (       1 calls)
     electrons    :      0.37s CPU      0.40s WALL (       1 calls)
     forces       :      0.01s CPU      0.01s WALL (       1 calls)
     stress       :      0.03s CPU      0.03s WALL (       1 calls)

     Called by init_run:
     wfcinit      :      0.01s CPU      0.02s WALL (       1 calls)
     potinit      :      0.00s CPU      0.00s WALL (       1 calls)
     hinit0       :      0.12s CPU      0.12s WALL (       1 calls)

     Called by electrons:
     c_bands      :      0.29s CPU      0.31s WALL (       7 calls)
     sum_band     :      0.06s CPU      0.06s WALL (       7 calls)
     v_of_rho     :      0.01s CPU      0.01s WALL (       7 calls)
     newd         :      0.01s CPU      0.02s WALL (       7 calls)
     mix_rho      :      0.00s CPU      0.00s WALL (       7 calls)

     Called by c_bands:
     init_us_2    :      0.01s CPU      0.01s WALL (     136 calls)
     cegterg      :      0.28s CPU      0.30s WALL (      56 calls)

     Called by sum_band:
     sum_band:bec :      0.00s CPU      0.00s WALL (      56 calls)
     addusdens    :      0.02s CPU      0.02s WALL (       7 calls)

     Called by *egterg:
     h_psi        :      0.18s CPU      0.20s WALL (     194 calls)
     s_psi        :      0.01s CPU      0.01s WALL (     194 calls)
     g_psi        :      0.00s CPU      0.00s WALL (     130 calls)
     cdiaghg      :      0.07s CPU      0.08s WALL (     178 calls)

     Called by h_psi:
     h_psi:pot    :      0.18s CPU      0.20s WALL (     194 calls)
     h_psi:calbec :      0.01s CPU      0.01s WALL (     194 calls)
     vloc_psi     :      0.17s CPU      0.18s WALL (     194 calls)
     add_vuspsi   :      0.01s CPU      0.01s WALL (     194 calls)

     General routines
     calbec       :      0.01s CPU      0.01s WALL (     290 calls)
     fft          :      0.01s CPU      0.01s WALL (     104 calls)
     ffts         :      0.00s CPU      0.00s WALL (       7 calls)
     fftw         :      0.18s CPU      0.20s WALL (    4858 calls)

     Parallel routines
     fft_scatt_xy :      0.02s CPU      0.02s WALL (    4969 calls)
     fft_scatt_yz :      0.05s CPU      0.06s WALL (    4969 calls)

     PWSCF        :     1.44s CPU         1.52s WALL


   This run was terminated on:  22:29:52   7Apr2024            

=------------------------------------------------------------------------------=
   JOB DONE.
=------------------------------------------------------------------------------=
