
     Program PWSCF v.6.3MaX starts on  7Apr2024 at 23: 0:24 

     This program is part of the open-source Quantum ESPRESSO suite
     for quantum simulation of materials; please cite
         "P. Giannozzi et al., J. Phys.:Condens. Matter 21 395502 (2009);
         "P. Giannozzi et al., J. Phys.:Condens. Matter 29 465901 (2017);
          URL http://www.quantum-espresso.org", 
     in publications or presentations arising from this work. More details at
     http://www.quantum-espresso.org/quote

     Parallel version (MPI), running on     5 processors

     MPI processes distributed on     1 nodes
     R & G space division:  proc/nbgrp/npool/nimage =       5
     Waiting for input...
     Reading input from standard input

     Current dimensions of program PWSCF are:
     Max number of different atomic species (ntypx) = 10
     Max number of k-points (npk) =  40000
     Max angular momentum in pseudopotentials (lmaxx) =  3
               file Fr.pz-spdn-kjpaw_psl.1.0.0.UPF: wavefunction(s)  6P renormalized

     Subspace diagonalization in iterative solution of the eigenvalue problem:
     a serial algorithm will be used


     Parallelization info
     --------------------
     sticks:   dense  smooth     PW     G-vecs:    dense   smooth      PW
     Min         116     116     30                 1850     1850     227
     Max         117     117     31                 1853     1853     228
     Sum         583     583    151                 9257     9257    1139



     bravais-lattice index     =            2
     lattice parameter (alat)  =       6.8300  a.u.
     unit-cell volume          =      79.6530 (a.u.)^3
     number of atoms/cell      =            1
     number of atomic types    =            1
     number of electrons       =        19.00
     number of Kohn-Sham states=           14
     kinetic-energy cutoff     =      90.0000  Ry
     charge density cutoff     =     360.0000  Ry
     convergence threshold     =      1.0E-08
     mixing beta               =       0.7000
     number of iterations used =            8  plain     mixing
     Exchange-correlation      = SLA PZ NOGX NOGC ( 1  1  0  0 0 0)

     celldm(1)=   6.830000  celldm(2)=   0.000000  celldm(3)=   0.000000
     celldm(4)=   0.000000  celldm(5)=   0.000000  celldm(6)=   0.000000

     crystal axes: (cart. coord. in units of alat)
               a(1) = (  -0.500000   0.000000   0.500000 )  
               a(2) = (   0.000000   0.500000   0.500000 )  
               a(3) = (  -0.500000   0.500000   0.000000 )  

     reciprocal axes: (cart. coord. in units 2 pi/alat)
               b(1) = ( -1.000000 -1.000000  1.000000 )  
               b(2) = (  1.000000  1.000000  1.000000 )  
               b(3) = ( -1.000000  1.000000 -1.000000 )  


     PseudoPot. # 1 for Fr read from file:
     /home/lorenzo/pseudos/Fr/Fr.pz-spdn-kjpaw_psl.1.0.0.UPF
     MD5 check sum: 60dafd115682613df3cc92ec23a62a32
     Pseudo is Projector augmented-wave + core cor, Zval = 19.0
     Generated using "atomic" code by A. Dal Corso v.6.2.2
     Shape of augmentation charge: PSQ
     Using radial grid of 1287 points,  6 beta functions with: 
                l(1) =   0
                l(2) =   0
                l(3) =   1
                l(4) =   1
                l(5) =   2
                l(6) =   2
     Q(r) pseudized with 0 coefficients 


     atomic species   valence    mass     pseudopotential
        Fr            19.00   223.00000     Fr( 1.00)

     48 Sym. Ops., with inversion, found



   Cartesian axes

     site n.     atom                  positions (alat units)
         1           Fr  tau(   1) = (   0.0000000   0.0000000   0.0000000  )

     number of k points=     1  gaussian smearing, width (Ry)=  0.0100
                       cart. coord. in units 2pi/alat
        k(    1) = (   0.0000000   0.0000000   0.0000000), wk =   2.0000000

     Dense  grid:     9257 G-vectors     FFT dimensions: (  30,  30,  30)

     Estimated max dynamical RAM per process >       8.58 MB

     Estimated total dynamical RAM >      42.92 MB

     Initial potential from superposition of free atoms

     starting charge   18.97647, renormalised to   19.00000
     Starting wfcs are   10 randomized atomic wfcs +    4 random wfcs
     Checking if some PAW data can be deallocated... 

     total cpu time spent up to now is        1.3 secs

     Self-consistent Calculation

     iteration #  1     ecut=    90.00 Ry     beta= 0.70
     Davidson diagonalization with overlap
     ethr =  1.00E-02,  avg # of iterations =  6.0

     Threshold (ethr) on eigenvalues was too large:
     Diagonalizing with lowered threshold

     Davidson diagonalization with overlap
     ethr =  8.58E-04,  avg # of iterations =  1.0

     total cpu time spent up to now is        1.5 secs

     total energy              =   -1040.75817477 Ry
     Harris-Foulkes estimate   =   -1040.78964378 Ry
     estimated scf accuracy    <       0.16393788 Ry

     iteration #  2     ecut=    90.00 Ry     beta= 0.70
     Davidson diagonalization with overlap
     ethr =  8.63E-04,  avg # of iterations =  1.0

     total cpu time spent up to now is        1.6 secs

     total energy              =   -1040.76559833 Ry
     Harris-Foulkes estimate   =   -1040.76460890 Ry
     estimated scf accuracy    <       0.00922620 Ry

     iteration #  3     ecut=    90.00 Ry     beta= 0.70
     Davidson diagonalization with overlap
     ethr =  4.86E-05,  avg # of iterations =  2.0

     total cpu time spent up to now is        1.7 secs

     total energy              =   -1040.76579500 Ry
     Harris-Foulkes estimate   =   -1040.76827702 Ry
     estimated scf accuracy    <       0.00805554 Ry

     iteration #  4     ecut=    90.00 Ry     beta= 0.70
     Davidson diagonalization with overlap
     ethr =  4.24E-05,  avg # of iterations =  1.0

     total cpu time spent up to now is        1.8 secs

     total energy              =   -1040.76504966 Ry
     Harris-Foulkes estimate   =   -1040.76859194 Ry
     estimated scf accuracy    <       0.01775617 Ry

     iteration #  5     ecut=    90.00 Ry     beta= 0.70
     Davidson diagonalization with overlap
     ethr =  4.24E-05,  avg # of iterations =  1.0

     total cpu time spent up to now is        1.9 secs

     total energy              =   -1040.76730173 Ry
     Harris-Foulkes estimate   =   -1040.76780178 Ry
     estimated scf accuracy    <       0.00304031 Ry

     iteration #  6     ecut=    90.00 Ry     beta= 0.70
     Davidson diagonalization with overlap
     ethr =  1.60E-05,  avg # of iterations =  1.0

     total cpu time spent up to now is        2.0 secs

     total energy              =   -1040.76744869 Ry
     Harris-Foulkes estimate   =   -1040.76746516 Ry
     estimated scf accuracy    <       0.00007768 Ry

     iteration #  7     ecut=    90.00 Ry     beta= 0.70
     Davidson diagonalization with overlap
     ethr =  4.09E-07,  avg # of iterations =  1.0

     total cpu time spent up to now is        2.1 secs

     total energy              =   -1040.76745712 Ry
     Harris-Foulkes estimate   =   -1040.76745919 Ry
     estimated scf accuracy    <       0.00001133 Ry

     iteration #  8     ecut=    90.00 Ry     beta= 0.70
     Davidson diagonalization with overlap
     ethr =  5.96E-08,  avg # of iterations =  1.0

     total cpu time spent up to now is        2.2 secs

     total energy              =   -1040.76745825 Ry
     Harris-Foulkes estimate   =   -1040.76745838 Ry
     estimated scf accuracy    <       0.00000044 Ry

     iteration #  9     ecut=    90.00 Ry     beta= 0.70
     Davidson diagonalization with overlap
     ethr =  2.30E-09,  avg # of iterations =  3.0

     total cpu time spent up to now is        2.3 secs

     total energy              =   -1040.76745833 Ry
     Harris-Foulkes estimate   =   -1040.76745847 Ry
     estimated scf accuracy    <       0.00000080 Ry

     iteration # 10     ecut=    90.00 Ry     beta= 0.70
     Davidson diagonalization with overlap
     ethr =  2.30E-09,  avg # of iterations =  1.0

     total cpu time spent up to now is        2.4 secs

     End of self-consistent calculation

          k = 0.0000 0.0000 0.0000 (  1139 PWs)   bands (ev):

    -8.8270  -8.8270  -8.8270  -8.0638  -8.0638   9.2908  47.2936  47.2936
    47.2936  47.4566  53.7125  53.7125  53.7125  58.1001

     the Fermi energy is    47.4772 ev

!    total energy              =   -1040.76745839 Ry
     Harris-Foulkes estimate   =   -1040.76745840 Ry
     estimated scf accuracy    <          9.8E-09 Ry

     total all-electron energy =    -48486.220431 Ry

     The total energy is the sum of the following terms:

     one-electron contribution =       5.32697110 Ry
     hartree contribution      =      29.36374528 Ry
     xc contribution           =     -64.18766259 Ry
     ewald contribution        =    -242.33311988 Ry
     one-center paw contrib.   =    -768.92913788 Ry
     smearing contrib. (-TS)   =      -0.00825443 Ry

     convergence has been achieved in  10 iterations

     Forces acting on atoms (cartesian axes, Ry/au):

     atom    1 type  1   force =     0.00000000    0.00000000    0.00000000

     Total force =     0.000000     Total SCF correction =     0.000000


     Computing stress (Cartesian axis) and pressure

          total   stress  (Ry/bohr**3)                   (kbar)     P=13566.22
   0.09222131   0.00000000   0.00000000      13566.22      0.00      0.00
   0.00000000   0.09222131  -0.00000000          0.00  13566.22     -0.00
   0.00000000   0.00000000   0.09222131          0.00      0.00  13566.22


     Writing output data file Fr.save/

     init_run     :      0.28s CPU      0.29s WALL (       1 calls)
     electrons    :      1.08s CPU      1.09s WALL (       1 calls)
     forces       :      0.03s CPU      0.03s WALL (       1 calls)
     stress       :      0.13s CPU      0.13s WALL (       1 calls)

     Called by init_run:
     wfcinit      :      0.01s CPU      0.01s WALL (       1 calls)
     potinit      :      0.05s CPU      0.06s WALL (       1 calls)
     hinit0       :      0.21s CPU      0.21s WALL (       1 calls)

     Called by electrons:
     c_bands      :      0.17s CPU      0.18s WALL (      11 calls)
     sum_band     :      0.20s CPU      0.20s WALL (      11 calls)
     v_of_rho     :      0.01s CPU      0.01s WALL (      11 calls)
     newd         :      0.13s CPU      0.13s WALL (      11 calls)
     PAW_pot      :      0.60s CPU      0.61s WALL (      11 calls)
     mix_rho      :      0.01s CPU      0.01s WALL (      11 calls)

     Called by c_bands:
     init_us_2    :      0.01s CPU      0.01s WALL (      23 calls)
     cegterg      :      0.17s CPU      0.17s WALL (      11 calls)

     Called by sum_band:
     sum_band:bec :      0.00s CPU      0.00s WALL (      11 calls)
     addusdens    :      0.12s CPU      0.12s WALL (      11 calls)

     Called by *egterg:
     h_psi        :      0.13s CPU      0.13s WALL (      31 calls)
     s_psi        :      0.00s CPU      0.00s WALL (      31 calls)
     g_psi        :      0.00s CPU      0.00s WALL (      19 calls)
     cdiaghg      :      0.01s CPU      0.01s WALL (      29 calls)

     Called by h_psi:
     h_psi:pot    :      0.12s CPU      0.13s WALL (      31 calls)
     h_psi:calbec :      0.01s CPU      0.01s WALL (      31 calls)
     vloc_psi     :      0.11s CPU      0.12s WALL (      31 calls)
     add_vuspsi   :      0.00s CPU      0.00s WALL (      31 calls)

     General routines
     calbec       :      0.01s CPU      0.01s WALL (      47 calls)
     fft          :      0.02s CPU      0.02s WALL (      54 calls)
     ffts         :      0.00s CPU      0.00s WALL (      11 calls)
     fftw         :      0.14s CPU      0.15s WALL (     860 calls)

     Parallel routines
     fft_scatt_xy :      0.02s CPU      0.02s WALL (     925 calls)
     fft_scatt_yz :      0.05s CPU      0.06s WALL (     925 calls)

     PWSCF        :     2.54s CPU         2.62s WALL


   This run was terminated on:  23: 0:26   7Apr2024            

=------------------------------------------------------------------------------=
   JOB DONE.
=------------------------------------------------------------------------------=
