
     Program PWSCF v.6.3MaX starts on  7Apr2024 at 22:38: 6 

     This program is part of the open-source Quantum ESPRESSO suite
     for quantum simulation of materials; please cite
         "P. Giannozzi et al., J. Phys.:Condens. Matter 21 395502 (2009);
         "P. Giannozzi et al., J. Phys.:Condens. Matter 29 465901 (2017);
          URL http://www.quantum-espresso.org", 
     in publications or presentations arising from this work. More details at
     http://www.quantum-espresso.org/quote

     Parallel version (MPI), running on     5 processors

     MPI processes distributed on     1 nodes
     R & G space division:  proc/nbgrp/npool/nimage =       5
     Waiting for input...
     Reading input from standard input

     Current dimensions of program PWSCF are:
     Max number of different atomic species (ntypx) = 10
     Max number of k-points (npk) =  40000
     Max angular momentum in pseudopotentials (lmaxx) =  3
               file Fr.pbe-spdn-kjpaw_psl.1.0.0.UPF: wavefunction(s)  6P renormalized

     Subspace diagonalization in iterative solution of the eigenvalue problem:
     a serial algorithm will be used


     Parallelization info
     --------------------
     sticks:   dense  smooth     PW     G-vecs:    dense   smooth      PW
     Min          72      72     24                  876      876     173
     Max          73      73     25                  877      877     174
     Sum         361     361    121                 4381     4381     869



     bravais-lattice index     =            2
     lattice parameter (alat)  =       6.8300  a.u.
     unit-cell volume          =      79.6530 (a.u.)^3
     number of atoms/cell      =            1
     number of atomic types    =            1
     number of electrons       =        19.00
     number of Kohn-Sham states=           14
     kinetic-energy cutoff     =      55.0000  Ry
     charge density cutoff     =     220.0000  Ry
     convergence threshold     =      1.0E-08
     mixing beta               =       0.7000
     number of iterations used =            8  plain     mixing
     Exchange-correlation      = SLA PW PBX PBC ( 1  4  3  4 0 0)

     celldm(1)=   6.830000  celldm(2)=   0.000000  celldm(3)=   0.000000
     celldm(4)=   0.000000  celldm(5)=   0.000000  celldm(6)=   0.000000

     crystal axes: (cart. coord. in units of alat)
               a(1) = (  -0.500000   0.000000   0.500000 )  
               a(2) = (   0.000000   0.500000   0.500000 )  
               a(3) = (  -0.500000   0.500000   0.000000 )  

     reciprocal axes: (cart. coord. in units 2 pi/alat)
               b(1) = ( -1.000000 -1.000000  1.000000 )  
               b(2) = (  1.000000  1.000000  1.000000 )  
               b(3) = ( -1.000000  1.000000 -1.000000 )  


     PseudoPot. # 1 for Fr read from file:
     /home/lorenzo/pseudos/Fr/Fr.pbe-spdn-kjpaw_psl.1.0.0.UPF
     MD5 check sum: 362a188b966a64328b94f1ef5f32e8c4
     Pseudo is Projector augmented-wave + core cor, Zval = 19.0
     Generated using "atomic" code by A. Dal Corso v.6.2.2
     Shape of augmentation charge: PSQ
     Using radial grid of 1287 points,  6 beta functions with: 
                l(1) =   0
                l(2) =   0
                l(3) =   1
                l(4) =   1
                l(5) =   2
                l(6) =   2
     Q(r) pseudized with 0 coefficients 


     atomic species   valence    mass     pseudopotential
        Fr            19.00   223.00000     Fr( 1.00)

     48 Sym. Ops., with inversion, found



   Cartesian axes

     site n.     atom                  positions (alat units)
         1           Fr  tau(   1) = (   0.0000000   0.0000000   0.0000000  )

     number of k points=    47  gaussian smearing, width (Ry)=  0.0100
                       cart. coord. in units 2pi/alat
        k(    1) = (   0.0000000   0.0000000   0.0000000), wk =   0.0020000
        k(    2) = (  -0.1000000   0.1000000  -0.1000000), wk =   0.0160000
        k(    3) = (  -0.2000000   0.2000000  -0.2000000), wk =   0.0160000
        k(    4) = (  -0.3000000   0.3000000  -0.3000000), wk =   0.0160000
        k(    5) = (  -0.4000000   0.4000000  -0.4000000), wk =   0.0160000
        k(    6) = (   0.5000000  -0.5000000   0.5000000), wk =   0.0080000
        k(    7) = (   0.0000000   0.2000000   0.0000000), wk =   0.0120000
        k(    8) = (  -0.1000000   0.3000000  -0.1000000), wk =   0.0480000
        k(    9) = (  -0.2000000   0.4000000  -0.2000000), wk =   0.0480000
        k(   10) = (  -0.3000000   0.5000000  -0.3000000), wk =   0.0480000
        k(   11) = (   0.6000000  -0.4000000   0.6000000), wk =   0.0480000
        k(   12) = (   0.5000000  -0.3000000   0.5000000), wk =   0.0480000
        k(   13) = (   0.4000000  -0.2000000   0.4000000), wk =   0.0480000
        k(   14) = (   0.3000000  -0.1000000   0.3000000), wk =   0.0480000
        k(   15) = (   0.2000000   0.0000000   0.2000000), wk =   0.0240000
        k(   16) = (   0.0000000   0.4000000   0.0000000), wk =   0.0120000
        k(   17) = (  -0.1000000   0.5000000  -0.1000000), wk =   0.0480000
        k(   18) = (  -0.2000000   0.6000000  -0.2000000), wk =   0.0480000
        k(   19) = (   0.7000000  -0.3000000   0.7000000), wk =   0.0480000
        k(   20) = (   0.6000000  -0.2000000   0.6000000), wk =   0.0480000
        k(   21) = (   0.5000000  -0.1000000   0.5000000), wk =   0.0480000
        k(   22) = (   0.4000000   0.0000000   0.4000000), wk =   0.0240000
        k(   23) = (   0.0000000   0.6000000   0.0000000), wk =   0.0120000
        k(   24) = (  -0.1000000   0.7000000  -0.1000000), wk =   0.0480000
        k(   25) = (   0.8000000  -0.2000000   0.8000000), wk =   0.0480000
        k(   26) = (   0.7000000  -0.1000000   0.7000000), wk =   0.0480000
        k(   27) = (   0.6000000  -0.0000000   0.6000000), wk =   0.0240000
        k(   28) = (   0.0000000   0.8000000   0.0000000), wk =   0.0120000
        k(   29) = (   0.9000000  -0.1000000   0.9000000), wk =   0.0480000
        k(   30) = (   0.8000000   0.0000000   0.8000000), wk =   0.0240000
        k(   31) = (   0.0000000  -1.0000000   0.0000000), wk =   0.0060000
        k(   32) = (  -0.2000000   0.4000000   0.0000000), wk =   0.0480000
        k(   33) = (  -0.3000000   0.5000000  -0.1000000), wk =   0.0960000
        k(   34) = (   0.6000000  -0.4000000   0.8000000), wk =   0.0960000
        k(   35) = (   0.5000000  -0.3000000   0.7000000), wk =   0.0480000
        k(   36) = (  -0.2000000   0.6000000   0.0000000), wk =   0.0480000
        k(   37) = (   0.7000000  -0.3000000   0.9000000), wk =   0.0960000
        k(   38) = (   0.6000000  -0.2000000   0.8000000), wk =   0.0960000
        k(   39) = (   0.5000000  -0.1000000   0.7000000), wk =   0.0960000
        k(   40) = (   0.4000000   0.0000000   0.6000000), wk =   0.0480000
        k(   41) = (   0.8000000  -0.2000000   1.0000000), wk =   0.0480000
        k(   42) = (   0.7000000  -0.1000000   0.9000000), wk =   0.0960000
        k(   43) = (   0.6000000   0.0000000   0.8000000), wk =   0.0480000
        k(   44) = (  -0.2000000  -1.0000000   0.0000000), wk =   0.0240000
        k(   45) = (   0.6000000  -0.2000000   1.0000000), wk =   0.0480000
        k(   46) = (   0.5000000  -0.1000000   0.9000000), wk =   0.0480000
        k(   47) = (  -0.4000000  -1.0000000   0.0000000), wk =   0.0240000

     Dense  grid:     4381 G-vectors     FFT dimensions: (  24,  24,  24)

     Estimated max dynamical RAM per process >       5.69 MB

     Estimated total dynamical RAM >      28.47 MB

     Check: negative/imaginary core charge=   -0.000002    0.000000

     Initial potential from superposition of free atoms

     starting charge   18.97009, renormalised to   19.00000
     Starting wfcs are   10 randomized atomic wfcs +    4 random wfcs
     Checking if some PAW data can be deallocated... 

     total cpu time spent up to now is        1.4 secs

     Self-consistent Calculation

     iteration #  1     ecut=    55.00 Ry     beta= 0.70
     Davidson diagonalization with overlap
     ethr =  1.00E-02,  avg # of iterations =  4.7

     Threshold (ethr) on eigenvalues was too large:
     Diagonalizing with lowered threshold

     Davidson diagonalization with overlap
     ethr =  1.03E-04,  avg # of iterations =  1.7

     total cpu time spent up to now is        2.7 secs

     total energy              =   -1069.94237635 Ry
     Harris-Foulkes estimate   =   -1069.95466543 Ry
     estimated scf accuracy    <       0.01932864 Ry

     iteration #  2     ecut=    55.00 Ry     beta= 0.70
     Davidson diagonalization with overlap
     ethr =  1.02E-04,  avg # of iterations =  2.0

     total cpu time spent up to now is        3.4 secs

     total energy              =   -1069.94536974 Ry
     Harris-Foulkes estimate   =   -1069.94571177 Ry
     estimated scf accuracy    <       0.00063157 Ry

     iteration #  3     ecut=    55.00 Ry     beta= 0.70
     Davidson diagonalization with overlap
     ethr =  3.32E-06,  avg # of iterations =  2.5

     total cpu time spent up to now is        3.9 secs

     total energy              =   -1069.94544853 Ry
     Harris-Foulkes estimate   =   -1069.94545498 Ry
     estimated scf accuracy    <       0.00002161 Ry

     iteration #  4     ecut=    55.00 Ry     beta= 0.70
     Davidson diagonalization with overlap
     ethr =  1.14E-07,  avg # of iterations =  2.0

     total cpu time spent up to now is        4.6 secs

     total energy              =   -1069.94545407 Ry
     Harris-Foulkes estimate   =   -1069.94545352 Ry
     estimated scf accuracy    <       0.00000025 Ry

     iteration #  5     ecut=    55.00 Ry     beta= 0.70
     Davidson diagonalization with overlap
     ethr =  1.31E-09,  avg # of iterations =  2.1

     total cpu time spent up to now is        5.2 secs

     total energy              =   -1069.94545416 Ry
     Harris-Foulkes estimate   =   -1069.94545412 Ry
     estimated scf accuracy    <       0.00000003 Ry

     iteration #  6     ecut=    55.00 Ry     beta= 0.70
     Davidson diagonalization with overlap
     ethr =  1.57E-10,  avg # of iterations =  2.0

     total cpu time spent up to now is        5.7 secs

     End of self-consistent calculation

          k = 0.0000 0.0000 0.0000 (   537 PWs)   bands (ev):

    -9.2130  -9.2130  -9.2130  -8.8704  -8.8704   9.4749  47.2813  47.2813
    47.2813  48.3074  53.8979  53.8979  53.8979  57.8148

          k =-0.1000 0.1000-0.1000 (   537 PWs)   bands (ev):

    -9.2095  -9.1820  -9.1820  -8.8699  -8.8699   9.8758  43.0948  46.6737
    46.6737  48.1941  54.8956  54.8956  55.8635  57.4479

          k =-0.2000 0.2000-0.2000 (   552 PWs)   bands (ev):

    -9.2028  -9.1299  -9.1299  -8.8384  -8.8384  11.0811  36.8594  45.4394
    45.4394  48.2266  54.3896  55.0735  55.0735  57.2830

          k =-0.3000 0.3000-0.3000 (   555 PWs)   bands (ev):

    -9.1993  -9.1256  -9.1256  -8.7369  -8.7369  13.0732  30.9848  44.2191
    44.2191  48.2133  52.6194  53.2368  53.2368  60.3817

          k =-0.4000 0.4000-0.4000 (   547 PWs)   bands (ev):

    -9.2000  -9.1482  -9.1482  -8.6265  -8.6265  15.6860  25.9675  43.3440
    43.3440  48.1201  51.5774  52.1518  52.1518  63.6461

          k = 0.5000-0.5000 0.5000 (   568 PWs)   bands (ev):

    -9.2010  -9.1598  -9.1598  -8.5811  -8.5811  17.5646  23.2765  43.0255
    43.0255  48.0565  51.2524  51.7959  51.7959  65.4776

          k = 0.0000 0.2000 0.0000 (   544 PWs)   bands (ev):

    -9.2447  -9.1499  -9.1499  -8.9029  -8.8437  10.0093  44.7907  44.7907
    45.2900  47.1345  53.5994  55.9437  56.6757  56.6757

          k =-0.1000 0.3000-0.1000 (   551 PWs)   bands (ev):

    -9.2556  -9.0899  -9.0842  -8.9192  -8.8040  10.9465  39.1151  43.1313
    44.7462  48.2055  50.9273  55.7789  58.1653  58.3934

          k =-0.2000 0.4000-0.2000 (   551 PWs)   bands (ev):

    -9.2391  -9.0864  -9.0618  -8.8525  -8.7122  12.6797  33.1251  41.9818
    43.3194  47.5496  52.3289  55.6089  56.3548  56.8689

          k =-0.3000 0.5000-0.3000 (   550 PWs)   bands (ev):

    -9.2187  -9.1158  -9.0820  -8.7364  -8.6125  15.1160  27.8193  41.4926
    41.6650  46.6840  54.0039  54.6105  54.6521  58.4437

          k = 0.6000-0.4000 0.6000 (   558 PWs)   bands (ev):

    -9.2006  -9.1369  -9.1037  -8.6440  -8.5783  17.5765  24.0353  40.2954
    41.7710  46.6145  53.2238  53.4001  55.1474  62.3465

          k = 0.5000-0.3000 0.5000 (   551 PWs)   bands (ev):

    -9.1774  -9.1490  -9.1056  -8.6370  -8.6169  16.8782  25.0069  39.5517
    42.8544  47.2300  52.3749  52.7469  56.2532  62.9648

          k = 0.4000-0.2000 0.4000 (   546 PWs)   bands (ev):

    -9.1788  -9.1301  -9.0875  -8.7645  -8.6630  14.2385  29.5019  39.5304
    44.6448  48.4739  51.7654  52.6529  57.7785  59.2448

          k = 0.3000-0.1000 0.3000 (   548 PWs)   bands (ev):

    -9.1999  -9.1060  -9.0831  -8.8832  -8.7519  12.0153  35.0669  40.2148
    46.7330  49.8317  51.6348  53.2053  55.9866  57.7154

          k = 0.2000 0.0000 0.2000 (   553 PWs)   bands (ev):

    -9.2147  -9.1430  -9.1262  -8.8990  -8.8285  10.5450  40.7532  41.9157
    47.8125  49.2560  53.6110  54.2605  54.7451  56.5026

          k = 0.0000 0.4000 0.0000 (   564 PWs)   bands (ev):

    -9.3274  -8.9936  -8.9819  -8.9819  -8.7736  11.6155  40.9495  41.1341
    41.1341  45.4123  47.7457  60.2404  60.4418  60.4418

          k =-0.1000 0.5000-0.1000 (   551 PWs)   bands (ev):

    -9.3452  -9.0527  -8.9199  -8.8754  -8.6989  13.0822  35.4955  39.7688
    40.0670  45.4582  47.7873  60.0131  60.1319  61.2432

          k =-0.2000 0.6000-0.2000 (   549 PWs)   bands (ev):

    -9.3126  -9.0759  -8.9295  -8.8014  -8.6013  15.2841  30.2097  37.8206
    39.1830  44.9297  51.6451  58.2540  58.6571  60.6092

          k = 0.7000-0.3000 0.7000 (   547 PWs)   bands (ev):

    -9.2686  -9.0517  -8.9558  -8.7619  -8.5708  17.8424  25.9743  35.8680
    39.4655  44.9675  56.1913  56.7302  57.2480  60.9480

          k = 0.6000-0.2000 0.6000 (   557 PWs)   bands (ev):

    -9.2246  -9.0385  -8.9710  -8.7261  -8.6383  18.4507  25.1831  34.5835
    40.6352  45.5871  55.7124  55.7240  60.8492  62.5129

          k = 0.5000-0.1000 0.5000 (   550 PWs)   bands (ev):

    -9.1727  -9.0847  -8.9639  -8.7818  -8.6884  16.1006  28.8115  34.1355
    42.6068  46.8140  54.5379  55.2452  58.9481  60.1434

          k = 0.4000 0.0000 0.4000 (   550 PWs)   bands (ev):

    -9.1545  -9.1247  -8.9632  -8.9188  -8.6921  13.7269  33.2479  35.1700
    45.0691  48.6586  52.7401  55.0086  55.4964  58.0435

          k = 0.0000 0.6000 0.0000 (   552 PWs)   bands (ev):

    -9.4286  -9.1160  -8.7680  -8.7680  -8.6863  14.2812  35.0400  38.1438
    38.1438  44.1230  44.5498  63.8704  63.8704  64.7249

          k =-0.1000 0.7000-0.1000 (   551 PWs)   bands (ev):

    -9.4347  -9.1554  -8.7458  -8.6947  -8.5979  16.2265  31.4296  35.5377
    37.3203  43.8203  46.2922  62.1441  63.4012  66.6944

          k = 0.8000-0.2000 0.8000 (   548 PWs)   bands (ev):

    -9.3758  -9.1208  -8.7714  -8.7045  -8.5600  18.6523  27.9487  32.5093
    37.4030  43.8057  50.6473  60.3698  61.6366  66.9408

          k = 0.7000-0.1000 0.7000 (   545 PWs)   bands (ev):

    -9.3050  -8.9904  -8.7982  -8.7949  -8.6249  20.0558  26.4841  30.3577
    38.4059  44.2929  55.7360  59.0648  60.0579  64.4273

          k = 0.6000-0.0000 0.6000 (   546 PWs)   bands (ev):

    -9.2361  -8.9468  -8.8331  -8.8095  -8.7489  18.4172  28.6928  29.7539
    40.2333  45.2945  57.9159  57.9654  60.3275  60.4711

          k = 0.0000 0.8000 0.0000 (   556 PWs)   bands (ev):

    -9.5099  -9.2228  -8.6154  -8.5898  -8.5898  17.9018  28.9930  36.2240
    36.2240  43.1261  43.3621  64.4722  67.9610  67.9610

          k = 0.9000-0.1000 0.9000 (   550 PWs)   bands (ev):

    -9.4899  -9.2283  -8.6282  -8.5746  -8.5424  20.0251  26.5452  33.6760
    36.0381  43.1251  45.5962  63.3157  66.8428  69.7611

          k = 0.8000 0.0000 0.8000 (   542 PWs)   bands (ev):

    -9.4005  -9.1444  -8.6722  -8.6607  -8.5823  21.1177  26.1885  30.3421
    36.7936  43.4785  50.3015  61.5692  64.5276  66.5282

          k = 0.0000-1.0000 0.0000 (   524 PWs)   bands (ev):

    -9.5408  -9.2653  -8.5881  -8.5204  -8.5204  21.1060  24.9298  35.5635
    35.5635  42.7183  43.1160  64.3744  70.3503  71.3211

          k =-0.2000 0.4000 0.0000 (   548 PWs)   bands (ev):

    -9.2670  -9.0637  -8.9901  -8.9416  -8.7390  12.1489  36.8438  38.5350
    44.4690  48.5227  49.3035  55.9821  57.3406  59.8594

          k =-0.3000 0.5000-0.1000 (   546 PWs)   bands (ev):

    -9.2333  -9.0942  -8.9750  -8.8522  -8.6613  14.1208  31.7641  37.0360
    42.2525  48.1134  51.8111  54.5645  57.6498  61.4340

          k = 0.6000-0.4000 0.8000 (   546 PWs)   bands (ev):

    -9.1921  -9.1292  -8.9839  -8.7503  -8.6114  16.6688  26.9690  36.6990
    40.3106  47.5963  52.2700  57.1346  58.1283  59.8815

          k = 0.5000-0.3000 0.7000 (   552 PWs)   bands (ev):

    -9.1725  -9.1483  -8.9824  -8.7094  -8.5973  18.4419  24.4292  36.7249
    39.4943  47.4153  51.9990  58.2951  58.8372  61.7299

          k =-0.2000 0.6000 0.0000 (   543 PWs)   bands (ev):

    -9.3529  -9.0963  -8.8761  -8.7734  -8.6418  14.7894  33.2243  35.8264
    38.6963  47.0166  47.1032  58.0145  62.4965  65.3578

          k = 0.7000-0.3000 0.9000 (   549 PWs)   bands (ev):

    -9.2969  -9.1023  -8.8860  -8.7208  -8.6009  17.1342  29.2613  34.0486
    36.9853  46.8517  51.1278  56.1275  63.0765  64.1032

          k = 0.6000-0.2000 0.8000 (   547 PWs)   bands (ev):

    -9.2370  -9.0574  -8.8745  -8.7807  -8.5912  19.3481  26.1163  32.7769
    36.7760  47.1650  54.2525  56.4697  61.8004  62.8864

          k = 0.5000-0.1000 0.7000 (   546 PWs)   bands (ev):

    -9.1880  -9.0661  -8.8735  -8.7867  -8.6505  18.6831  27.1139  31.9089
    37.9034  48.0204  53.5094  57.8019  61.0326  61.3923

          k = 0.4000 0.0000 0.6000 (   548 PWs)   bands (ev):

    -9.1554  -9.1370  -8.9166  -8.7826  -8.6775  16.2518  30.5204  32.4847
    39.8928  49.2212  52.1249  54.6730  59.8922  62.8487

          k = 0.8000-0.2000 1.0000 (   551 PWs)   bands (ev):

    -9.4232  -9.1811  -8.7364  -8.5952  -8.5914  18.3097  28.9436  34.0765
    35.0461  45.9514  46.0613  60.4315  66.3315  67.9198

          k = 0.7000-0.1000 0.9000 (   549 PWs)   bands (ev):

    -9.3392  -9.1333  -8.7768  -8.6750  -8.5529  20.4426  27.1019  30.9730
    34.8478  46.2366  50.5514  58.6384  63.3763  66.4964

          k = 0.6000 0.0000 0.8000 (   539 PWs)   bands (ev):

    -9.2560  -8.9910  -8.8929  -8.7543  -8.5987  20.5455  27.9927  28.5595
    35.9689  46.9775  55.8361  56.7666  59.3997  64.2132

          k =-0.2000-1.0000 0.0000 (   544 PWs)   bands (ev):

    -9.4500  -9.2172  -8.6323  -8.6250  -8.5204  21.2105  25.5626  33.4710
    34.0225  45.5920  45.7438  61.9589  66.2192  68.4615

          k = 0.6000-0.2000 1.0000 (   549 PWs)   bands (ev):

    -9.1907  -9.1224  -8.9099  -8.7002  -8.5953  19.3760  28.5523  30.7632
    34.6240  50.7688  51.0727  54.7343  61.9075  65.9521

          k = 0.5000-0.1000 0.9000 (   540 PWs)   bands (ev):

    -9.1427  -9.0669  -8.9646  -8.7560  -8.5552  20.7399  27.4969  29.9600
    33.6751  50.8546  53.1078  56.3735  57.3124  67.1199

          k =-0.4000-1.0000 0.0000 (   534 PWs)   bands (ev):

    -9.2060  -9.1174  -8.8912  -8.7256  -8.5203  21.3944  27.3837  30.1695
    32.3665  50.7109  51.1976  56.3798  58.8992  69.2057

     the Fermi energy is    46.8702 ev

!    total energy              =   -1069.94545416 Ry
     Harris-Foulkes estimate   =   -1069.94545416 Ry
     estimated scf accuracy    <          4.4E-10 Ry

     total all-electron energy =    -48515.555765 Ry

     The total energy is the sum of the following terms:

     one-electron contribution =       1.51493310 Ry
     hartree contribution      =      28.18454849 Ry
     xc contribution           =     -64.59338484 Ry
     ewald contribution        =    -242.33311993 Ry
     one-center paw contrib.   =    -792.71784016 Ry
     smearing contrib. (-TS)   =      -0.00059082 Ry

     convergence has been achieved in   6 iterations

     Forces acting on atoms (cartesian axes, Ry/au):

     atom    1 type  1   force =     0.00000000    0.00000000    0.00000000

     Total force =     0.000000     Total SCF correction =     0.000000


     Computing stress (Cartesian axis) and pressure

          total   stress  (Ry/bohr**3)                   (kbar)     P= 7265.92
   0.04939271  -0.00000000  -0.00000000       7265.92     -0.00     -0.00
  -0.00000000   0.04939271   0.00000000         -0.00   7265.92      0.00
  -0.00000000   0.00000000   0.04939271         -0.00      0.00   7265.92


     Writing output data file Fr.save/

     init_run     :      0.40s CPU      0.43s WALL (       1 calls)
     electrons    :      4.08s CPU      4.39s WALL (       1 calls)
     forces       :      0.05s CPU      0.05s WALL (       1 calls)
     stress       :      0.13s CPU      0.14s WALL (       1 calls)

     Called by init_run:
     wfcinit      :      0.13s CPU      0.14s WALL (       1 calls)
     potinit      :      0.11s CPU      0.12s WALL (       1 calls)
     hinit0       :      0.14s CPU      0.14s WALL (       1 calls)

     Called by electrons:
     c_bands      :      2.85s CPU      3.03s WALL (       7 calls)
     sum_band     :      0.52s CPU      0.55s WALL (       7 calls)
     v_of_rho     :      0.02s CPU      0.02s WALL (       7 calls)
     newd         :      0.03s CPU      0.04s WALL (       7 calls)
     PAW_pot      :      0.77s CPU      0.86s WALL (       7 calls)
     mix_rho      :      0.00s CPU      0.00s WALL (       7 calls)

     Called by c_bands:
     init_us_2    :      0.06s CPU      0.07s WALL (     799 calls)
     cegterg      :      2.75s CPU      2.94s WALL (     329 calls)

     Called by sum_band:
     sum_band:bec :      0.00s CPU      0.00s WALL (     329 calls)
     addusdens    :      0.03s CPU      0.03s WALL (       7 calls)

     Called by *egterg:
     h_psi        :      1.90s CPU      2.05s WALL (    1182 calls)
     s_psi        :      0.06s CPU      0.06s WALL (    1182 calls)
     g_psi        :      0.01s CPU      0.01s WALL (     806 calls)
     cdiaghg      :      0.49s CPU      0.51s WALL (    1088 calls)

     Called by h_psi:
     h_psi:pot    :      1.89s CPU      2.04s WALL (    1182 calls)
     h_psi:calbec :      0.09s CPU      0.10s WALL (    1182 calls)
     vloc_psi     :      1.74s CPU      1.87s WALL (    1182 calls)
     add_vuspsi   :      0.05s CPU      0.06s WALL (    1182 calls)

     General routines
     calbec       :      0.17s CPU      0.18s WALL (    1746 calls)
     fft          :      0.02s CPU      0.02s WALL (     104 calls)
     ffts         :      0.00s CPU      0.00s WALL (       7 calls)
     fftw         :      1.99s CPU      2.13s WALL (   28610 calls)

     Parallel routines
     fft_scatt_xy :      0.17s CPU      0.18s WALL (   28721 calls)
     fft_scatt_yz :      0.72s CPU      0.77s WALL (   28721 calls)

     PWSCF        :     5.64s CPU         6.08s WALL


   This run was terminated on:  22:38:12   7Apr2024            

=------------------------------------------------------------------------------=
   JOB DONE.
=------------------------------------------------------------------------------=
