
     Program PWSCF v.6.3MaX starts on  7Apr2024 at 22:27:43 

     This program is part of the open-source Quantum ESPRESSO suite
     for quantum simulation of materials; please cite
         "P. Giannozzi et al., J. Phys.:Condens. Matter 21 395502 (2009);
         "P. Giannozzi et al., J. Phys.:Condens. Matter 29 465901 (2017);
          URL http://www.quantum-espresso.org", 
     in publications or presentations arising from this work. More details at
     http://www.quantum-espresso.org/quote

     Parallel version (MPI), running on     5 processors

     MPI processes distributed on     1 nodes
     R & G space division:  proc/nbgrp/npool/nimage =       5
     Waiting for input...
     Reading input from standard input

     Current dimensions of program PWSCF are:
     Max number of different atomic species (ntypx) = 10
     Max number of k-points (npk) =  40000
     Max angular momentum in pseudopotentials (lmaxx) =  3

     Subspace diagonalization in iterative solution of the eigenvalue problem:
     a serial algorithm will be used


     Parallelization info
     --------------------
     sticks:   dense  smooth     PW     G-vecs:    dense   smooth      PW
     Min          39      39     12                  361      361      67
     Max          40      40     13                  363      363      70
     Sum         199     199     61                 1807     1807     339



     bravais-lattice index     =            2
     lattice parameter (alat)  =       6.8300  a.u.
     unit-cell volume          =      79.6530 (a.u.)^3
     number of atoms/cell      =            1
     number of atomic types    =            1
     number of electrons       =        19.00
     number of Kohn-Sham states=           14
     kinetic-energy cutoff     =      30.0000  Ry
     charge density cutoff     =     120.0000  Ry
     convergence threshold     =      1.0E-08
     mixing beta               =       0.7000
     number of iterations used =            8  plain     mixing
     Exchange-correlation      = PBE ( 1  4  3  4 0 0)

     celldm(1)=   6.830000  celldm(2)=   0.000000  celldm(3)=   0.000000
     celldm(4)=   0.000000  celldm(5)=   0.000000  celldm(6)=   0.000000

     crystal axes: (cart. coord. in units of alat)
               a(1) = (  -0.500000   0.000000   0.500000 )  
               a(2) = (   0.000000   0.500000   0.500000 )  
               a(3) = (  -0.500000   0.500000   0.000000 )  

     reciprocal axes: (cart. coord. in units 2 pi/alat)
               b(1) = ( -1.000000 -1.000000  1.000000 )  
               b(2) = (  1.000000  1.000000  1.000000 )  
               b(3) = ( -1.000000  1.000000 -1.000000 )  


     PseudoPot. # 1 for Fr read from file:
     /home/lorenzo/pseudos/Fr/Fr.pbe-spdn-rrkjus_psl.1.0.0.UPF
     MD5 check sum: 07cabfa18982bd6b5b9d8ae5689d9732
     Pseudo is Ultrasoft + core correction, Zval = 19.0
     Generated using "atomic" code by A. Dal Corso v.6.2.2
     Using radial grid of 1287 points,  6 beta functions with: 
                l(1) =   0
                l(2) =   0
                l(3) =   1
                l(4) =   1
                l(5) =   2
                l(6) =   2
     Q(r) pseudized with 0 coefficients 


     atomic species   valence    mass     pseudopotential
        Fr            19.00   223.00000     Fr( 1.00)

     48 Sym. Ops., with inversion, found



   Cartesian axes

     site n.     atom                  positions (alat units)
         1           Fr  tau(   1) = (   0.0000000   0.0000000   0.0000000  )

     number of k points=     8  gaussian smearing, width (Ry)=  0.0100
                       cart. coord. in units 2pi/alat
        k(    1) = (   0.0000000   0.0000000   0.0000000), wk =   0.0312500
        k(    2) = (  -0.2500000   0.2500000  -0.2500000), wk =   0.2500000
        k(    3) = (   0.5000000  -0.5000000   0.5000000), wk =   0.1250000
        k(    4) = (   0.0000000   0.5000000   0.0000000), wk =   0.1875000
        k(    5) = (   0.7500000  -0.2500000   0.7500000), wk =   0.7500000
        k(    6) = (   0.5000000   0.0000000   0.5000000), wk =   0.3750000
        k(    7) = (   0.0000000  -1.0000000   0.0000000), wk =   0.0937500
        k(    8) = (  -0.5000000  -1.0000000   0.0000000), wk =   0.1875000

     Dense  grid:     1807 G-vectors     FFT dimensions: (  18,  18,  18)

     Estimated max dynamical RAM per process >       2.41 MB

     Estimated total dynamical RAM >      12.03 MB

     Check: negative/imaginary core charge=   -0.000066    0.000000

     Initial potential from superposition of free atoms

     starting charge   18.97009, renormalised to   19.00000
     Starting wfcs are   10 randomized atomic wfcs +    4 random wfcs

     total cpu time spent up to now is        1.0 secs

     Self-consistent Calculation

     iteration #  1     ecut=    30.00 Ry     beta= 0.70
     Davidson diagonalization with overlap
     ethr =  1.00E-02,  avg # of iterations =  5.1

     total cpu time spent up to now is        1.1 secs

     total energy              =    -281.05960276 Ry
     Harris-Foulkes estimate   =    -281.21530473 Ry
     estimated scf accuracy    <       0.20961583 Ry

     iteration #  2     ecut=    30.00 Ry     beta= 0.70
     Davidson diagonalization with overlap
     ethr =  1.10E-03,  avg # of iterations =  2.0

     total cpu time spent up to now is        1.1 secs

     total energy              =    -281.10823298 Ry
     Harris-Foulkes estimate   =    -281.11381139 Ry
     estimated scf accuracy    <       0.01003149 Ry

     iteration #  3     ecut=    30.00 Ry     beta= 0.70
     Davidson diagonalization with overlap
     ethr =  5.28E-05,  avg # of iterations =  2.2

     total cpu time spent up to now is        1.2 secs

     total energy              =    -281.10994081 Ry
     Harris-Foulkes estimate   =    -281.10999930 Ry
     estimated scf accuracy    <       0.00044964 Ry

     iteration #  4     ecut=    30.00 Ry     beta= 0.70
     Davidson diagonalization with overlap
     ethr =  2.37E-06,  avg # of iterations =  2.0

     total cpu time spent up to now is        1.2 secs

     total energy              =    -281.10996744 Ry
     Harris-Foulkes estimate   =    -281.10996587 Ry
     estimated scf accuracy    <       0.00000234 Ry

     iteration #  5     ecut=    30.00 Ry     beta= 0.70
     Davidson diagonalization with overlap
     ethr =  1.23E-08,  avg # of iterations =  2.5

     total cpu time spent up to now is        1.3 secs

     total energy              =    -281.10996827 Ry
     Harris-Foulkes estimate   =    -281.10996832 Ry
     estimated scf accuracy    <       0.00000013 Ry

     iteration #  6     ecut=    30.00 Ry     beta= 0.70
     Davidson diagonalization with overlap
     ethr =  6.74E-10,  avg # of iterations =  2.0

     total cpu time spent up to now is        1.3 secs

     total energy              =    -281.10996828 Ry
     Harris-Foulkes estimate   =    -281.10996829 Ry
     estimated scf accuracy    <       0.00000001 Ry

     iteration #  7     ecut=    30.00 Ry     beta= 0.70
     Davidson diagonalization with overlap
     ethr =  5.42E-11,  avg # of iterations =  2.0

     total cpu time spent up to now is        1.4 secs

     End of self-consistent calculation

          k = 0.0000 0.0000 0.0000 (   229 PWs)   bands (ev):

    -9.0860  -9.0860  -9.0860  -8.8373  -8.8373   9.3837  46.9945  46.9945
    46.9945  48.6180  55.6499  55.6499  55.6499  57.5452

          k =-0.2500 0.2500-0.2500 (   217 PWs)   bands (ev):

    -9.0117  -8.9345  -8.9345  -8.3997  -8.3997  11.8761  33.8883  44.7196
    44.7196  48.7008  53.7057  55.2366  55.2366  59.8595

          k = 0.5000-0.5000 0.5000 (   228 PWs)   bands (ev):

    -9.5174  -9.2479  -9.2479  -8.9593  -8.9593  17.3731  23.3168  42.8248
    42.8248  48.3007  51.9276  53.2243  53.2243  65.5212

          k = 0.0000 0.5000 0.0000 (   218 PWs)   bands (ev):

    -9.3354  -9.1632  -8.7238  -8.7238  -8.2657  12.7029  37.8025  39.5548
    39.5548  45.8298  46.5343  62.3161  62.3161  63.7363

          k = 0.7500-0.2500 0.7500 (   223 PWs)   bands (ev):

    -9.5028  -9.1162  -8.9623  -8.8692  -8.5483  17.9746  27.1241  33.9949
    38.3427  45.1388  54.1441  59.5010  59.6769  64.5004

          k = 0.5000 0.0000 0.5000 (   218 PWs)   bands (ev):

    -8.9478  -8.8734  -8.8121  -8.7199  -8.6914  15.8452  30.3907  32.5138
    42.5481  47.4949  55.5795  57.6488  58.2552  59.8015

          k = 0.0000-1.0000 0.0000 (   222 PWs)   bands (ev):

    -9.7764  -9.1914  -8.9274  -8.9274  -8.3001  20.8145  24.9634  35.4904
    35.4904  43.4477  44.3634  64.6476  70.4686  71.2857

          k =-0.5000-1.0000 0.0000 (   224 PWs)   bands (ev):

    -9.2416  -9.1314  -9.1314  -8.8705  -8.8340  21.0609  28.7910  28.7910
    32.4228  53.6083  54.3287  54.3287  57.0296  70.3400

     the Fermi energy is    45.9229 ev

!    total energy              =    -281.10996828 Ry
     Harris-Foulkes estimate   =    -281.10996828 Ry
     estimated scf accuracy    <          1.2E-10 Ry

     The total energy is the sum of the following terms:

     one-electron contribution =      -1.40175479 Ry
     hartree contribution      =      26.59352609 Ry
     xc contribution           =     -63.96828842 Ry
     ewald contribution        =    -242.33311990 Ry
     smearing contrib. (-TS)   =      -0.00033126 Ry

     convergence has been achieved in   7 iterations

     Forces acting on atoms (cartesian axes, Ry/au):

     atom    1 type  1   force =     0.00000000    0.00000000    0.00000000

     Total force =     0.000000     Total SCF correction =     0.000000


     Computing stress (Cartesian axis) and pressure

          total   stress  (Ry/bohr**3)                   (kbar)     P=-5116.04
  -0.03477812  -0.00000000  -0.00000000      -5116.04     -0.00     -0.00
  -0.00000000  -0.03477812  -0.00000000         -0.00  -5116.04     -0.00
  -0.00000000  -0.00000000  -0.03477812         -0.00     -0.00  -5116.04


     Writing output data file Fr.save/

     init_run     :      0.12s CPU      0.12s WALL (       1 calls)
     electrons    :      0.37s CPU      0.40s WALL (       1 calls)
     forces       :      0.01s CPU      0.01s WALL (       1 calls)
     stress       :      0.03s CPU      0.03s WALL (       1 calls)

     Called by init_run:
     wfcinit      :      0.01s CPU      0.02s WALL (       1 calls)
     potinit      :      0.00s CPU      0.00s WALL (       1 calls)
     hinit0       :      0.10s CPU      0.10s WALL (       1 calls)

     Called by electrons:
     c_bands      :      0.29s CPU      0.32s WALL (       7 calls)
     sum_band     :      0.05s CPU      0.06s WALL (       7 calls)
     v_of_rho     :      0.01s CPU      0.01s WALL (       8 calls)
     newd         :      0.01s CPU      0.01s WALL (       8 calls)
     mix_rho      :      0.00s CPU      0.00s WALL (       7 calls)

     Called by c_bands:
     init_us_2    :      0.01s CPU      0.01s WALL (     136 calls)
     cegterg      :      0.29s CPU      0.31s WALL (      56 calls)

     Called by sum_band:
     sum_band:bec :      0.00s CPU      0.00s WALL (      56 calls)
     addusdens    :      0.01s CPU      0.01s WALL (       7 calls)

     Called by *egterg:
     h_psi        :      0.17s CPU      0.19s WALL (     207 calls)
     s_psi        :      0.00s CPU      0.01s WALL (     207 calls)
     g_psi        :      0.00s CPU      0.00s WALL (     143 calls)
     cdiaghg      :      0.09s CPU      0.09s WALL (     199 calls)

     Called by h_psi:
     h_psi:pot    :      0.17s CPU      0.18s WALL (     207 calls)
     h_psi:calbec :      0.01s CPU      0.01s WALL (     207 calls)
     vloc_psi     :      0.15s CPU      0.17s WALL (     207 calls)
     add_vuspsi   :      0.00s CPU      0.01s WALL (     207 calls)

     General routines
     calbec       :      0.01s CPU      0.02s WALL (     303 calls)
     fft          :      0.01s CPU      0.01s WALL (     114 calls)
     ffts         :      0.00s CPU      0.00s WALL (       7 calls)
     fftw         :      0.17s CPU      0.18s WALL (    5004 calls)

     Parallel routines
     fft_scatt_xy :      0.02s CPU      0.02s WALL (    5125 calls)
     fft_scatt_yz :      0.05s CPU      0.06s WALL (    5125 calls)

     PWSCF        :     1.39s CPU         1.47s WALL


   This run was terminated on:  22:27:45   7Apr2024            

=------------------------------------------------------------------------------=
   JOB DONE.
=------------------------------------------------------------------------------=
