
     Program PWSCF v.6.3MaX starts on  7Apr2024 at 22:27:33 

     This program is part of the open-source Quantum ESPRESSO suite
     for quantum simulation of materials; please cite
         "P. Giannozzi et al., J. Phys.:Condens. Matter 21 395502 (2009);
         "P. Giannozzi et al., J. Phys.:Condens. Matter 29 465901 (2017);
          URL http://www.quantum-espresso.org", 
     in publications or presentations arising from this work. More details at
     http://www.quantum-espresso.org/quote

     Parallel version (MPI), running on     5 processors

     MPI processes distributed on     1 nodes
     R & G space division:  proc/nbgrp/npool/nimage =       5
     Waiting for input...
     Reading input from standard input

     Current dimensions of program PWSCF are:
     Max number of different atomic species (ntypx) = 10
     Max number of k-points (npk) =  40000
     Max angular momentum in pseudopotentials (lmaxx) =  3
               file Fr.pbe-spdn-kjpaw_psl.1.0.0.UPF: wavefunction(s)  6P renormalized

     Subspace diagonalization in iterative solution of the eigenvalue problem:
     a serial algorithm will be used


     Parallelization info
     --------------------
     sticks:   dense  smooth     PW     G-vecs:    dense   smooth      PW
     Min          39      39     12                  361      361      66
     Max          40      40     13                  363      363      67
     Sum         199     199     61                 1807     1807     331



     bravais-lattice index     =            2
     lattice parameter (alat)  =       6.8300  a.u.
     unit-cell volume          =      79.6530 (a.u.)^3
     number of atoms/cell      =            1
     number of atomic types    =            1
     number of electrons       =        19.00
     number of Kohn-Sham states=           14
     kinetic-energy cutoff     =      30.0000  Ry
     charge density cutoff     =     120.0000  Ry
     convergence threshold     =      1.0E-08
     mixing beta               =       0.7000
     number of iterations used =            8  plain     mixing
     Exchange-correlation      = SLA PW PBX PBC ( 1  4  3  4 0 0)

     celldm(1)=   6.830000  celldm(2)=   0.000000  celldm(3)=   0.000000
     celldm(4)=   0.000000  celldm(5)=   0.000000  celldm(6)=   0.000000

     crystal axes: (cart. coord. in units of alat)
               a(1) = (  -0.500000   0.000000   0.500000 )  
               a(2) = (   0.000000   0.500000   0.500000 )  
               a(3) = (  -0.500000   0.500000   0.000000 )  

     reciprocal axes: (cart. coord. in units 2 pi/alat)
               b(1) = ( -1.000000 -1.000000  1.000000 )  
               b(2) = (  1.000000  1.000000  1.000000 )  
               b(3) = ( -1.000000  1.000000 -1.000000 )  


     PseudoPot. # 1 for Fr read from file:
     /home/lorenzo/pseudos/Fr/Fr.pbe-spdn-kjpaw_psl.1.0.0.UPF
     MD5 check sum: 362a188b966a64328b94f1ef5f32e8c4
     Pseudo is Projector augmented-wave + core cor, Zval = 19.0
     Generated using "atomic" code by A. Dal Corso v.6.2.2
     Shape of augmentation charge: PSQ
     Using radial grid of 1287 points,  6 beta functions with: 
                l(1) =   0
                l(2) =   0
                l(3) =   1
                l(4) =   1
                l(5) =   2
                l(6) =   2
     Q(r) pseudized with 0 coefficients 


     atomic species   valence    mass     pseudopotential
        Fr            19.00   223.00000     Fr( 1.00)

     48 Sym. Ops., with inversion, found



   Cartesian axes

     site n.     atom                  positions (alat units)
         1           Fr  tau(   1) = (   0.0000000   0.0000000   0.0000000  )

     number of k points=     4  gaussian smearing, width (Ry)=  0.0100
                       cart. coord. in units 2pi/alat
        k(    1) = (   0.0000000   0.0000000   0.0000000), wk =   0.0740741
        k(    2) = (  -0.3333333   0.3333333  -0.3333333), wk =   0.5925926
        k(    3) = (   0.0000000   0.6666667   0.0000000), wk =   0.4444444
        k(    4) = (   0.6666667  -0.0000000   0.6666667), wk =   0.8888889

     Dense  grid:     1807 G-vectors     FFT dimensions: (  18,  18,  18)

     Estimated max dynamical RAM per process >       2.37 MB

     Estimated total dynamical RAM >      11.84 MB

     Check: negative/imaginary core charge=   -0.000066    0.000000

     Initial potential from superposition of free atoms

     starting charge   18.97009, renormalised to   19.00000
     Starting wfcs are   10 randomized atomic wfcs +    4 random wfcs
     Checking if some PAW data can be deallocated... 

     total cpu time spent up to now is        1.2 secs

     Self-consistent Calculation

     iteration #  1     ecut=    30.00 Ry     beta= 0.70
     Davidson diagonalization with overlap
     ethr =  1.00E-02,  avg # of iterations =  5.0

     total cpu time spent up to now is        1.4 secs

     total energy              =   -1068.05155357 Ry
     Harris-Foulkes estimate   =   -1068.22369087 Ry
     estimated scf accuracy    <       0.21392882 Ry

     iteration #  2     ecut=    30.00 Ry     beta= 0.70
     Davidson diagonalization with overlap
     ethr =  1.13E-03,  avg # of iterations =  2.0

     total cpu time spent up to now is        1.6 secs

     total energy              =   -1068.10496606 Ry
     Harris-Foulkes estimate   =   -1068.10772760 Ry
     estimated scf accuracy    <       0.00942841 Ry

     iteration #  3     ecut=    30.00 Ry     beta= 0.70
     Davidson diagonalization with overlap
     ethr =  4.96E-05,  avg # of iterations =  2.2

     total cpu time spent up to now is        1.7 secs

     total energy              =   -1068.10594276 Ry
     Harris-Foulkes estimate   =   -1068.10588365 Ry
     estimated scf accuracy    <       0.00043827 Ry

     iteration #  4     ecut=    30.00 Ry     beta= 0.70
     Davidson diagonalization with overlap
     ethr =  2.31E-06,  avg # of iterations =  2.0

     total cpu time spent up to now is        1.9 secs

     total energy              =   -1068.10597268 Ry
     Harris-Foulkes estimate   =   -1068.10597103 Ry
     estimated scf accuracy    <       0.00000233 Ry

     iteration #  5     ecut=    30.00 Ry     beta= 0.70
     Davidson diagonalization with overlap
     ethr =  1.23E-08,  avg # of iterations =  2.8

     total cpu time spent up to now is        2.0 secs

     total energy              =   -1068.10597340 Ry
     Harris-Foulkes estimate   =   -1068.10597349 Ry
     estimated scf accuracy    <       0.00000020 Ry

     iteration #  6     ecut=    30.00 Ry     beta= 0.70
     Davidson diagonalization with overlap
     ethr =  1.03E-09,  avg # of iterations =  2.0

     total cpu time spent up to now is        2.1 secs

     End of self-consistent calculation

          k = 0.0000 0.0000 0.0000 (   229 PWs)   bands (ev):

    -9.2975  -9.2975  -9.2975  -9.0508  -9.0508   9.3187  46.9697  46.9697
    46.9697  48.5896  55.5832  55.5832  55.5832  57.5037

          k =-0.3333 0.3333-0.3333 (   223 PWs)   bands (ev):

    -9.3082  -9.3082  -9.2763  -9.0372  -9.0372  13.7054  29.1653  43.7018
    43.7018  48.5726  52.6311  54.0513  54.0513  62.1754

          k = 0.0000 0.6667 0.0000 (   218 PWs)   bands (ev):

    -9.6892  -9.4801  -8.8184  -8.8184  -8.5050  15.1838  32.7158  37.3226
    37.3226  44.5738  44.9911  65.3697  65.3697  65.3825

          k = 0.6667-0.0000 0.6667 (   220 PWs)   bands (ev):

    -9.2014  -9.1973  -9.1087  -9.0272  -8.9967  19.4729  28.3755  28.4259
    38.8222  45.4353  57.9719  59.7448  60.4349  63.3343

     the Fermi energy is    45.4047 ev

!    total energy              =   -1068.10597342 Ry
     Harris-Foulkes estimate   =   -1068.10597342 Ry
     estimated scf accuracy    <          1.4E-09 Ry

     total all-electron energy =    -48513.716285 Ry

     The total energy is the sum of the following terms:

     one-electron contribution =       3.87913117 Ry
     hartree contribution      =      26.63597654 Ry
     xc contribution           =     -63.98126037 Ry
     ewald contribution        =    -242.33311990 Ry
     one-center paw contrib.   =    -792.30431734 Ry
     smearing contrib. (-TS)   =      -0.00238352 Ry

     convergence has been achieved in   6 iterations

     Forces acting on atoms (cartesian axes, Ry/au):

     atom    1 type  1   force =     0.00000000    0.00000000    0.00000000

     Total force =     0.000000     Total SCF correction =     0.000000


     Computing stress (Cartesian axis) and pressure

          total   stress  (Ry/bohr**3)                   (kbar)     P=-5319.51
  -0.03616128   0.00000000   0.00000000      -5319.51      0.00      0.00
   0.00000000  -0.03616128  -0.00000000          0.00  -5319.51     -0.00
   0.00000000  -0.00000000  -0.03616128          0.00     -0.00  -5319.51


     Writing output data file Fr.save/

     init_run     :      0.23s CPU      0.25s WALL (       1 calls)
     electrons    :      0.82s CPU      0.93s WALL (       1 calls)
     forces       :      0.01s CPU      0.01s WALL (       1 calls)
     stress       :      0.03s CPU      0.03s WALL (       1 calls)

     Called by init_run:
     wfcinit      :      0.01s CPU      0.01s WALL (       1 calls)
     potinit      :      0.10s CPU      0.12s WALL (       1 calls)
     hinit0       :      0.10s CPU      0.10s WALL (       1 calls)

     Called by electrons:
     c_bands      :      0.13s CPU      0.15s WALL (       6 calls)
     sum_band     :      0.03s CPU      0.04s WALL (       6 calls)
     v_of_rho     :      0.01s CPU      0.01s WALL (       7 calls)
     newd         :      0.01s CPU      0.01s WALL (       7 calls)
     PAW_pot      :      0.73s CPU      0.83s WALL (       7 calls)
     mix_rho      :      0.00s CPU      0.00s WALL (       6 calls)

     Called by c_bands:
     init_us_2    :      0.00s CPU      0.00s WALL (      60 calls)
     cegterg      :      0.12s CPU      0.14s WALL (      24 calls)

     Called by sum_band:
     sum_band:bec :      0.00s CPU      0.00s WALL (      24 calls)
     addusdens    :      0.01s CPU      0.01s WALL (       6 calls)

     Called by *egterg:
     h_psi        :      0.07s CPU      0.08s WALL (      92 calls)
     s_psi        :      0.00s CPU      0.00s WALL (      92 calls)
     g_psi        :      0.00s CPU      0.00s WALL (      64 calls)
     cdiaghg      :      0.04s CPU      0.04s WALL (      88 calls)

     Called by h_psi:
     h_psi:pot    :      0.07s CPU      0.08s WALL (      92 calls)
     h_psi:calbec :      0.00s CPU      0.00s WALL (      92 calls)
     vloc_psi     :      0.07s CPU      0.08s WALL (      92 calls)
     add_vuspsi   :      0.00s CPU      0.00s WALL (      92 calls)

     General routines
     calbec       :      0.01s CPU      0.01s WALL (     136 calls)
     fft          :      0.01s CPU      0.01s WALL (     103 calls)
     ffts         :      0.00s CPU      0.00s WALL (       6 calls)
     fftw         :      0.07s CPU      0.08s WALL (    2168 calls)

     Parallel routines
     fft_scatt_xy :      0.01s CPU      0.01s WALL (    2277 calls)
     fft_scatt_yz :      0.03s CPU      0.03s WALL (    2277 calls)

     PWSCF        :     2.07s CPU         2.25s WALL


   This run was terminated on:  22:27:35   7Apr2024            

=------------------------------------------------------------------------------=
   JOB DONE.
=------------------------------------------------------------------------------=
