
     Program PWSCF v.6.3MaX starts on  7Apr2024 at 22:32:14 

     This program is part of the open-source Quantum ESPRESSO suite
     for quantum simulation of materials; please cite
         "P. Giannozzi et al., J. Phys.:Condens. Matter 21 395502 (2009);
         "P. Giannozzi et al., J. Phys.:Condens. Matter 29 465901 (2017);
          URL http://www.quantum-espresso.org", 
     in publications or presentations arising from this work. More details at
     http://www.quantum-espresso.org/quote

     Parallel version (MPI), running on     5 processors

     MPI processes distributed on     1 nodes
     R & G space division:  proc/nbgrp/npool/nimage =       5
     Waiting for input...
     Reading input from standard input

     Current dimensions of program PWSCF are:
     Max number of different atomic species (ntypx) = 10
     Max number of k-points (npk) =  40000
     Max angular momentum in pseudopotentials (lmaxx) =  3

     Subspace diagonalization in iterative solution of the eigenvalue problem:
     a serial algorithm will be used


     Parallelization info
     --------------------
     sticks:   dense  smooth     PW     G-vecs:    dense   smooth      PW
     Min          50      50     17                  544      544     106
     Max          51      51     17                  548      548     107
     Sum         253     253     85                 2733     2733     531



     bravais-lattice index     =            2
     lattice parameter (alat)  =       6.8300  a.u.
     unit-cell volume          =      79.6530 (a.u.)^3
     number of atoms/cell      =            1
     number of atomic types    =            1
     number of electrons       =        19.00
     number of Kohn-Sham states=           14
     kinetic-energy cutoff     =      40.0000  Ry
     charge density cutoff     =     160.0000  Ry
     convergence threshold     =      1.0E-08
     mixing beta               =       0.7000
     number of iterations used =            8  plain     mixing
     Exchange-correlation      = LDA ( 1  1  0  0 0 0)

     celldm(1)=   6.830000  celldm(2)=   0.000000  celldm(3)=   0.000000
     celldm(4)=   0.000000  celldm(5)=   0.000000  celldm(6)=   0.000000

     crystal axes: (cart. coord. in units of alat)
               a(1) = (  -0.500000   0.000000   0.500000 )  
               a(2) = (   0.000000   0.500000   0.500000 )  
               a(3) = (  -0.500000   0.500000   0.000000 )  

     reciprocal axes: (cart. coord. in units 2 pi/alat)
               b(1) = ( -1.000000 -1.000000  1.000000 )  
               b(2) = (  1.000000  1.000000  1.000000 )  
               b(3) = ( -1.000000  1.000000 -1.000000 )  


     PseudoPot. # 1 for Fr read from file:
     /home/lorenzo/pseudos/Fr/Fr.pz-spdn-rrkjus_psl.1.0.0.UPF
     MD5 check sum: 5665a43a3d1ea02b0b7dc7a0ae9ace04
     Pseudo is Ultrasoft + core correction, Zval = 19.0
     Generated using "atomic" code by A. Dal Corso v.6.2.2
     Using radial grid of 1287 points,  6 beta functions with: 
                l(1) =   0
                l(2) =   0
                l(3) =   1
                l(4) =   1
                l(5) =   2
                l(6) =   2
     Q(r) pseudized with 0 coefficients 


     atomic species   valence    mass     pseudopotential
        Fr            19.00   223.00000     Fr( 1.00)

     48 Sym. Ops., with inversion, found



   Cartesian axes

     site n.     atom                  positions (alat units)
         1           Fr  tau(   1) = (   0.0000000   0.0000000   0.0000000  )

     number of k points=     8  gaussian smearing, width (Ry)=  0.0100
                       cart. coord. in units 2pi/alat
        k(    1) = (   0.0000000   0.0000000   0.0000000), wk =   0.0312500
        k(    2) = (  -0.2500000   0.2500000  -0.2500000), wk =   0.2500000
        k(    3) = (   0.5000000  -0.5000000   0.5000000), wk =   0.1250000
        k(    4) = (   0.0000000   0.5000000   0.0000000), wk =   0.1875000
        k(    5) = (   0.7500000  -0.2500000   0.7500000), wk =   0.7500000
        k(    6) = (   0.5000000   0.0000000   0.5000000), wk =   0.3750000
        k(    7) = (   0.0000000  -1.0000000   0.0000000), wk =   0.0937500
        k(    8) = (  -0.5000000  -1.0000000   0.0000000), wk =   0.1875000

     Dense  grid:     2733 G-vectors     FFT dimensions: (  20,  20,  20)

     Estimated max dynamical RAM per process >       3.26 MB

     Estimated total dynamical RAM >      16.31 MB

     Check: negative/imaginary core charge=   -0.000005    0.000000

     Initial potential from superposition of free atoms

     starting charge   18.97647, renormalised to   19.00000
     Starting wfcs are   10 randomized atomic wfcs +    4 random wfcs

     total cpu time spent up to now is        1.0 secs

     Self-consistent Calculation

     iteration #  1     ecut=    40.00 Ry     beta= 0.70
     Davidson diagonalization with overlap
     ethr =  1.00E-02,  avg # of iterations =  4.6

     Threshold (ethr) on eigenvalues was too large:
     Diagonalizing with lowered threshold

     Davidson diagonalization with overlap
     ethr =  1.06E-04,  avg # of iterations =  1.6

     total cpu time spent up to now is        1.2 secs

     total energy              =    -282.33750330 Ry
     Harris-Foulkes estimate   =    -282.35268357 Ry
     estimated scf accuracy    <       0.01989605 Ry

     iteration #  2     ecut=    40.00 Ry     beta= 0.70
     Davidson diagonalization with overlap
     ethr =  1.05E-04,  avg # of iterations =  2.0

     total cpu time spent up to now is        1.2 secs

     total energy              =    -282.34230897 Ry
     Harris-Foulkes estimate   =    -282.34292213 Ry
     estimated scf accuracy    <       0.00083772 Ry

     iteration #  3     ecut=    40.00 Ry     beta= 0.70
     Davidson diagonalization with overlap
     ethr =  4.41E-06,  avg # of iterations =  2.4

     total cpu time spent up to now is        1.3 secs

     total energy              =    -282.34249063 Ry
     Harris-Foulkes estimate   =    -282.34249709 Ry
     estimated scf accuracy    <       0.00001998 Ry

     iteration #  4     ecut=    40.00 Ry     beta= 0.70
     Davidson diagonalization with overlap
     ethr =  1.05E-07,  avg # of iterations =  2.0

     total cpu time spent up to now is        1.4 secs

     total energy              =    -282.34249245 Ry
     Harris-Foulkes estimate   =    -282.34249243 Ry
     estimated scf accuracy    <       0.00000016 Ry

     iteration #  5     ecut=    40.00 Ry     beta= 0.70
     Davidson diagonalization with overlap
     ethr =  8.27E-10,  avg # of iterations =  2.1

     total cpu time spent up to now is        1.4 secs

     End of self-consistent calculation

          k = 0.0000 0.0000 0.0000 (   331 PWs)   bands (ev):

    -9.4688  -9.4688  -9.4688  -9.1419  -9.1419   9.1137  46.8621  46.8621
    46.8621  48.1646  54.0996  54.0996  54.0996  57.4381

          k =-0.2500 0.2500-0.2500 (   344 PWs)   bands (ev):

    -9.4419  -9.4056  -9.4056  -9.0847  -9.0847  11.6170  33.5509  44.4576
    44.4576  48.0978  53.2223  54.0603  54.0603  58.7048

          k = 0.5000-0.5000 0.5000 (   344 PWs)   bands (ev):

    -9.5154  -9.4417  -9.4417  -8.8035  -8.8035  17.1537  23.0063  42.6582
    42.6582  47.8403  51.1593  51.8825  51.8825  65.1573

          k = 0.0000 0.5000 0.0000 (   343 PWs)   bands (ev):

    -9.6605  -9.3353  -9.1521  -9.1521  -8.9985  12.4510  37.7033  39.2199
    39.2199  44.7580  45.7223  61.8441  61.8441  62.8144

          k = 0.7500-0.2500 0.7500 (   346 PWs)   bands (ev):

    -9.5741  -9.2989  -9.1510  -9.0419  -8.8327  17.7679  26.8269  33.6225
    38.0532  44.2807  53.3580  58.4989  59.0768  63.8320

          k = 0.5000 0.0000 0.5000 (   339 PWs)   bands (ev):

    -9.4166  -9.2884  -9.1662  -9.0749  -8.9480  15.6089  30.1337  32.0500
    42.2539  46.6678  55.0025  56.5842  57.3252  59.1629

          k = 0.0000-1.0000 0.0000 (   342 PWs)   bands (ev):

    -9.7682  -9.5513  -8.8160  -8.7959  -8.7959  20.6481  24.6698  35.2422
    35.2422  42.5681  43.2888  64.1351  70.0618  70.9673

          k =-0.5000-1.0000 0.0000 (   360 PWs)   bands (ev):

    -9.3530  -9.3487  -9.3487  -9.1030  -8.8690  20.9463  28.4295  28.4295
    31.9013  53.0841  53.4221  53.4221  56.3297  69.8922

     the Fermi energy is    44.8511 ev

!    total energy              =    -282.34249248 Ry
     Harris-Foulkes estimate   =    -282.34249248 Ry
     estimated scf accuracy    <          2.9E-09 Ry

     The total energy is the sum of the following terms:

     one-electron contribution =      -4.27839643 Ry
     hartree contribution      =      28.10396246 Ry
     xc contribution           =     -63.83460707 Ry
     ewald contribution        =    -242.33311992 Ry
     smearing contrib. (-TS)   =      -0.00033151 Ry

     convergence has been achieved in   5 iterations

     Forces acting on atoms (cartesian axes, Ry/au):

     atom    1 type  1   force =     0.00000000    0.00000000    0.00000000

     Total force =     0.000000     Total SCF correction =     0.000000


     Computing stress (Cartesian axis) and pressure

          total   stress  (Ry/bohr**3)                   (kbar)     P= 5053.15
   0.03435063  -0.00000000   0.00000000       5053.15     -0.00      0.00
   0.00000000   0.03435063  -0.00000000          0.00   5053.15     -0.00
   0.00000000  -0.00000000   0.03435063          0.00     -0.00   5053.15


     Writing output data file Fr.save/

     init_run     :      0.14s CPU      0.14s WALL (       1 calls)
     electrons    :      0.36s CPU      0.40s WALL (       1 calls)
     forces       :      0.01s CPU      0.01s WALL (       1 calls)
     stress       :      0.03s CPU      0.03s WALL (       1 calls)

     Called by init_run:
     wfcinit      :      0.01s CPU      0.02s WALL (       1 calls)
     potinit      :      0.00s CPU      0.00s WALL (       1 calls)
     hinit0       :      0.11s CPU      0.12s WALL (       1 calls)

     Called by electrons:
     c_bands      :      0.29s CPU      0.32s WALL (       6 calls)
     sum_band     :      0.06s CPU      0.06s WALL (       6 calls)
     v_of_rho     :      0.00s CPU      0.00s WALL (       6 calls)
     newd         :      0.01s CPU      0.02s WALL (       6 calls)
     mix_rho      :      0.00s CPU      0.00s WALL (       6 calls)

     Called by c_bands:
     init_us_2    :      0.01s CPU      0.01s WALL (     120 calls)
     cegterg      :      0.28s CPU      0.31s WALL (      48 calls)

     Called by sum_band:
     sum_band:bec :      0.00s CPU      0.00s WALL (      48 calls)
     addusdens    :      0.02s CPU      0.02s WALL (       6 calls)

     Called by *egterg:
     h_psi        :      0.17s CPU      0.19s WALL (     174 calls)
     s_psi        :      0.01s CPU      0.01s WALL (     174 calls)
     g_psi        :      0.00s CPU      0.00s WALL (     118 calls)
     cdiaghg      :      0.07s CPU      0.07s WALL (     158 calls)

     Called by h_psi:
     h_psi:pot    :      0.17s CPU      0.19s WALL (     174 calls)
     h_psi:calbec :      0.01s CPU      0.01s WALL (     174 calls)
     vloc_psi     :      0.16s CPU      0.18s WALL (     174 calls)
     add_vuspsi   :      0.01s CPU      0.01s WALL (     174 calls)

     General routines
     calbec       :      0.01s CPU      0.02s WALL (     262 calls)
     fft          :      0.00s CPU      0.00s WALL (      34 calls)
     ffts         :      0.00s CPU      0.00s WALL (       6 calls)
     fftw         :      0.17s CPU      0.19s WALL (    4296 calls)

     Parallel routines
     fft_scatt_xy :      0.02s CPU      0.02s WALL (    4336 calls)
     fft_scatt_yz :      0.06s CPU      0.06s WALL (    4336 calls)

     PWSCF        :     1.42s CPU         1.51s WALL


   This run was terminated on:  22:32:16   7Apr2024            

=------------------------------------------------------------------------------=
   JOB DONE.
=------------------------------------------------------------------------------=
