
     Program PWSCF v.6.3MaX starts on  7Apr2024 at 22:23:16 

     This program is part of the open-source Quantum ESPRESSO suite
     for quantum simulation of materials; please cite
         "P. Giannozzi et al., J. Phys.:Condens. Matter 21 395502 (2009);
         "P. Giannozzi et al., J. Phys.:Condens. Matter 29 465901 (2017);
          URL http://www.quantum-espresso.org", 
     in publications or presentations arising from this work. More details at
     http://www.quantum-espresso.org/quote

     Parallel version (MPI), running on     5 processors

     MPI processes distributed on     1 nodes
     R & G space division:  proc/nbgrp/npool/nimage =       5
     Waiting for input...
     Reading input from standard input

     Current dimensions of program PWSCF are:
     Max number of different atomic species (ntypx) = 10
     Max number of k-points (npk) =  40000
     Max angular momentum in pseudopotentials (lmaxx) =  3

     Subspace diagonalization in iterative solution of the eigenvalue problem:
     a serial algorithm will be used


     Parallelization info
     --------------------
     sticks:   dense  smooth     PW     G-vecs:    dense   smooth      PW
     Min          24      24     11                  187      187      51
     Max          25      25     11                  191      191      52
     Sum         121     121     55                  941      941     259



     bravais-lattice index     =            2
     lattice parameter (alat)  =       6.8300  a.u.
     unit-cell volume          =      79.6530 (a.u.)^3
     number of atoms/cell      =            1
     number of atomic types    =            1
     number of electrons       =        19.00
     number of Kohn-Sham states=           14
     kinetic-energy cutoff     =      20.0000  Ry
     charge density cutoff     =      80.0000  Ry
     convergence threshold     =      1.0E-08
     mixing beta               =       0.7000
     number of iterations used =            8  plain     mixing
     Exchange-correlation      = LDA ( 1  1  0  0 0 0)

     celldm(1)=   6.830000  celldm(2)=   0.000000  celldm(3)=   0.000000
     celldm(4)=   0.000000  celldm(5)=   0.000000  celldm(6)=   0.000000

     crystal axes: (cart. coord. in units of alat)
               a(1) = (  -0.500000   0.000000   0.500000 )  
               a(2) = (   0.000000   0.500000   0.500000 )  
               a(3) = (  -0.500000   0.500000   0.000000 )  

     reciprocal axes: (cart. coord. in units 2 pi/alat)
               b(1) = ( -1.000000 -1.000000  1.000000 )  
               b(2) = (  1.000000  1.000000  1.000000 )  
               b(3) = ( -1.000000  1.000000 -1.000000 )  


     PseudoPot. # 1 for Fr read from file:
     /home/lorenzo/pseudos/Fr/Fr.pz-spdn-rrkjus_psl.1.0.0.UPF
     MD5 check sum: 5665a43a3d1ea02b0b7dc7a0ae9ace04
     Pseudo is Ultrasoft + core correction, Zval = 19.0
     Generated using "atomic" code by A. Dal Corso v.6.2.2
     Using radial grid of 1287 points,  6 beta functions with: 
                l(1) =   0
                l(2) =   0
                l(3) =   1
                l(4) =   1
                l(5) =   2
                l(6) =   2
     Q(r) pseudized with 0 coefficients 


     atomic species   valence    mass     pseudopotential
        Fr            19.00   223.00000     Fr( 1.00)

     48 Sym. Ops., with inversion, found



   Cartesian axes

     site n.     atom                  positions (alat units)
         1           Fr  tau(   1) = (   0.0000000   0.0000000   0.0000000  )

     number of k points=    56  gaussian smearing, width (Ry)=  0.0100
                       cart. coord. in units 2pi/alat
        k(    1) = (   0.0000000   0.0000000   0.0000000), wk =   0.0015026
        k(    2) = (  -0.0909091   0.0909091  -0.0909091), wk =   0.0120210
        k(    3) = (  -0.1818182   0.1818182  -0.1818182), wk =   0.0120210
        k(    4) = (  -0.2727273   0.2727273  -0.2727273), wk =   0.0120210
        k(    5) = (  -0.3636364   0.3636364  -0.3636364), wk =   0.0120210
        k(    6) = (  -0.4545455   0.4545455  -0.4545455), wk =   0.0120210
        k(    7) = (   0.0000000   0.1818182   0.0000000), wk =   0.0090158
        k(    8) = (  -0.0909091   0.2727273  -0.0909091), wk =   0.0360631
        k(    9) = (  -0.1818182   0.3636364  -0.1818182), wk =   0.0360631
        k(   10) = (  -0.2727273   0.4545455  -0.2727273), wk =   0.0360631
        k(   11) = (  -0.3636364   0.5454545  -0.3636364), wk =   0.0360631
        k(   12) = (   0.5454545  -0.3636364   0.5454545), wk =   0.0360631
        k(   13) = (   0.4545455  -0.2727273   0.4545455), wk =   0.0360631
        k(   14) = (   0.3636364  -0.1818182   0.3636364), wk =   0.0360631
        k(   15) = (   0.2727273  -0.0909091   0.2727273), wk =   0.0360631
        k(   16) = (   0.1818182  -0.0000000   0.1818182), wk =   0.0180316
        k(   17) = (   0.0000000   0.3636364   0.0000000), wk =   0.0090158
        k(   18) = (  -0.0909091   0.4545455  -0.0909091), wk =   0.0360631
        k(   19) = (  -0.1818182   0.5454545  -0.1818182), wk =   0.0360631
        k(   20) = (  -0.2727273   0.6363636  -0.2727273), wk =   0.0360631
        k(   21) = (   0.6363636  -0.2727273   0.6363636), wk =   0.0360631
        k(   22) = (   0.5454545  -0.1818182   0.5454545), wk =   0.0360631
        k(   23) = (   0.4545455  -0.0909091   0.4545455), wk =   0.0360631
        k(   24) = (   0.3636364   0.0000000   0.3636364), wk =   0.0180316
        k(   25) = (   0.0000000   0.5454545   0.0000000), wk =   0.0090158
        k(   26) = (  -0.0909091   0.6363636  -0.0909091), wk =   0.0360631
        k(   27) = (  -0.1818182   0.7272727  -0.1818182), wk =   0.0360631
        k(   28) = (   0.7272727  -0.1818182   0.7272727), wk =   0.0360631
        k(   29) = (   0.6363636  -0.0909091   0.6363636), wk =   0.0360631
        k(   30) = (   0.5454545   0.0000000   0.5454545), wk =   0.0180316
        k(   31) = (   0.0000000   0.7272727   0.0000000), wk =   0.0090158
        k(   32) = (  -0.0909091   0.8181818  -0.0909091), wk =   0.0360631
        k(   33) = (   0.8181818  -0.0909091   0.8181818), wk =   0.0360631
        k(   34) = (   0.7272727   0.0000000   0.7272727), wk =   0.0180316
        k(   35) = (   0.0000000   0.9090909   0.0000000), wk =   0.0090158
        k(   36) = (   0.9090909  -0.0000000   0.9090909), wk =   0.0180316
        k(   37) = (  -0.1818182   0.3636364   0.0000000), wk =   0.0360631
        k(   38) = (  -0.2727273   0.4545455  -0.0909091), wk =   0.0721262
        k(   39) = (  -0.3636364   0.5454545  -0.1818182), wk =   0.0721262
        k(   40) = (   0.5454545  -0.3636364   0.7272727), wk =   0.0721262
        k(   41) = (  -0.1818182   0.5454545   0.0000000), wk =   0.0360631
        k(   42) = (  -0.2727273   0.6363636  -0.0909091), wk =   0.0721262
        k(   43) = (   0.6363636  -0.2727273   0.8181818), wk =   0.0721262
        k(   44) = (   0.5454545  -0.1818182   0.7272727), wk =   0.0721262
        k(   45) = (   0.4545455  -0.0909091   0.6363636), wk =   0.0721262
        k(   46) = (   0.3636364   0.0000000   0.5454545), wk =   0.0360631
        k(   47) = (  -0.1818182   0.7272727   0.0000000), wk =   0.0360631
        k(   48) = (   0.7272727  -0.1818182   0.9090909), wk =   0.0721262
        k(   49) = (   0.6363636  -0.0909091   0.8181818), wk =   0.0721262
        k(   50) = (   0.5454545   0.0000000   0.7272727), wk =   0.0360631
        k(   51) = (   0.8181818  -0.0909091   1.0000000), wk =   0.0360631
        k(   52) = (   0.7272727   0.0000000   0.9090909), wk =   0.0360631
        k(   53) = (   0.6363636  -0.2727273   1.0000000), wk =   0.0360631
        k(   54) = (   0.5454545  -0.1818182   0.9090909), wk =   0.0721262
        k(   55) = (   0.6363636  -0.0909091   1.0000000), wk =   0.0360631
        k(   56) = (   0.5454545   0.0000000   0.9090909), wk =   0.0360631

     Dense  grid:      941 G-vectors     FFT dimensions: (  15,  15,  15)

     Estimated max dynamical RAM per process >       1.78 MB

     Estimated total dynamical RAM >       8.91 MB

     Check: negative/imaginary core charge=   -0.000219    0.000000

     Initial potential from superposition of free atoms

     starting charge   18.97647, renormalised to   19.00000
     Starting wfcs are   10 randomized atomic wfcs +    4 random wfcs

     total cpu time spent up to now is        1.1 secs

     Self-consistent Calculation

     iteration #  1     ecut=    20.00 Ry     beta= 0.70
     Davidson diagonalization with overlap
     ethr =  1.00E-02,  avg # of iterations =  4.6

     total cpu time spent up to now is        1.6 secs

     total energy              =    -272.14015405 Ry
     Harris-Foulkes estimate   =    -273.95486801 Ry
     estimated scf accuracy    <       2.30938866 Ry

     iteration #  2     ecut=    20.00 Ry     beta= 0.70
     Davidson diagonalization with overlap
     ethr =  1.00E-02,  avg # of iterations =  2.0

     total cpu time spent up to now is        1.9 secs

     total energy              =    -272.56562193 Ry
     Harris-Foulkes estimate   =    -272.67475699 Ry
     estimated scf accuracy    <       0.17669705 Ry

     iteration #  3     ecut=    20.00 Ry     beta= 0.70
     Davidson diagonalization with overlap
     ethr =  9.30E-04,  avg # of iterations =  2.1

     total cpu time spent up to now is        2.2 secs

     total energy              =    -272.59248189 Ry
     Harris-Foulkes estimate   =    -272.59998585 Ry
     estimated scf accuracy    <       0.01115727 Ry

     iteration #  4     ecut=    20.00 Ry     beta= 0.70
     Davidson diagonalization with overlap
     ethr =  5.87E-05,  avg # of iterations =  2.1

     total cpu time spent up to now is        2.5 secs

     total energy              =    -272.59373212 Ry
     Harris-Foulkes estimate   =    -272.59377685 Ry
     estimated scf accuracy    <       0.00007485 Ry

     iteration #  5     ecut=    20.00 Ry     beta= 0.70
     Davidson diagonalization with overlap
     ethr =  3.94E-07,  avg # of iterations =  2.6

     total cpu time spent up to now is        3.4 secs

     total energy              =    -272.59375064 Ry
     Harris-Foulkes estimate   =    -272.59375073 Ry
     estimated scf accuracy    <       0.00000079 Ry

     iteration #  6     ecut=    20.00 Ry     beta= 0.70
     Davidson diagonalization with overlap
     ethr =  4.18E-09,  avg # of iterations =  1.7

     total cpu time spent up to now is        4.1 secs

     total energy              =    -272.59375068 Ry
     Harris-Foulkes estimate   =    -272.59375070 Ry
     estimated scf accuracy    <       0.00000005 Ry

     iteration #  7     ecut=    20.00 Ry     beta= 0.70
     Davidson diagonalization with overlap
     ethr =  2.44E-10,  avg # of iterations =  2.0

     total cpu time spent up to now is        4.5 secs

     End of self-consistent calculation

          k = 0.0000 0.0000 0.0000 (   113 PWs)   bands (ev):

    -3.0231  -3.0231  -3.0231  -2.9127  -2.9127   8.3181  45.3417  45.3417
    45.3417  49.2273  56.2747  59.0802  59.0802  59.0802

          k =-0.0909 0.0909-0.0909 (   122 PWs)   bands (ev):

    -5.6487  -5.6445  -5.6445  -3.9798  -3.9798   8.6316  42.5448  45.0529
    45.0529  49.2680  56.7217  58.3055  58.5576  58.5576

          k =-0.1818 0.1818-0.1818 (   122 PWs)   bands (ev):

    -5.7190  -5.5563  -5.5563  -3.9282  -3.9282   9.5936  37.2777  44.2377
    44.2377  49.5489  55.1866  57.9396  57.9396  59.3605

          k =-0.2727 0.2727-0.2727 (   126 PWs)   bands (ev):

    -7.3438  -5.7825  -5.7825  -4.7564  -4.7564  11.1870  31.8816  43.1371
    43.1371  49.5480  53.6775  57.4063  57.4063  61.3256

          k =-0.3636 0.3636-0.3636 (   117 PWs)   bands (ev):

    -4.4634  -4.4634  -3.7179  -3.0277  -3.0277  13.3460  27.2130  42.1301
    42.1301  49.4471  53.9381  57.4019  57.4019  64.2098

          k =-0.4545 0.4545-0.4545 (   120 PWs)   bands (ev):

    -6.5836  -6.5836  -3.8733  -2.9802  -2.9802  15.4699  23.6846  41.5175
    41.5175  49.0576  54.0054  56.6418  56.6418  65.1374

          k = 0.0000 0.1818 0.0000 (   125 PWs)   bands (ev):

    -6.6149  -6.1911  -6.1911  -4.6738  -4.6392   8.7342  43.4723  43.9467
    43.9467  49.0595  55.4955  58.8955  59.2773  59.2773

          k =-0.0909 0.2727-0.0909 (   123 PWs)   bands (ev):

    -6.5743  -5.9969  -5.1592  -4.2143  -3.9470   9.4827  39.0249  42.6910
    43.8062  49.5180  53.4124  59.0888  59.4786  59.6459

          k =-0.1818 0.3636-0.1818 (   127 PWs)   bands (ev):

    -7.6085  -6.5519  -6.0801  -5.2145  -4.2497  10.8566  33.7024  41.5542
    42.7867  49.7630  53.1115  58.1980  59.0968  59.1243

          k =-0.2727 0.4545-0.2727 (   125 PWs)   bands (ev):

    -7.0845  -6.4788  -6.1212  -4.2190  -3.5187  12.8201  28.8270  40.7906
    41.4014  49.0983  54.6133  57.6560  58.3802  60.0064

          k =-0.3636 0.5455-0.3636 (   121 PWs)   bands (ev):

    -8.1422  -5.0522  -4.2861  -3.4773  -2.8861  15.0632  24.9044  40.1798
    40.5731  48.5362  55.4945  57.5811  58.0827  62.0839

          k = 0.5455-0.3636 0.5455 (   118 PWs)   bands (ev):

    -6.9067  -4.8015  -3.9304  -2.6280  -2.3755  16.0348  23.5245  39.3816
    41.0066  48.6070  55.2331  57.8078  58.3791  64.4528

          k = 0.4545-0.2727 0.4545 (   121 PWs)   bands (ev):

    -6.3257  -6.2422  -4.1778  -4.0416  -2.7990  14.3464  26.0984  39.1871
    42.0673  49.1346  54.6367  57.0437  59.1378  63.2617

          k = 0.3636-0.1818 0.3636 (   125 PWs)   bands (ev):

    -6.8044  -6.7035  -5.6017  -4.4825  -3.6616  12.1088  30.3954  39.5729
    43.5656  50.1079  53.3099  56.7299  59.7593  61.1783

          k = 0.2727-0.0909 0.2727 (   126 PWs)   bands (ev):

    -7.7023  -6.2948  -6.2609  -4.4229  -4.0312  10.3292  35.4129  40.5228
    44.9541  50.5453  53.2860  56.8983  58.9124  59.7652

          k = 0.1818-0.0000 0.1818 (   123 PWs)   bands (ev):

    -6.4990  -6.2873  -4.8446  -4.3458  -3.9736   9.1629  40.1704  42.3305
    45.5277  49.7844  55.0553  57.4484  58.4071  59.9771

          k = 0.0000 0.3636 0.0000 (   129 PWs)   bands (ev):

    -8.0823  -6.9927  -6.4905  -6.4905  -4.6948  10.0064  39.5601  41.0360
    41.0360  48.5487  50.7073  60.8310  60.8310  62.7891

          k =-0.0909 0.4545-0.0909 (   128 PWs)   bands (ev):

    -8.1683  -7.2526  -5.8900  -5.5833  -4.4733  11.1714  35.3753  39.7267
    40.1511  48.6930  50.0500  60.9636  61.3181  62.4473

          k =-0.1818 0.5455-0.1818 (   120 PWs)   bands (ev):

    -6.6131  -5.8316  -4.7732  -2.8302  -2.2404  12.9505  30.7339  38.6721
    38.9497  48.2057  52.9823  59.9472  60.9390  62.0063

          k =-0.2727 0.6364-0.2727 (   117 PWs)   bands (ev):

    -6.1952  -4.7635  -4.2675  -2.2418  -1.9470  15.0943  26.7696  37.0439
    38.8047  47.8822  57.0715  58.7987  60.1373  61.9632

          k = 0.6364-0.2727 0.6364 (   123 PWs)   bands (ev):

    -8.2507  -6.6541  -4.8704  -3.5004  -3.2261  16.5449  24.5320  35.6221
    39.3607  47.7002  57.4484  59.0745  60.7445  62.5928

          k = 0.5455-0.1818 0.5455 (   124 PWs)   bands (ev):

    -8.1542  -6.6060  -4.8623  -4.6880  -2.9881  15.6653  25.8958  34.8884
    40.6572  48.2993  56.4693  58.5670  61.3190  63.2667

          k = 0.4545-0.0909 0.4545 (   123 PWs)   bands (ev):

    -7.2232  -6.6374  -5.3019  -4.0429  -2.2351  13.6182  29.4417  34.9399
    42.4462  49.4467  54.7771  58.6163  60.0352  60.7510

          k = 0.3636 0.0000 0.3636 (   127 PWs)   bands (ev):

    -8.4673  -6.3205  -6.3006  -4.8958  -3.8009  11.7066  33.2036  36.4240
    44.1630  51.0430  52.7382  57.1593  58.9581  59.7571

          k = 0.0000 0.5455 0.0000 (   125 PWs)   bands (ev):

    -7.1683  -6.0505  -5.2467  -5.2467  -4.4853  12.1126  34.7568  38.1934
    38.1934  47.8592  48.0489  63.4762  63.4762  66.6836

          k =-0.0909 0.6364-0.0909 (   124 PWs)   bands (ev):

    -8.6024  -6.2934  -5.9197  -3.6014  -2.7844  13.6517  31.5276  36.5019
    37.2024  47.1864  48.9014  63.6017  63.6027  66.6008

          k =-0.1818 0.7273-0.1818 (   120 PWs)   bands (ev):

    -7.8097  -6.1851  -5.1104  -2.2847  -1.7443  15.6320  28.2415  34.1738
    36.9582  46.9739  52.3960  62.1673  62.5516  66.3332

          k = 0.7273-0.1818 0.7273 (   117 PWs)   bands (ev):

    -7.0758  -4.3062  -4.0137  -2.4120  -2.0621  17.2909  26.1850  32.2555
    37.5065  47.1624  56.6758  60.9556  61.6095  66.1005

          k = 0.6364-0.0909 0.6364 (   120 PWs)   bands (ev):

    -7.5535  -5.5823  -3.8989  -3.6343  -2.5236  17.1186  26.7750  30.8754
    38.7428  47.5501  59.5544  60.2752  60.8642  64.4743

          k = 0.5455 0.0000 0.5455 (   121 PWs)   bands (ev):

    -7.5587  -5.7051  -4.3863  -4.0605  -2.2500  15.4603  28.7495  31.3777
    40.5505  48.3291  57.6056  60.2747  60.4259  61.4071

          k = 0.0000 0.7273 0.0000 (   121 PWs)   bands (ev):

    -9.0376  -5.4951  -3.5284  -3.0226  -3.0226  14.9506  29.7108  36.0429
    36.0429  46.3680  47.2729  66.0747  67.0019  67.0019

          k =-0.0909 0.8182-0.0909 (   118 PWs)   bands (ev):

    -8.5943  -5.4585  -3.4171  -1.9193  -1.9021  16.6760  27.3978  34.1952
    35.5617  46.4025  48.5351  64.6522  66.4319  69.2553

          k = 0.8182-0.0909 0.8182 (   116 PWs)   bands (ev):

    -7.7723  -4.0824  -3.3928  -1.8831  -1.7306  18.1663  26.2373  31.4614
    35.9197  46.8157  52.1238  63.3889  65.0158  67.9879

          k = 0.7273 0.0000 0.7273 (   116 PWs)   bands (ev):

    -6.4797  -3.9701  -3.2948  -2.9515  -2.1667  18.2367  27.2920  29.1574
    37.0562  47.2460  56.4819  62.2676  63.3553  64.7779

          k = 0.0000 0.9091 0.0000 (   116 PWs)   bands (ev):

    -9.2884  -4.6572  -2.2227  -1.8591  -1.8591  18.0125  25.4613  34.8486
    34.8486  45.9687  46.9786  65.1912  70.1275  70.1275

          k = 0.9091-0.0000 0.9091 (   116 PWs)   bands (ev):

    -9.2042  -4.6222  -2.2114  -1.8905  -1.8392  18.7225  24.9127  33.4335
    34.9736  46.3310  48.2442  64.5867  69.0461  69.2245

          k =-0.1818 0.3636 0.0000 (   124 PWs)   bands (ev):

    -6.5648  -5.6139  -5.4850  -4.9033  -3.9496  10.4417  36.5434  39.4286
    43.5601  50.2880  51.5635  58.2694  60.6735  60.8177

          k =-0.2727 0.4545-0.0909 (   126 PWs)   bands (ev):

    -8.2671  -7.6525  -5.1794  -4.7646  -2.9512  12.0210  32.1874  37.5752
    42.3080  49.9598  52.7604  57.4096  60.1014  61.8644

          k =-0.3636 0.5455-0.1818 (   121 PWs)   bands (ev):

    -7.7488  -5.3529  -4.5637  -3.6282  -2.3425  14.0976  27.8576  36.9964
    40.7539  49.1292  55.2398  58.1656  60.0172  61.6573

          k = 0.5455-0.3636 0.7273 (   120 PWs)   bands (ev):

    -7.1762  -5.6165  -4.3536  -3.3360  -2.5993  16.0666  24.6817  36.8205
    39.6766  48.7228  55.7241  59.9327  60.4961  62.0581

          k =-0.1818 0.5455 0.0000 (   124 PWs)   bands (ev):

    -8.2031  -6.1080  -5.5294  -4.8332  -2.3522  12.5306  32.9882  36.6367
    39.4993  49.1635  49.7542  59.9378  63.3527  65.0640

          k =-0.2727 0.6364-0.0909 (   120 PWs)   bands (ev):

    -7.2846  -6.3030  -4.1366  -2.9092  -2.1260  14.4394  29.5492  34.9123
    38.1068  48.9449  52.6982  58.8350  63.9512  64.2485

          k = 0.6364-0.2727 0.8182 (   117 PWs)   bands (ev):

    -6.8198  -4.6787  -3.9821  -2.2932  -2.0233  16.4256  26.4792  33.9269
    37.3517  48.8049  56.4255  58.1477  63.2499  64.1198

          k = 0.5455-0.1818 0.7273 (   119 PWs)   bands (ev):

    -7.2519  -4.5568  -4.2085  -3.5294  -2.5112  17.1348  25.5699  33.0161
    37.7400  49.0209  56.8026  60.2540  62.5260  62.9535

          k = 0.4545-0.0909 0.6364 (   118 PWs)   bands (ev):

    -6.5263  -4.5799  -3.7651  -3.4341  -2.2594  15.7445  27.6856  32.7366
    39.0949  49.7221  55.8863  58.7367  61.8957  63.4682

          k = 0.3636 0.0000 0.5455 (   123 PWs)   bands (ev):

    -7.6587  -7.4946  -4.8154  -3.7178  -2.1723  13.7541  30.5081  33.8143
    40.7817  50.3456  53.7062  57.3068  61.6557  62.4699

          k =-0.1818 0.7273 0.0000 (   122 PWs)   bands (ev):

    -8.0321  -6.4433  -4.1313  -4.0914  -2.4699  15.3070  29.3096  34.6114
    35.9561  47.8566  49.2802  62.0282  66.6120  67.2446

          k = 0.7273-0.1818 0.9091 (   121 PWs)   bands (ev):

    -7.8171  -6.6169  -4.7579  -2.7863  -2.1790  17.1316  27.3397  32.2828
    35.3135  48.2613  52.2047  60.5451  64.9267  67.7286

          k = 0.6364-0.0909 0.8182 (   119 PWs)   bands (ev):

    -7.2309  -5.2551  -4.2386  -3.1762  -2.1978  18.0812  26.9369  30.1898
    35.8823  48.7132  56.5573  59.3589  62.4936  65.5576

          k = 0.5455 0.0000 0.7273 (   117 PWs)   bands (ev):

    -6.1032  -4.0545  -3.9000  -2.9406  -2.6472  17.3516  28.2096  29.3603
    37.2621  49.4076  58.0081  59.4517  61.1122  63.8565

          k = 0.8182-0.0909 1.0000 (   117 PWs)   bands (ev):

    -9.0562  -4.4852  -3.0538  -2.0374  -1.8102  18.1308  25.9021  33.4694
    34.2823  47.7088  48.7459  63.5463  66.7756  69.5867

          k = 0.7273 0.0000 0.9091 (   118 PWs)   bands (ev):

    -8.0069  -5.0499  -3.7513  -3.0600  -1.2807  18.6733  26.1047  31.1464
    34.5868  48.3081  52.1078  62.0220  64.2420  67.7368

          k = 0.6364-0.2727 1.0000 (   122 PWs)   bands (ev):

    -7.2571  -6.7009  -4.5023  -3.9902  -2.6546  16.2434  28.5004  31.8595
    36.3598  50.8723  53.1914  57.6919  64.2551  65.5567

          k = 0.5455-0.1818 0.9091 (   116 PWs)   bands (ev):

    -5.6896  -4.4938  -3.7265  -2.9468  -1.9194  17.7602  27.2509  30.7805
    35.2127  51.3621  55.9677  57.9644  61.2470  66.6219

          k = 0.6364-0.0909 1.0000 (   114 PWs)   bands (ev):

    -4.9953  -4.9858  -3.0012  -2.6955  -1.0422  18.4126  27.1440  30.9407
    33.5307  51.5556  53.2333  59.2307  62.0435  69.4125

          k = 0.5455 0.0000 0.9091 (   112 PWs)   bands (ev):

    -4.9769  -3.6299  -2.8470  -2.4559  -0.7631  18.6172  28.2372  29.0978
    33.6946  52.3822  56.9736  57.7017  59.0036  68.5901

     the Fermi energy is    48.7986 ev

!    total energy              =    -272.59375068 Ry
     Harris-Foulkes estimate   =    -272.59375068 Ry
     estimated scf accuracy    <          2.4E-11 Ry

     The total energy is the sum of the following terms:

     one-electron contribution =       9.76235060 Ry
     hartree contribution      =      21.80233960 Ry
     xc contribution           =     -61.82452976 Ry
     ewald contribution        =    -242.33311997 Ry
     smearing contrib. (-TS)   =      -0.00079116 Ry

     convergence has been achieved in   7 iterations

     Forces acting on atoms (cartesian axes, Ry/au):

     atom    1 type  1   force =     0.00000000    0.00000000    0.00000000

     Total force =     0.000000     Total SCF correction =     0.000000


     Computing stress (Cartesian axis) and pressure

          total   stress  (Ry/bohr**3)                   (kbar)     P=********
  -0.20602735   0.00000000   0.00000000     -30307.66      0.00      0.00
   0.00000000  -0.20602735   0.00000000          0.00 -30307.66      0.00
   0.00000000  -0.00000000  -0.20602735          0.00     -0.00 -30307.66


     Writing output data file Fr.save/

     init_run     :      0.13s CPU      0.14s WALL (       1 calls)
     electrons    :      3.19s CPU      3.44s WALL (       1 calls)
     forces       :      0.02s CPU      0.02s WALL (       1 calls)
     stress       :      0.04s CPU      0.05s WALL (       1 calls)

     Called by init_run:
     wfcinit      :      0.05s CPU      0.06s WALL (       1 calls)
     potinit      :      0.00s CPU      0.00s WALL (       1 calls)
     hinit0       :      0.08s CPU      0.08s WALL (       1 calls)

     Called by electrons:
     c_bands      :      2.80s CPU      3.02s WALL (       7 calls)
     sum_band     :      0.36s CPU      0.40s WALL (       7 calls)
     v_of_rho     :      0.00s CPU      0.00s WALL (       8 calls)
     newd         :      0.01s CPU      0.01s WALL (       8 calls)
     mix_rho      :      0.01s CPU      0.01s WALL (       7 calls)

     Called by c_bands:
     init_us_2    :      0.03s CPU      0.03s WALL (     952 calls)
     cegterg      :      2.72s CPU      2.93s WALL (     392 calls)

     Called by sum_band:
     sum_band:bec :      0.00s CPU      0.01s WALL (     392 calls)
     addusdens    :      0.01s CPU      0.01s WALL (       7 calls)

     Called by *egterg:
     h_psi        :      1.59s CPU      1.72s WALL (    1405 calls)
     s_psi        :      0.03s CPU      0.03s WALL (    1405 calls)
     g_psi        :      0.00s CPU      0.00s WALL (     957 calls)
     cdiaghg      :      0.77s CPU      0.83s WALL (    1349 calls)

     Called by h_psi:
     h_psi:pot    :      1.58s CPU      1.71s WALL (    1405 calls)
     h_psi:calbec :      0.12s CPU      0.13s WALL (    1405 calls)
     vloc_psi     :      1.42s CPU      1.54s WALL (    1405 calls)
     add_vuspsi   :      0.03s CPU      0.03s WALL (    1405 calls)

     General routines
     calbec       :      0.17s CPU      0.18s WALL (    2077 calls)
     fft          :      0.00s CPU      0.00s WALL (      41 calls)
     ffts         :      0.00s CPU      0.00s WALL (       7 calls)
     fftw         :      1.63s CPU      1.76s WALL (   34948 calls)

     Parallel routines
     fft_scatt_xy :      0.09s CPU      0.10s WALL (   34996 calls)
     fft_scatt_yz :      1.12s CPU      1.18s WALL (   34996 calls)

     PWSCF        :     4.35s CPU         4.69s WALL


   This run was terminated on:  22:23:21   7Apr2024            

=------------------------------------------------------------------------------=
   JOB DONE.
=------------------------------------------------------------------------------=
