
     Program PWSCF v.6.3MaX starts on  7Apr2024 at 22:48: 4 

     This program is part of the open-source Quantum ESPRESSO suite
     for quantum simulation of materials; please cite
         "P. Giannozzi et al., J. Phys.:Condens. Matter 21 395502 (2009);
         "P. Giannozzi et al., J. Phys.:Condens. Matter 29 465901 (2017);
          URL http://www.quantum-espresso.org", 
     in publications or presentations arising from this work. More details at
     http://www.quantum-espresso.org/quote

     Parallel version (MPI), running on     5 processors

     MPI processes distributed on     1 nodes
     R & G space division:  proc/nbgrp/npool/nimage =       5
     Waiting for input...
     Reading input from standard input

     Current dimensions of program PWSCF are:
     Max number of different atomic species (ntypx) = 10
     Max number of k-points (npk) =  40000
     Max angular momentum in pseudopotentials (lmaxx) =  3

     Subspace diagonalization in iterative solution of the eigenvalue problem:
     a serial algorithm will be used


     Parallelization info
     --------------------
     sticks:   dense  smooth     PW     G-vecs:    dense   smooth      PW
     Min          87      87     30                 1245     1245     227
     Max          88      88     31                 1247     1247     228
     Sum         439     439    151                 6231     6231    1139



     bravais-lattice index     =            2
     lattice parameter (alat)  =       6.8300  a.u.
     unit-cell volume          =      79.6530 (a.u.)^3
     number of atoms/cell      =            1
     number of atomic types    =            1
     number of electrons       =        19.00
     number of Kohn-Sham states=           14
     kinetic-energy cutoff     =      70.0000  Ry
     charge density cutoff     =     280.0000  Ry
     convergence threshold     =      1.0E-08
     mixing beta               =       0.7000
     number of iterations used =            8  plain     mixing
     Exchange-correlation      = PBE ( 1  4  3  4 0 0)

     celldm(1)=   6.830000  celldm(2)=   0.000000  celldm(3)=   0.000000
     celldm(4)=   0.000000  celldm(5)=   0.000000  celldm(6)=   0.000000

     crystal axes: (cart. coord. in units of alat)
               a(1) = (  -0.500000   0.000000   0.500000 )  
               a(2) = (   0.000000   0.500000   0.500000 )  
               a(3) = (  -0.500000   0.500000   0.000000 )  

     reciprocal axes: (cart. coord. in units 2 pi/alat)
               b(1) = ( -1.000000 -1.000000  1.000000 )  
               b(2) = (  1.000000  1.000000  1.000000 )  
               b(3) = ( -1.000000  1.000000 -1.000000 )  


     PseudoPot. # 1 for Fr read from file:
     /home/lorenzo/pseudos/Fr/Fr.pbe-spdn-rrkjus_psl.1.0.0.UPF
     MD5 check sum: 07cabfa18982bd6b5b9d8ae5689d9732
     Pseudo is Ultrasoft + core correction, Zval = 19.0
     Generated using "atomic" code by A. Dal Corso v.6.2.2
     Using radial grid of 1287 points,  6 beta functions with: 
                l(1) =   0
                l(2) =   0
                l(3) =   1
                l(4) =   1
                l(5) =   2
                l(6) =   2
     Q(r) pseudized with 0 coefficients 


     atomic species   valence    mass     pseudopotential
        Fr            19.00   223.00000     Fr( 1.00)

     48 Sym. Ops., with inversion, found



   Cartesian axes

     site n.     atom                  positions (alat units)
         1           Fr  tau(   1) = (   0.0000000   0.0000000   0.0000000  )

     number of k points=    16  gaussian smearing, width (Ry)=  0.0100
                       cart. coord. in units 2pi/alat
        k(    1) = (   0.0000000   0.0000000   0.0000000), wk =   0.0092593
        k(    2) = (  -0.1666667   0.1666667  -0.1666667), wk =   0.0740741
        k(    3) = (  -0.3333333   0.3333333  -0.3333333), wk =   0.0740741
        k(    4) = (   0.5000000  -0.5000000   0.5000000), wk =   0.0370370
        k(    5) = (   0.0000000   0.3333333   0.0000000), wk =   0.0555556
        k(    6) = (  -0.1666667   0.5000000  -0.1666667), wk =   0.2222222
        k(    7) = (   0.6666667  -0.3333333   0.6666667), wk =   0.2222222
        k(    8) = (   0.5000000  -0.1666667   0.5000000), wk =   0.2222222
        k(    9) = (   0.3333333   0.0000000   0.3333333), wk =   0.1111111
        k(   10) = (   0.0000000   0.6666667   0.0000000), wk =   0.0555556
        k(   11) = (   0.8333333  -0.1666667   0.8333333), wk =   0.2222222
        k(   12) = (   0.6666667  -0.0000000   0.6666667), wk =   0.1111111
        k(   13) = (   0.0000000  -1.0000000   0.0000000), wk =   0.0277778
        k(   14) = (   0.6666667  -0.3333333   1.0000000), wk =   0.2222222
        k(   15) = (   0.5000000  -0.1666667   0.8333333), wk =   0.2222222
        k(   16) = (  -0.3333333  -1.0000000   0.0000000), wk =   0.1111111

     Dense  grid:     6231 G-vectors     FFT dimensions: (  25,  25,  25)

     Estimated max dynamical RAM per process >       6.62 MB

     Estimated total dynamical RAM >      33.12 MB

     Check: negative/imaginary core charge=   -0.000002    0.000000

     Initial potential from superposition of free atoms

     starting charge   18.97009, renormalised to   19.00000
     Starting wfcs are   10 randomized atomic wfcs +    4 random wfcs

     total cpu time spent up to now is        1.4 secs

     Self-consistent Calculation

     iteration #  1     ecut=    70.00 Ry     beta= 0.70
     Davidson diagonalization with overlap
     ethr =  1.00E-02,  avg # of iterations =  4.6

     Threshold (ethr) on eigenvalues was too large:
     Diagonalizing with lowered threshold

     Davidson diagonalization with overlap
     ethr =  1.12E-04,  avg # of iterations =  2.1

     total cpu time spent up to now is        2.0 secs

     total energy              =    -282.86258082 Ry
     Harris-Foulkes estimate   =    -282.87583372 Ry
     estimated scf accuracy    <       0.02114658 Ry

     iteration #  2     ecut=    70.00 Ry     beta= 0.70
     Davidson diagonalization with overlap
     ethr =  1.11E-04,  avg # of iterations =  2.0

     total cpu time spent up to now is        2.2 secs

     total energy              =    -282.86671209 Ry
     Harris-Foulkes estimate   =    -282.86750338 Ry
     estimated scf accuracy    <       0.00108023 Ry

     iteration #  3     ecut=    70.00 Ry     beta= 0.70
     Davidson diagonalization with overlap
     ethr =  5.69E-06,  avg # of iterations =  2.4

     total cpu time spent up to now is        2.5 secs

     total energy              =    -282.86693064 Ry
     Harris-Foulkes estimate   =    -282.86694269 Ry
     estimated scf accuracy    <       0.00002983 Ry

     iteration #  4     ecut=    70.00 Ry     beta= 0.70
     Davidson diagonalization with overlap
     ethr =  1.57E-07,  avg # of iterations =  2.6

     total cpu time spent up to now is        2.7 secs

     total energy              =    -282.86693341 Ry
     Harris-Foulkes estimate   =    -282.86693365 Ry
     estimated scf accuracy    <       0.00000053 Ry

     iteration #  5     ecut=    70.00 Ry     beta= 0.70
     Davidson diagonalization with overlap
     ethr =  2.80E-09,  avg # of iterations =  2.1

     total cpu time spent up to now is        3.0 secs

     total energy              =    -282.86693356 Ry
     Harris-Foulkes estimate   =    -282.86693357 Ry
     estimated scf accuracy    <       0.00000003 Ry

     iteration #  6     ecut=    70.00 Ry     beta= 0.70
     Davidson diagonalization with overlap
     ethr =  1.41E-10,  avg # of iterations =  2.0

     total cpu time spent up to now is        3.2 secs

     End of self-consistent calculation

          k = 0.0000 0.0000 0.0000 (   749 PWs)   bands (ev):

    -9.2721  -9.2721  -9.2721  -8.9294  -8.9294   9.4765  47.2914  47.2914
    47.2914  48.3179  53.8717  53.8717  53.8717  57.8092

          k =-0.1667 0.1667-0.1667 (   791 PWs)   bands (ev):

    -9.2662  -9.2057  -9.2057  -8.9187  -8.9187  10.5917  38.9344  45.8789
    45.8789  48.2208  55.0629  55.8202  55.8202  56.3658

          k =-0.3333 0.3333-0.3333 (   787 PWs)   bands (ev):

    -9.2593  -9.1943  -9.1943  -8.7580  -8.7580  13.8964  29.1935  43.8872
    43.8872  48.1867  52.1815  52.7725  52.7725  61.4823

          k = 0.5000-0.5000 0.5000 (   778 PWs)   bands (ev):

    -9.2593  -9.2213  -9.2213  -8.6421  -8.6421  17.5652  23.2819  43.0383
    43.0383  48.0564  51.2453  51.7764  51.7764  65.4857

          k = 0.0000 0.3333 0.0000 (   793 PWs)   bands (ev):

    -9.3574  -9.1084  -9.1084  -9.0202  -8.8624  10.9628  42.3179  42.3179
    42.6160  45.9519  49.4141  58.6476  59.3019  59.3019

          k =-0.1667 0.5000-0.1667 (   795 PWs)   bands (ev):

    -9.3610  -9.1225  -9.0360  -8.9203  -8.7273  13.5493  32.8856  40.1977
    40.5063  45.7732  50.7005  58.1223  58.1873  59.0484

          k = 0.6667-0.3333 0.6667 (   792 PWs)   bands (ev):

    -9.3021  -9.1362  -9.0750  -8.7900  -8.6348  17.7048  25.2433  37.3353
    40.2520  45.4563  55.5217  55.5416  58.4629  58.9970

          k = 0.5000-0.1667 0.5000 (   792 PWs)   bands (ev):

    -9.2344  -9.1674  -9.0806  -8.7885  -8.7268  16.2921  27.4206  35.9073
    42.6812  46.8973  53.7833  54.2630  60.2563  60.6134

          k = 0.3333 0.0000 0.3333 (   791 PWs)   bands (ev):

    -9.2511  -9.1682  -9.0930  -8.9827  -8.7890  12.4448  35.5172  37.3047
    46.5968  50.1618  51.3658  53.9580  54.9482  57.3680

          k = 0.0000 0.6667 0.0000 (   797 PWs)   bands (ev):

    -9.5226  -9.2181  -8.7613  -8.7613  -8.7215  15.3960  32.9794  37.3798
    37.3798  43.8029  43.9162  64.6211  65.1628  65.1628

          k = 0.8333-0.1667 0.8333 (   779 PWs)   bands (ev):

    -9.4777  -9.2229  -8.7758  -8.7177  -8.6151  19.0600  27.9180  32.3539
    36.8654  43.5148  48.8389  61.4862  63.3303  68.7559

          k = 0.6667-0.0000 0.6667 (   792 PWs)   bands (ev):

    -9.3458  -8.9810  -8.9107  -8.8440  -8.7461  19.8275  28.3227  28.3419
    38.8836  44.5214  57.4430  59.0065  60.0231  62.6480

          k = 0.0000-1.0000 0.0000 (   790 PWs)   bands (ev):

    -9.6042  -9.3266  -8.6494  -8.5803  -8.5803  21.1065  24.9385  35.5717
    35.5717  42.6949  43.1027  64.3801  70.3562  71.3296

          k = 0.6667-0.3333 1.0000 (   781 PWs)   bands (ev):

    -9.3094  -9.1733  -8.9736  -8.7700  -8.7080  16.7172  30.4934  32.8744
    37.5625  49.5666  49.9025  54.8416  62.6435  65.1313

          k = 0.5000-0.1667 0.8333 (   780 PWs)   bands (ev):

    -9.2262  -9.1517  -8.9408  -8.8554  -8.6495  19.9110  26.3414  31.8371
    35.4779  49.4122  52.6717  58.4333  58.4740  64.2260

          k =-0.3333-1.0000 0.0000 (   772 PWs)   bands (ev):

    -9.3604  -9.2089  -8.8508  -8.7567  -8.5791  21.3434  26.6628  31.2546
    32.7674  48.9366  49.2026  58.3148  61.2596  68.7447

     the Fermi energy is    46.7916 ev

!    total energy              =    -282.86693357 Ry
     Harris-Foulkes estimate   =    -282.86693357 Ry
     estimated scf accuracy    <          2.0E-09 Ry

     The total energy is the sum of the following terms:

     one-electron contribution =      -4.12091171 Ry
     hartree contribution      =      28.17789266 Ry
     xc contribution           =     -64.59041176 Ry
     ewald contribution        =    -242.33311988 Ry
     smearing contrib. (-TS)   =      -0.00038288 Ry

     convergence has been achieved in   6 iterations

     Forces acting on atoms (cartesian axes, Ry/au):

     atom    1 type  1   force =     0.00000000    0.00000000    0.00000000

     Total force =     0.000000     Total SCF correction =     0.000000


     Computing stress (Cartesian axis) and pressure

          total   stress  (Ry/bohr**3)                   (kbar)     P= 7156.83
   0.04865118  -0.00000000  -0.00000000       7156.83     -0.00     -0.00
   0.00000000   0.04865118   0.00000000          0.00   7156.83      0.00
  -0.00000000   0.00000000   0.04865118         -0.00      0.00   7156.83


     Writing output data file Fr.save/

     init_run     :      0.28s CPU      0.28s WALL (       1 calls)
     electrons    :      1.73s CPU      1.80s WALL (       1 calls)
     forces       :      0.06s CPU      0.06s WALL (       1 calls)
     stress       :      0.13s CPU      0.13s WALL (       1 calls)

     Called by init_run:
     wfcinit      :      0.07s CPU      0.08s WALL (       1 calls)
     potinit      :      0.01s CPU      0.01s WALL (       1 calls)
     hinit0       :      0.18s CPU      0.18s WALL (       1 calls)

     Called by electrons:
     c_bands      :      1.40s CPU      1.45s WALL (       7 calls)
     sum_band     :      0.26s CPU      0.27s WALL (       7 calls)
     v_of_rho     :      0.03s CPU      0.03s WALL (       7 calls)
     newd         :      0.05s CPU      0.06s WALL (       7 calls)
     mix_rho      :      0.00s CPU      0.00s WALL (       7 calls)

     Called by c_bands:
     init_us_2    :      0.03s CPU      0.03s WALL (     272 calls)
     cegterg      :      1.35s CPU      1.41s WALL (     112 calls)

     Called by sum_band:
     sum_band:bec :      0.00s CPU      0.00s WALL (     112 calls)
     addusdens    :      0.04s CPU      0.04s WALL (       7 calls)

     Called by *egterg:
     h_psi        :      0.97s CPU      1.01s WALL (     411 calls)
     s_psi        :      0.03s CPU      0.03s WALL (     411 calls)
     g_psi        :      0.00s CPU      0.00s WALL (     283 calls)
     cdiaghg      :      0.20s CPU      0.21s WALL (     379 calls)

     Called by h_psi:
     h_psi:pot    :      0.96s CPU      1.01s WALL (     411 calls)
     h_psi:calbec :      0.05s CPU      0.05s WALL (     411 calls)
     vloc_psi     :      0.88s CPU      0.92s WALL (     411 calls)
     add_vuspsi   :      0.03s CPU      0.03s WALL (     411 calls)

     General routines
     calbec       :      0.09s CPU      0.10s WALL (     603 calls)
     fft          :      0.03s CPU      0.03s WALL (     104 calls)
     ffts         :      0.00s CPU      0.00s WALL (       7 calls)
     fftw         :      0.99s CPU      1.03s WALL (    9982 calls)

     Parallel routines
     fft_scatt_xy :      0.07s CPU      0.07s WALL (   10093 calls)
     fft_scatt_yz :      0.36s CPU      0.38s WALL (   10093 calls)

     PWSCF        :     3.37s CPU         3.51s WALL


   This run was terminated on:  22:48: 8   7Apr2024            

=------------------------------------------------------------------------------=
   JOB DONE.
=------------------------------------------------------------------------------=
