
     Program PWSCF v.6.3MaX starts on  7Apr2024 at 22:23:53 

     This program is part of the open-source Quantum ESPRESSO suite
     for quantum simulation of materials; please cite
         "P. Giannozzi et al., J. Phys.:Condens. Matter 21 395502 (2009);
         "P. Giannozzi et al., J. Phys.:Condens. Matter 29 465901 (2017);
          URL http://www.quantum-espresso.org", 
     in publications or presentations arising from this work. More details at
     http://www.quantum-espresso.org/quote

     Parallel version (MPI), running on     5 processors

     MPI processes distributed on     1 nodes
     R & G space division:  proc/nbgrp/npool/nimage =       5
     Waiting for input...
     Reading input from standard input

     Current dimensions of program PWSCF are:
     Max number of different atomic species (ntypx) = 10
     Max number of k-points (npk) =  40000
     Max angular momentum in pseudopotentials (lmaxx) =  3
               file Fr.pbe-spdn-kjpaw_psl.1.0.0.UPF: wavefunction(s)  6P renormalized

     Subspace diagonalization in iterative solution of the eigenvalue problem:
     a serial algorithm will be used


     Parallelization info
     --------------------
     sticks:   dense  smooth     PW     G-vecs:    dense   smooth      PW
     Min          24      24     11                  187      187      51
     Max          25      25     11                  191      191      52
     Sum         121     121     55                  941      941     259



     bravais-lattice index     =            2
     lattice parameter (alat)  =       6.8300  a.u.
     unit-cell volume          =      79.6530 (a.u.)^3
     number of atoms/cell      =            1
     number of atomic types    =            1
     number of electrons       =        19.00
     number of Kohn-Sham states=           14
     kinetic-energy cutoff     =      20.0000  Ry
     charge density cutoff     =      80.0000  Ry
     convergence threshold     =      1.0E-08
     mixing beta               =       0.7000
     number of iterations used =            8  plain     mixing
     Exchange-correlation      = SLA PW PBX PBC ( 1  4  3  4 0 0)

     celldm(1)=   6.830000  celldm(2)=   0.000000  celldm(3)=   0.000000
     celldm(4)=   0.000000  celldm(5)=   0.000000  celldm(6)=   0.000000

     crystal axes: (cart. coord. in units of alat)
               a(1) = (  -0.500000   0.000000   0.500000 )  
               a(2) = (   0.000000   0.500000   0.500000 )  
               a(3) = (  -0.500000   0.500000   0.000000 )  

     reciprocal axes: (cart. coord. in units 2 pi/alat)
               b(1) = ( -1.000000 -1.000000  1.000000 )  
               b(2) = (  1.000000  1.000000  1.000000 )  
               b(3) = ( -1.000000  1.000000 -1.000000 )  


     PseudoPot. # 1 for Fr read from file:
     /home/lorenzo/pseudos/Fr/Fr.pbe-spdn-kjpaw_psl.1.0.0.UPF
     MD5 check sum: 362a188b966a64328b94f1ef5f32e8c4
     Pseudo is Projector augmented-wave + core cor, Zval = 19.0
     Generated using "atomic" code by A. Dal Corso v.6.2.2
     Shape of augmentation charge: PSQ
     Using radial grid of 1287 points,  6 beta functions with: 
                l(1) =   0
                l(2) =   0
                l(3) =   1
                l(4) =   1
                l(5) =   2
                l(6) =   2
     Q(r) pseudized with 0 coefficients 


     atomic species   valence    mass     pseudopotential
        Fr            19.00   223.00000     Fr( 1.00)

     48 Sym. Ops., with inversion, found



   Cartesian axes

     site n.     atom                  positions (alat units)
         1           Fr  tau(   1) = (   0.0000000   0.0000000   0.0000000  )

     number of k points=    10  gaussian smearing, width (Ry)=  0.0100
                       cart. coord. in units 2pi/alat
        k(    1) = (   0.0000000   0.0000000   0.0000000), wk =   0.0160000
        k(    2) = (  -0.2000000   0.2000000  -0.2000000), wk =   0.1280000
        k(    3) = (  -0.4000000   0.4000000  -0.4000000), wk =   0.1280000
        k(    4) = (   0.0000000   0.4000000   0.0000000), wk =   0.0960000
        k(    5) = (  -0.2000000   0.6000000  -0.2000000), wk =   0.3840000
        k(    6) = (   0.6000000  -0.2000000   0.6000000), wk =   0.3840000
        k(    7) = (   0.4000000   0.0000000   0.4000000), wk =   0.1920000
        k(    8) = (   0.0000000   0.8000000   0.0000000), wk =   0.0960000
        k(    9) = (   0.8000000   0.0000000   0.8000000), wk =   0.1920000
        k(   10) = (   0.6000000  -0.2000000   1.0000000), wk =   0.3840000

     Dense  grid:      941 G-vectors     FFT dimensions: (  15,  15,  15)

     Estimated max dynamical RAM per process >       1.55 MB

     Estimated total dynamical RAM >       7.73 MB

     Check: negative/imaginary core charge=   -0.000222    0.000000

     Initial potential from superposition of free atoms

     starting charge   18.97009, renormalised to   19.00000
     Starting wfcs are   10 randomized atomic wfcs +    4 random wfcs
     Checking if some PAW data can be deallocated... 

     total cpu time spent up to now is        1.4 secs

     Self-consistent Calculation

     iteration #  1     ecut=    20.00 Ry     beta= 0.70
     Davidson diagonalization with overlap
     ethr =  1.00E-02,  avg # of iterations =  4.4

     total cpu time spent up to now is        1.6 secs

     total energy              =   -1059.54797867 Ry
     Harris-Foulkes estimate   =   -1061.40236092 Ry
     estimated scf accuracy    <       2.28082734 Ry

     iteration #  2     ecut=    20.00 Ry     beta= 0.70
     Davidson diagonalization with overlap
     ethr =  1.00E-02,  avg # of iterations =  2.0

     total cpu time spent up to now is        1.8 secs

     total energy              =   -1060.00584218 Ry
     Harris-Foulkes estimate   =   -1060.05542963 Ry
     estimated scf accuracy    <       0.14902456 Ry

     iteration #  3     ecut=    20.00 Ry     beta= 0.70
     Davidson diagonalization with overlap
     ethr =  7.84E-04,  avg # of iterations =  2.0

     total cpu time spent up to now is        1.9 secs

     total energy              =   -1060.01406581 Ry
     Harris-Foulkes estimate   =   -1060.01712471 Ry
     estimated scf accuracy    <       0.00828062 Ry

     iteration #  4     ecut=    20.00 Ry     beta= 0.70
     Davidson diagonalization with overlap
     ethr =  4.36E-05,  avg # of iterations =  1.9

     total cpu time spent up to now is        2.1 secs

     total energy              =   -1060.01461228 Ry
     Harris-Foulkes estimate   =   -1060.01461784 Ry
     estimated scf accuracy    <       0.00006329 Ry

     iteration #  5     ecut=    20.00 Ry     beta= 0.70
     Davidson diagonalization with overlap
     ethr =  3.33E-07,  avg # of iterations =  2.5

     total cpu time spent up to now is        2.2 secs

     total energy              =   -1060.01461942 Ry
     Harris-Foulkes estimate   =   -1060.01462007 Ry
     estimated scf accuracy    <       0.00000498 Ry

     iteration #  6     ecut=    20.00 Ry     beta= 0.70
     Davidson diagonalization with overlap
     ethr =  2.62E-08,  avg # of iterations =  2.0

     total cpu time spent up to now is        2.4 secs

     total energy              =   -1060.01461995 Ry
     Harris-Foulkes estimate   =   -1060.01461997 Ry
     estimated scf accuracy    <       0.00000007 Ry

     iteration #  7     ecut=    20.00 Ry     beta= 0.70
     Davidson diagonalization with overlap
     ethr =  3.51E-10,  avg # of iterations =  2.2

     total cpu time spent up to now is        2.6 secs

     End of self-consistent calculation

          k = 0.0000 0.0000 0.0000 (   113 PWs)   bands (ev):

    -3.3577  -3.3577  -3.3577  -3.2692  -3.2692   8.3911  45.5866  45.5866
    45.5866  49.5142  56.1091  59.3742  59.3742  59.3742

          k =-0.2000 0.2000-0.2000 (   123 PWs)   bands (ev):

    -7.2809  -5.8881  -5.8881  -4.2565  -4.2565   9.9268  36.3402  44.2803
    44.2803  49.7615  55.0806  58.1282  58.1282  59.5679

          k =-0.4000 0.4000-0.4000 (   123 PWs)   bands (ev):

    -6.8757  -6.8757  -4.7130  -4.7130  -4.3817  14.2603  25.7725  42.0878
    42.0878  49.4925  53.9755  57.0049  57.0049  64.9187

          k = 0.0000 0.4000 0.0000 (   129 PWs)   bands (ev):

    -8.5528  -7.4124  -6.8133  -6.8133  -5.0599  10.4255  38.7679  40.6926
    40.6926  48.6961  50.1277  61.5872  61.5872  63.8031

          k =-0.2000 0.6000-0.2000 (   118 PWs)   bands (ev):

    -6.9647  -6.3039  -4.7182  -2.6013  -1.6456  13.8942  29.5544  37.5771
    38.7093  48.0324  53.9017  60.2871  61.4690  63.0698

          k = 0.6000-0.2000 0.6000 (   125 PWs)   bands (ev):

    -8.7038  -7.0074  -5.3605  -5.0385  -4.2743  16.4715  25.3600  34.4843
    39.9569  48.0207  57.6125  59.4838  61.5326  64.8667

          k = 0.4000 0.0000 0.4000 (   125 PWs)   bands (ev):

    -8.5685  -6.7013  -6.2723  -5.2128  -2.8492  12.4481  32.2071  35.5637
    43.7942  50.6303  53.8512  57.9517  59.4039  60.1523

          k = 0.0000 0.8000 0.0000 (   117 PWs)   bands (ev):

    -9.5475  -5.9444  -2.5051  -2.1440  -2.1440  16.2162  28.0097  35.7222
    35.7222  46.1074  47.3610  66.0326  68.7179  68.7179

          k = 0.8000 0.0000 0.8000 (   118 PWs)   bands (ev):

    -8.1239  -4.4175  -3.6932  -3.6384  -2.7634  18.5021  26.3469  30.8579
    36.2868  46.9949  53.1022  63.6138  66.0138  66.4496

          k = 0.6000-0.2000 1.0000 (   115 PWs)   bands (ev):

    -5.9247  -5.2198  -3.7447  -3.1568  -1.4014  17.3366  28.1321  31.1902
    35.3028  51.8603  54.5030  57.9197  63.0059  67.4193

     the Fermi energy is    48.1084 ev

!    total energy              =   -1060.01461997 Ry
     Harris-Foulkes estimate   =   -1060.01461997 Ry
     estimated scf accuracy    <          4.2E-09 Ry

     total all-electron energy =    -48505.624931 Ry

     The total energy is the sum of the following terms:

     one-electron contribution =      14.06595439 Ry
     hartree contribution      =      22.03854791 Ry
     xc contribution           =     -62.47773009 Ry
     ewald contribution        =    -242.33311997 Ry
     one-center paw contrib.   =    -791.30676424 Ry
     smearing contrib. (-TS)   =      -0.00150798 Ry

     convergence has been achieved in   7 iterations

     Forces acting on atoms (cartesian axes, Ry/au):

     atom    1 type  1   force =     0.00000000    0.00000000    0.00000000

     Total force =     0.000000     Total SCF correction =     0.000000


     Computing stress (Cartesian axis) and pressure

          total   stress  (Ry/bohr**3)                   (kbar)     P=********
  -0.20672174  -0.00000000   0.00000000     -30409.81     -0.00      0.00
  -0.00000000  -0.20672174  -0.00000000         -0.00 -30409.81     -0.00
   0.00000000  -0.00000000  -0.20672174          0.00     -0.00 -30409.81


     Writing output data file Fr.save/

     init_run     :      0.21s CPU      0.23s WALL (       1 calls)
     electrons    :      1.00s CPU      1.14s WALL (       1 calls)
     forces       :      0.01s CPU      0.01s WALL (       1 calls)
     stress       :      0.02s CPU      0.02s WALL (       1 calls)

     Called by init_run:
     wfcinit      :      0.01s CPU      0.01s WALL (       1 calls)
     potinit      :      0.11s CPU      0.12s WALL (       1 calls)
     hinit0       :      0.08s CPU      0.08s WALL (       1 calls)

     Called by electrons:
     c_bands      :      0.26s CPU      0.29s WALL (       7 calls)
     sum_band     :      0.04s CPU      0.05s WALL (       7 calls)
     v_of_rho     :      0.01s CPU      0.01s WALL (       8 calls)
     newd         :      0.01s CPU      0.01s WALL (       8 calls)
     PAW_pot      :      0.78s CPU      0.88s WALL (       8 calls)
     mix_rho      :      0.00s CPU      0.00s WALL (       7 calls)

     Called by c_bands:
     init_us_2    :      0.00s CPU      0.00s WALL (     170 calls)
     cegterg      :      0.26s CPU      0.28s WALL (      70 calls)

     Called by sum_band:
     sum_band:bec :      0.00s CPU      0.00s WALL (      70 calls)
     addusdens    :      0.01s CPU      0.01s WALL (       7 calls)

     Called by *egterg:
     h_psi        :      0.13s CPU      0.15s WALL (     250 calls)
     s_psi        :      0.00s CPU      0.00s WALL (     250 calls)
     g_psi        :      0.00s CPU      0.00s WALL (     170 calls)
     cdiaghg      :      0.09s CPU      0.10s WALL (     240 calls)

     Called by h_psi:
     h_psi:pot    :      0.13s CPU      0.15s WALL (     250 calls)
     h_psi:calbec :      0.01s CPU      0.01s WALL (     250 calls)
     vloc_psi     :      0.12s CPU      0.13s WALL (     250 calls)
     add_vuspsi   :      0.00s CPU      0.00s WALL (     250 calls)

     General routines
     calbec       :      0.01s CPU      0.01s WALL (     370 calls)
     fft          :      0.00s CPU      0.00s WALL (     114 calls)
     ffts         :      0.00s CPU      0.00s WALL (       7 calls)
     fftw         :      0.13s CPU      0.15s WALL (    6138 calls)

     Parallel routines
     fft_scatt_xy :      0.01s CPU      0.02s WALL (    6259 calls)
     fft_scatt_yz :      0.05s CPU      0.06s WALL (    6259 calls)

     PWSCF        :     2.45s CPU         2.66s WALL


   This run was terminated on:  22:23:55   7Apr2024            

=------------------------------------------------------------------------------=
   JOB DONE.
=------------------------------------------------------------------------------=
