
     Program PWSCF v.6.3MaX starts on  7Apr2024 at 22:31: 1 

     This program is part of the open-source Quantum ESPRESSO suite
     for quantum simulation of materials; please cite
         "P. Giannozzi et al., J. Phys.:Condens. Matter 21 395502 (2009);
         "P. Giannozzi et al., J. Phys.:Condens. Matter 29 465901 (2017);
          URL http://www.quantum-espresso.org", 
     in publications or presentations arising from this work. More details at
     http://www.quantum-espresso.org/quote

     Parallel version (MPI), running on     5 processors

     MPI processes distributed on     1 nodes
     R & G space division:  proc/nbgrp/npool/nimage =       5
     Waiting for input...
     Reading input from standard input

     Current dimensions of program PWSCF are:
     Max number of different atomic species (ntypx) = 10
     Max number of k-points (npk) =  40000
     Max angular momentum in pseudopotentials (lmaxx) =  3

     Subspace diagonalization in iterative solution of the eigenvalue problem:
     a serial algorithm will be used


     Parallelization info
     --------------------
     sticks:   dense  smooth     PW     G-vecs:    dense   smooth      PW
     Min          43      43     17                  445      445     106
     Max          45      45     17                  446      446     107
     Sum         223     223     85                 2229     2229     531



     bravais-lattice index     =            2
     lattice parameter (alat)  =       6.8300  a.u.
     unit-cell volume          =      79.6530 (a.u.)^3
     number of atoms/cell      =            1
     number of atomic types    =            1
     number of electrons       =        19.00
     number of Kohn-Sham states=           14
     kinetic-energy cutoff     =      35.0000  Ry
     charge density cutoff     =     140.0000  Ry
     convergence threshold     =      1.0E-08
     mixing beta               =       0.7000
     number of iterations used =            8  plain     mixing
     Exchange-correlation      = LDA ( 1  1  0  0 0 0)

     celldm(1)=   6.830000  celldm(2)=   0.000000  celldm(3)=   0.000000
     celldm(4)=   0.000000  celldm(5)=   0.000000  celldm(6)=   0.000000

     crystal axes: (cart. coord. in units of alat)
               a(1) = (  -0.500000   0.000000   0.500000 )  
               a(2) = (   0.000000   0.500000   0.500000 )  
               a(3) = (  -0.500000   0.500000   0.000000 )  

     reciprocal axes: (cart. coord. in units 2 pi/alat)
               b(1) = ( -1.000000 -1.000000  1.000000 )  
               b(2) = (  1.000000  1.000000  1.000000 )  
               b(3) = ( -1.000000  1.000000 -1.000000 )  


     PseudoPot. # 1 for Fr read from file:
     /home/lorenzo/pseudos/Fr/Fr.pz-spdn-rrkjus_psl.1.0.0.UPF
     MD5 check sum: 5665a43a3d1ea02b0b7dc7a0ae9ace04
     Pseudo is Ultrasoft + core correction, Zval = 19.0
     Generated using "atomic" code by A. Dal Corso v.6.2.2
     Using radial grid of 1287 points,  6 beta functions with: 
                l(1) =   0
                l(2) =   0
                l(3) =   1
                l(4) =   1
                l(5) =   2
                l(6) =   2
     Q(r) pseudized with 0 coefficients 


     atomic species   valence    mass     pseudopotential
        Fr            19.00   223.00000     Fr( 1.00)

     48 Sym. Ops., with inversion, found



   Cartesian axes

     site n.     atom                  positions (alat units)
         1           Fr  tau(   1) = (   0.0000000   0.0000000   0.0000000  )

     number of k points=    35  gaussian smearing, width (Ry)=  0.0100
                       cart. coord. in units 2pi/alat
        k(    1) = (   0.0000000   0.0000000   0.0000000), wk =   0.0027435
        k(    2) = (  -0.1111111   0.1111111  -0.1111111), wk =   0.0219479
        k(    3) = (  -0.2222222   0.2222222  -0.2222222), wk =   0.0219479
        k(    4) = (  -0.3333333   0.3333333  -0.3333333), wk =   0.0219479
        k(    5) = (  -0.4444444   0.4444444  -0.4444444), wk =   0.0219479
        k(    6) = (   0.0000000   0.2222222   0.0000000), wk =   0.0164609
        k(    7) = (  -0.1111111   0.3333333  -0.1111111), wk =   0.0658436
        k(    8) = (  -0.2222222   0.4444444  -0.2222222), wk =   0.0658436
        k(    9) = (  -0.3333333   0.5555556  -0.3333333), wk =   0.0658436
        k(   10) = (   0.5555556  -0.3333333   0.5555556), wk =   0.0658436
        k(   11) = (   0.4444444  -0.2222222   0.4444444), wk =   0.0658436
        k(   12) = (   0.3333333  -0.1111111   0.3333333), wk =   0.0658436
        k(   13) = (   0.2222222  -0.0000000   0.2222222), wk =   0.0329218
        k(   14) = (   0.0000000   0.4444444   0.0000000), wk =   0.0164609
        k(   15) = (  -0.1111111   0.5555556  -0.1111111), wk =   0.0658436
        k(   16) = (  -0.2222222   0.6666667  -0.2222222), wk =   0.0658436
        k(   17) = (   0.6666667  -0.2222222   0.6666667), wk =   0.0658436
        k(   18) = (   0.5555556  -0.1111111   0.5555556), wk =   0.0658436
        k(   19) = (   0.4444444   0.0000000   0.4444444), wk =   0.0329218
        k(   20) = (   0.0000000   0.6666667   0.0000000), wk =   0.0164609
        k(   21) = (  -0.1111111   0.7777778  -0.1111111), wk =   0.0658436
        k(   22) = (   0.7777778  -0.1111111   0.7777778), wk =   0.0658436
        k(   23) = (   0.6666667  -0.0000000   0.6666667), wk =   0.0329218
        k(   24) = (   0.0000000   0.8888889   0.0000000), wk =   0.0164609
        k(   25) = (   0.8888889   0.0000000   0.8888889), wk =   0.0329218
        k(   26) = (  -0.2222222   0.4444444   0.0000000), wk =   0.0658436
        k(   27) = (  -0.3333333   0.5555556  -0.1111111), wk =   0.1316872
        k(   28) = (   0.5555556  -0.3333333   0.7777778), wk =   0.1316872
        k(   29) = (  -0.2222222   0.6666667   0.0000000), wk =   0.0658436
        k(   30) = (   0.6666667  -0.2222222   0.8888889), wk =   0.1316872
        k(   31) = (   0.5555556  -0.1111111   0.7777778), wk =   0.1316872
        k(   32) = (   0.4444444   0.0000000   0.6666667), wk =   0.0658436
        k(   33) = (   0.7777778  -0.1111111   1.0000000), wk =   0.0658436
        k(   34) = (   0.6666667  -0.0000000   0.8888889), wk =   0.0658436
        k(   35) = (   0.5555556  -0.1111111   1.0000000), wk =   0.0658436

     Dense  grid:     2229 G-vectors     FFT dimensions: (  20,  20,  20)

     Estimated max dynamical RAM per process >       3.13 MB

     Estimated total dynamical RAM >      15.66 MB

     Check: negative/imaginary core charge=   -0.000020    0.000000

     Initial potential from superposition of free atoms

     starting charge   18.97647, renormalised to   19.00000
     Starting wfcs are   10 randomized atomic wfcs +    4 random wfcs

     total cpu time spent up to now is        1.1 secs

     Self-consistent Calculation

     iteration #  1     ecut=    35.00 Ry     beta= 0.70
     Davidson diagonalization with overlap
     ethr =  1.00E-02,  avg # of iterations =  4.8

     Threshold (ethr) on eigenvalues was too large:
     Diagonalizing with lowered threshold

     Davidson diagonalization with overlap
     ethr =  3.40E-04,  avg # of iterations =  1.0

     total cpu time spent up to now is        1.6 secs

     total energy              =    -281.85434655 Ry
     Harris-Foulkes estimate   =    -281.90610233 Ry
     estimated scf accuracy    <       0.06531337 Ry

     iteration #  2     ecut=    35.00 Ry     beta= 0.70
     Davidson diagonalization with overlap
     ethr =  3.44E-04,  avg # of iterations =  2.1

     total cpu time spent up to now is        1.9 secs

     total energy              =    -281.87141478 Ry
     Harris-Foulkes estimate   =    -281.87395749 Ry
     estimated scf accuracy    <       0.00359278 Ry

     iteration #  3     ecut=    35.00 Ry     beta= 0.70
     Davidson diagonalization with overlap
     ethr =  1.89E-05,  avg # of iterations =  2.3

     total cpu time spent up to now is        2.1 secs

     total energy              =    -281.87221968 Ry
     Harris-Foulkes estimate   =    -281.87224947 Ry
     estimated scf accuracy    <       0.00009006 Ry

     iteration #  4     ecut=    35.00 Ry     beta= 0.70
     Davidson diagonalization with overlap
     ethr =  4.74E-07,  avg # of iterations =  2.0

     total cpu time spent up to now is        2.4 secs

     total energy              =    -281.87222623 Ry
     Harris-Foulkes estimate   =    -281.87222630 Ry
     estimated scf accuracy    <       0.00000054 Ry

     iteration #  5     ecut=    35.00 Ry     beta= 0.70
     Davidson diagonalization with overlap
     ethr =  2.84E-09,  avg # of iterations =  2.1

     total cpu time spent up to now is        2.6 secs

     total energy              =    -281.87222634 Ry
     Harris-Foulkes estimate   =    -281.87222634 Ry
     estimated scf accuracy    <       0.00000001 Ry

     iteration #  6     ecut=    35.00 Ry     beta= 0.70
     Davidson diagonalization with overlap
     ethr =  6.39E-11,  avg # of iterations =  1.6

     total cpu time spent up to now is        2.8 secs

     End of self-consistent calculation

          k = 0.0000 0.0000 0.0000 (   283 PWs)   bands (ev):

    -9.6471  -9.6471  -9.6471  -9.4713  -9.4713   9.0473  46.7431  46.7431
    46.7431  48.1779  54.5027  54.5027  54.5027  57.4791

          k =-0.1111 0.1111-0.1111 (   280 PWs)   bands (ev):

    -9.7507  -9.5785  -9.5785  -9.2957  -9.2957   9.5401  42.0601  46.0903
    46.0903  48.0761  55.6101  55.6101  55.7696  57.1508

          k =-0.2222 0.2222-0.2222 (   283 PWs)   bands (ev):

    -9.8217  -9.6056  -9.6056  -9.2437  -9.2437  11.0202  35.1629  44.7226
    44.7226  48.1552  53.7527  54.8485  54.8485  58.1560

          k =-0.3333 0.3333-0.3333 (   287 PWs)   bands (ev):

    -9.7392  -9.6995  -9.6995  -9.2479  -9.2479  13.4419  28.8544  43.4125
    43.4125  48.1248  52.1078  53.1330  53.1330  61.4943

          k =-0.4444 0.4444-0.4444 (   269 PWs)   bands (ev):

    -9.6382  -9.6382  -9.5351  -8.7133  -8.7133  16.3445  23.9608  42.6341
    42.6341  47.9728  51.4809  52.3838  52.3838  64.5899

          k = 0.0000 0.2222 0.0000 (   283 PWs)   bands (ev):

    -9.7020  -9.6142  -9.6142  -9.4197  -9.3265   9.7042  44.0140  44.0140
    44.3345  47.0105  52.8553  56.7238  57.4036  57.4036

          k =-0.1111 0.3333-0.1111 (   289 PWs)   bands (ev):

    -9.8738  -9.6692  -9.6602  -9.4774  -9.3155  10.8554  37.6446  42.2140
    43.7945  47.9390  50.3955  56.3915  58.2222  58.3740

          k =-0.2222 0.4444-0.2222 (   283 PWs)   bands (ev):

    -9.7517  -9.6097  -9.6069  -9.2014  -9.1493  12.9737  31.1761  41.0992
    42.0289  47.0111  52.9137  55.9278  56.3019  57.0372

          k =-0.3333 0.5556-0.3333 (   271 PWs)   bands (ev):

    -9.6756  -9.5152  -9.5062  -8.8580  -8.7584  15.8224  25.7474  40.1820
    40.8657  46.4344  54.2247  54.7105  55.4478  59.4737

          k = 0.5556-0.3333 0.5556 (   274 PWs)   bands (ev):

    -9.7190  -9.5730  -9.5324  -8.8858  -8.7683  17.3213  23.5998  38.9174
    41.6269  46.7059  53.1465  53.6514  56.4645  63.5649

          k = 0.4444-0.2222 0.4444 (   279 PWs)   bands (ev):

    -9.7480  -9.6282  -9.5564  -9.1053  -8.8971  14.8286  27.4083  38.5269
    43.3603  47.7948  52.2431  53.2384  57.9006  60.4581

          k = 0.3333-0.1111 0.3333 (   287 PWs)   bands (ev):

    -9.8557  -9.6758  -9.5188  -9.4289  -9.2268  12.1631  33.2609  39.0514
    45.6835  49.5570  51.4203  53.4204  56.7591  58.2153

          k = 0.2222-0.0000 0.2222 (   285 PWs)   bands (ev):

    -9.8964  -9.6067  -9.5395  -9.3872  -9.3572  10.3625  39.4122  40.8875
    47.1940  49.3412  52.9229  54.5029  54.8944  56.8072

          k = 0.0000 0.4444 0.0000 (   290 PWs)   bands (ev):

   -10.0343  -9.5614  -9.5614  -9.5483  -9.2164  11.6771  39.1510  40.0403
    40.0403  45.2352  46.9236  61.0159  61.0160  61.4660

          k =-0.1111 0.5556-0.1111 (   288 PWs)   bands (ev):

    -9.9990  -9.6372  -9.5096  -9.2262  -9.1776  13.4703  33.6765  38.2908
    38.6805  45.0618  47.7909  60.4085  60.6384  62.2220

          k =-0.2222 0.6667-0.2222 (   281 PWs)   bands (ev):

    -9.9106  -9.6034  -9.4757  -9.0624  -8.8782  16.0829  28.3040  35.7285
    38.3417  44.7145  52.4114  58.4922  58.8712  62.0269

          k = 0.6667-0.2222 0.6667 (   275 PWs)   bands (ev):

    -9.8604  -9.4330  -9.3209  -9.0659  -8.7725  18.3874  24.9443  33.7653
    39.1213  45.0224  57.0853  57.1609  57.9602  62.7931

          k = 0.5556-0.1111 0.5556 (   275 PWs)   bands (ev):

    -9.7701  -9.4277  -9.2843  -9.1009  -8.9307  16.9506  27.0801  32.7913
    40.9651  46.0470  55.7404  56.3926  60.5655  60.7827

          k = 0.4444 0.0000 0.4444 (   277 PWs)   bands (ev):

    -9.6571  -9.6285  -9.3124  -9.3106  -8.8592  14.2366  31.4970  33.6137
    43.5520  47.7871  53.6404  56.1403  56.2885  58.5943

          k = 0.0000 0.6667 0.0000 (   274 PWs)   bands (ev):

   -10.0563  -9.3932  -9.0435  -8.9097  -8.9097  14.9356  32.4912  37.0185
    37.0185  44.0848  44.1218  64.6909  64.9687  64.9687

          k =-0.1111 0.7778-0.1111 (   276 PWs)   bands (ev):

   -10.0447  -9.6708  -9.0438  -8.8322  -8.7873  17.2394  28.9982  34.0140
    36.3735  43.6711  46.5122  62.4808  64.2309  68.6492

          k = 0.7778-0.1111 0.7778 (   278 PWs)   bands (ev):

    -9.9659  -9.6239  -9.1049  -9.0092  -8.8746  19.6119  26.5646  30.4373
    36.8897  43.8597  51.6202  60.7269  62.3060  66.9591

          k = 0.6667-0.0000 0.6667 (   284 PWs)   bands (ev):

    -9.9617  -9.3691  -9.3120  -9.2969  -9.1731  19.2549  28.0423  28.0743
    38.5067  44.6156  57.4319  59.1273  59.9437  62.7713

          k = 0.0000 0.8889 0.0000 (   286 PWs)   bands (ev):

   -10.2578  -9.8857  -9.2234  -8.7999  -8.7999  19.1454  26.2445  35.3857
    35.3857  42.8850  43.4154  64.2219  69.6214  69.6214

          k = 0.8889 0.0000 0.8889 (   280 PWs)   bands (ev):

   -10.1571  -9.7693  -8.9832  -8.8732  -8.8201  20.5513  25.0248  32.8310
    35.5656  43.2270  46.0811  63.1562  67.5684  68.9278

          k =-0.2222 0.4444 0.0000 (   285 PWs)   bands (ev):

    -9.8532  -9.6425  -9.4571  -9.4233  -9.1271  12.3286  35.1682  37.2406
    42.9891  48.7297  48.9864  55.8196  58.2758  60.7706

          k =-0.3333 0.5556-0.1111 (   280 PWs)   bands (ev):

    -9.7759  -9.6637  -9.4569  -9.1768  -8.9096  14.7095  29.8673  35.6913
    40.5656  48.0506  52.1511  54.9053  58.6581  61.8696

          k = 0.5556-0.3333 0.7778 (   276 PWs)   bands (ev):

    -9.7540  -9.5779  -9.3140  -9.0733  -8.8400  17.4647  25.3032  35.4944
    38.8276  47.5947  52.4584  58.8077  59.1291  60.4314

          k =-0.2222 0.6667 0.0000 (   277 PWs)   bands (ev):

    -9.9094  -9.5417  -9.2265  -9.0408  -8.8578  15.5301  31.2154  34.4984
    36.9421  47.1189  47.3040  58.1612  64.0121  66.0525

          k = 0.6667-0.2222 0.8889 (   277 PWs)   bands (ev):

    -9.8166  -9.6014  -9.2372  -9.0350  -8.8355  18.1543  27.6362  32.2729
    35.5654  47.1792  51.9965  56.2658  63.5473  64.8527

          k = 0.5556-0.1111 0.7778 (   274 PWs)   bands (ev):

    -9.7622  -9.4031  -9.2738  -9.1170  -8.8288  19.3170  26.3234  30.7481
    36.1459  47.7969  54.6255  57.8877  59.3337  63.0891

          k = 0.4444 0.0000 0.6667 (   273 PWs)   bands (ev):

    -9.6785  -9.5308  -9.1255  -9.0468  -8.9673  17.1674  29.0006  30.8812
    38.0416  48.9097  53.0863  55.4970  61.3901  62.8417

          k = 0.7778-0.1111 1.0000 (   276 PWs)   bands (ev):

   -10.0075  -9.7162  -9.0328  -8.9124  -8.7042  19.4871  26.6729  33.0068
    33.8695  46.2102  46.5395  60.7852  65.5424  68.6688

          k = 0.6667-0.0000 0.8889 (   278 PWs)   bands (ev):

    -9.9269  -9.6332  -9.1664  -9.1367  -8.7170  20.5615  26.5709  29.7050
    34.2725  46.8370  51.7222  58.5190  61.3483  66.4703

          k = 0.5556-0.1111 1.0000 (   274 PWs)   bands (ev):

    -9.6438  -9.6133  -9.3529  -9.0161  -8.7241  20.1850  27.7930  29.4106
    32.9119  51.6970  52.2038  54.9362  58.7398  68.1075

     the Fermi energy is    47.0034 ev

!    total energy              =    -281.87222634 Ry
     Harris-Foulkes estimate   =    -281.87222634 Ry
     estimated scf accuracy    <          7.2E-10 Ry

     The total energy is the sum of the following terms:

     one-electron contribution =      -3.42248472 Ry
     hartree contribution      =      27.53009494 Ry
     xc contribution           =     -63.64623356 Ry
     ewald contribution        =    -242.33311995 Ry
     smearing contrib. (-TS)   =      -0.00048304 Ry

     convergence has been achieved in   6 iterations

     Forces acting on atoms (cartesian axes, Ry/au):

     atom    1 type  1   force =     0.00000000    0.00000000    0.00000000

     Total force =     0.000000     Total SCF correction =     0.000000


     Computing stress (Cartesian axis) and pressure

          total   stress  (Ry/bohr**3)                   (kbar)     P= 1137.25
   0.00773089  -0.00000000  -0.00000000       1137.25     -0.00     -0.00
  -0.00000000   0.00773089   0.00000000         -0.00   1137.25      0.00
  -0.00000000   0.00000000   0.00773089         -0.00      0.00   1137.25


     Writing output data file Fr.save/

     init_run     :      0.19s CPU      0.19s WALL (       1 calls)
     electrons    :      1.65s CPU      1.77s WALL (       1 calls)
     forces       :      0.02s CPU      0.02s WALL (       1 calls)
     stress       :      0.05s CPU      0.05s WALL (       1 calls)

     Called by init_run:
     wfcinit      :      0.06s CPU      0.06s WALL (       1 calls)
     potinit      :      0.00s CPU      0.00s WALL (       1 calls)
     hinit0       :      0.12s CPU      0.12s WALL (       1 calls)

     Called by electrons:
     c_bands      :      1.42s CPU      1.53s WALL (       7 calls)
     sum_band     :      0.21s CPU      0.23s WALL (       7 calls)
     v_of_rho     :      0.00s CPU      0.00s WALL (       7 calls)
     newd         :      0.01s CPU      0.01s WALL (       7 calls)
     mix_rho      :      0.00s CPU      0.00s WALL (       7 calls)

     Called by c_bands:
     init_us_2    :      0.03s CPU      0.03s WALL (     595 calls)
     cegterg      :      1.38s CPU      1.48s WALL (     245 calls)

     Called by sum_band:
     sum_band:bec :      0.00s CPU      0.00s WALL (     245 calls)
     addusdens    :      0.01s CPU      0.02s WALL (       7 calls)

     Called by *egterg:
     h_psi        :      0.91s CPU      0.98s WALL (     836 calls)
     s_psi        :      0.03s CPU      0.03s WALL (     836 calls)
     g_psi        :      0.00s CPU      0.00s WALL (     556 calls)
     cdiaghg      :      0.32s CPU      0.34s WALL (     766 calls)

     Called by h_psi:
     h_psi:pot    :      0.90s CPU      0.97s WALL (     836 calls)
     h_psi:calbec :      0.04s CPU      0.04s WALL (     836 calls)
     vloc_psi     :      0.83s CPU      0.90s WALL (     836 calls)
     add_vuspsi   :      0.02s CPU      0.03s WALL (     836 calls)

     General routines
     calbec       :      0.06s CPU      0.07s WALL (    1256 calls)
     fft          :      0.00s CPU      0.00s WALL (      38 calls)
     ffts         :      0.00s CPU      0.00s WALL (       7 calls)
     fftw         :      0.92s CPU      0.99s WALL (   21312 calls)

     Parallel routines
     fft_scatt_xy :      0.08s CPU      0.09s WALL (   21357 calls)
     fft_scatt_yz :      0.32s CPU      0.34s WALL (   21357 calls)

     PWSCF        :     2.80s CPU         2.99s WALL


   This run was terminated on:  22:31: 4   7Apr2024            

=------------------------------------------------------------------------------=
   JOB DONE.
=------------------------------------------------------------------------------=
