
     Program PWSCF v.6.3MaX starts on  7Apr2024 at 22:28:11 

     This program is part of the open-source Quantum ESPRESSO suite
     for quantum simulation of materials; please cite
         "P. Giannozzi et al., J. Phys.:Condens. Matter 21 395502 (2009);
         "P. Giannozzi et al., J. Phys.:Condens. Matter 29 465901 (2017);
          URL http://www.quantum-espresso.org", 
     in publications or presentations arising from this work. More details at
     http://www.quantum-espresso.org/quote

     Parallel version (MPI), running on     5 processors

     MPI processes distributed on     1 nodes
     R & G space division:  proc/nbgrp/npool/nimage =       5
     Waiting for input...
     Reading input from standard input

     Current dimensions of program PWSCF are:
     Max number of different atomic species (ntypx) = 10
     Max number of k-points (npk) =  40000
     Max angular momentum in pseudopotentials (lmaxx) =  3

     Subspace diagonalization in iterative solution of the eigenvalue problem:
     a serial algorithm will be used


     Parallelization info
     --------------------
     sticks:   dense  smooth     PW     G-vecs:    dense   smooth      PW
     Min          39      39     13                  361      361      77
     Max          40      40     15                  363      363      78
     Sum         199     199     73                 1807     1807     387



     bravais-lattice index     =            2
     lattice parameter (alat)  =       6.8300  a.u.
     unit-cell volume          =      79.6530 (a.u.)^3
     number of atoms/cell      =            1
     number of atomic types    =            1
     number of electrons       =        19.00
     number of Kohn-Sham states=           14
     kinetic-energy cutoff     =      30.0000  Ry
     charge density cutoff     =     120.0000  Ry
     convergence threshold     =      1.0E-08
     mixing beta               =       0.7000
     number of iterations used =            8  plain     mixing
     Exchange-correlation      = PBE ( 1  4  3  4 0 0)

     celldm(1)=   6.830000  celldm(2)=   0.000000  celldm(3)=   0.000000
     celldm(4)=   0.000000  celldm(5)=   0.000000  celldm(6)=   0.000000

     crystal axes: (cart. coord. in units of alat)
               a(1) = (  -0.500000   0.000000   0.500000 )  
               a(2) = (   0.000000   0.500000   0.500000 )  
               a(3) = (  -0.500000   0.500000   0.000000 )  

     reciprocal axes: (cart. coord. in units 2 pi/alat)
               b(1) = ( -1.000000 -1.000000  1.000000 )  
               b(2) = (  1.000000  1.000000  1.000000 )  
               b(3) = ( -1.000000  1.000000 -1.000000 )  


     PseudoPot. # 1 for Fr read from file:
     /home/lorenzo/pseudos/Fr/Fr.pbe-spdn-rrkjus_psl.1.0.0.UPF
     MD5 check sum: 07cabfa18982bd6b5b9d8ae5689d9732
     Pseudo is Ultrasoft + core correction, Zval = 19.0
     Generated using "atomic" code by A. Dal Corso v.6.2.2
     Using radial grid of 1287 points,  6 beta functions with: 
                l(1) =   0
                l(2) =   0
                l(3) =   1
                l(4) =   1
                l(5) =   2
                l(6) =   2
     Q(r) pseudized with 0 coefficients 


     atomic species   valence    mass     pseudopotential
        Fr            19.00   223.00000     Fr( 1.00)

     48 Sym. Ops., with inversion, found



   Cartesian axes

     site n.     atom                  positions (alat units)
         1           Fr  tau(   1) = (   0.0000000   0.0000000   0.0000000  )

     number of k points=    20  gaussian smearing, width (Ry)=  0.0100
                       cart. coord. in units 2pi/alat
        k(    1) = (   0.0000000   0.0000000   0.0000000), wk =   0.0058309
        k(    2) = (  -0.1428571   0.1428571  -0.1428571), wk =   0.0466472
        k(    3) = (  -0.2857143   0.2857143  -0.2857143), wk =   0.0466472
        k(    4) = (  -0.4285714   0.4285714  -0.4285714), wk =   0.0466472
        k(    5) = (   0.0000000   0.2857143   0.0000000), wk =   0.0349854
        k(    6) = (  -0.1428571   0.4285714  -0.1428571), wk =   0.1399417
        k(    7) = (  -0.2857143   0.5714286  -0.2857143), wk =   0.1399417
        k(    8) = (   0.5714286  -0.2857143   0.5714286), wk =   0.1399417
        k(    9) = (   0.4285714  -0.1428571   0.4285714), wk =   0.1399417
        k(   10) = (   0.2857143  -0.0000000   0.2857143), wk =   0.0699708
        k(   11) = (   0.0000000   0.5714286   0.0000000), wk =   0.0349854
        k(   12) = (  -0.1428571   0.7142857  -0.1428571), wk =   0.1399417
        k(   13) = (   0.7142857  -0.1428571   0.7142857), wk =   0.1399417
        k(   14) = (   0.5714286   0.0000000   0.5714286), wk =   0.0699708
        k(   15) = (   0.0000000   0.8571429   0.0000000), wk =   0.0349854
        k(   16) = (   0.8571429  -0.0000000   0.8571429), wk =   0.0699708
        k(   17) = (  -0.2857143   0.5714286   0.0000000), wk =   0.1399417
        k(   18) = (   0.5714286  -0.2857143   0.8571429), wk =   0.2798834
        k(   19) = (   0.7142857  -0.1428571   1.0000000), wk =   0.1399417
        k(   20) = (   0.5714286   0.0000000   0.8571429), wk =   0.1399417

     Dense  grid:     1807 G-vectors     FFT dimensions: (  18,  18,  18)

     Estimated max dynamical RAM per process >       2.52 MB

     Estimated total dynamical RAM >      12.60 MB

     Check: negative/imaginary core charge=   -0.000066    0.000000

     Initial potential from superposition of free atoms

     starting charge   18.97009, renormalised to   19.00000
     Starting wfcs are   10 randomized atomic wfcs +    4 random wfcs

     total cpu time spent up to now is        1.0 secs

     Self-consistent Calculation

     iteration #  1     ecut=    30.00 Ry     beta= 0.70
     Davidson diagonalization with overlap
     ethr =  1.00E-02,  avg # of iterations =  4.8

     total cpu time spent up to now is        1.3 secs

     total energy              =    -281.02427382 Ry
     Harris-Foulkes estimate   =    -281.19325687 Ry
     estimated scf accuracy    <       0.22670844 Ry

     iteration #  2     ecut=    30.00 Ry     beta= 0.70
     Davidson diagonalization with overlap
     ethr =  1.19E-03,  avg # of iterations =  2.2

     total cpu time spent up to now is        1.4 secs

     total energy              =    -281.07833106 Ry
     Harris-Foulkes estimate   =    -281.08530172 Ry
     estimated scf accuracy    <       0.01202643 Ry

     iteration #  3     ecut=    30.00 Ry     beta= 0.70
     Davidson diagonalization with overlap
     ethr =  6.33E-05,  avg # of iterations =  2.0

     total cpu time spent up to now is        1.6 secs

     total energy              =    -281.08046899 Ry
     Harris-Foulkes estimate   =    -281.08054281 Ry
     estimated scf accuracy    <       0.00049841 Ry

     iteration #  4     ecut=    30.00 Ry     beta= 0.70
     Davidson diagonalization with overlap
     ethr =  2.62E-06,  avg # of iterations =  2.0

     total cpu time spent up to now is        1.7 secs

     total energy              =    -281.08049840 Ry
     Harris-Foulkes estimate   =    -281.08049681 Ry
     estimated scf accuracy    <       0.00000256 Ry

     iteration #  5     ecut=    30.00 Ry     beta= 0.70
     Davidson diagonalization with overlap
     ethr =  1.35E-08,  avg # of iterations =  2.5

     total cpu time spent up to now is        1.8 secs

     total energy              =    -281.08049939 Ry
     Harris-Foulkes estimate   =    -281.08049944 Ry
     estimated scf accuracy    <       0.00000014 Ry

     iteration #  6     ecut=    30.00 Ry     beta= 0.70
     Davidson diagonalization with overlap
     ethr =  7.20E-10,  avg # of iterations =  2.0

     total cpu time spent up to now is        1.9 secs

     total energy              =    -281.08049939 Ry
     Harris-Foulkes estimate   =    -281.08049940 Ry
     estimated scf accuracy    <       0.00000001 Ry

     iteration #  7     ecut=    30.00 Ry     beta= 0.70
     Davidson diagonalization with overlap
     ethr =  7.10E-11,  avg # of iterations =  2.0

     total cpu time spent up to now is        2.0 secs

     End of self-consistent calculation

          k = 0.0000 0.0000 0.0000 (   229 PWs)   bands (ev):

    -9.2147  -9.2147  -9.2147  -8.9549  -8.9549   9.3541  46.9745  46.9745
    46.9745  48.5714  55.6298  55.6298  55.6298  57.6070

          k =-0.1429 0.1429-0.1429 (   220 PWs)   bands (ev):

    -9.1949  -8.9304  -8.9304  -8.7580  -8.7580  10.1666  40.4533  46.0380
    46.0380  48.5670  55.6690  56.9775  56.9775  57.4739

          k =-0.2857 0.2857-0.2857 (   217 PWs)   bands (ev):

    -9.1537  -9.0855  -9.0855  -8.4878  -8.4878  12.5998  31.7961  44.2398
    44.2398  48.6692  53.1842  54.7461  54.7461  60.8473

          k =-0.4286 0.4286-0.4286 (   226 PWs)   bands (ev):

    -9.6510  -9.2822  -9.2822  -8.9554  -8.9554  16.2442  24.8120  42.9615
    42.9615  48.3896  51.9830  53.4212  53.4212  64.7037

          k = 0.0000 0.2857 0.0000 (   218 PWs)   bands (ev):

    -9.2027  -9.0773  -9.0773  -8.6418  -8.4098  10.4369  43.2114  43.2114
    43.2613  47.1867  51.5184  58.8341  59.1942  59.1942

          k =-0.1429 0.4286-0.1429 (   219 PWs)   bands (ev):

    -9.2814  -9.0187  -8.9979  -8.9114  -8.6564  12.3312  34.9580  41.1245
    42.2354  47.4947  50.7698  58.2726  58.9776  59.1720

          k =-0.2857 0.5714-0.2857 (   221 PWs)   bands (ev):

    -9.3767  -9.2088  -8.8693  -8.8682  -8.7561  15.6717  27.4579  39.5178
    40.4435  46.5449  55.7404  56.8706  57.0308  58.5369

          k = 0.5714-0.2857 0.5714 (   225 PWs)   bands (ev):

    -9.5149  -9.3676  -9.2319  -8.8932  -8.8902  17.7690  24.3090  37.6086
    41.4519  46.9238  54.5796  55.3012  59.0276  63.2323

          k = 0.4286-0.1429 0.4286 (   217 PWs)   bands (ev):

    -9.0927  -8.9756  -8.8322  -8.8121  -8.7040  14.4333  29.8179  37.3042
    44.1081  48.6272  53.1906  54.8793  59.3350  60.1166

          k = 0.2857-0.0000 0.2857 (   216 PWs)   bands (ev):

    -9.2202  -9.0605  -8.8009  -8.6432  -8.4911  11.5220  37.1657  39.1822
    47.0059  50.7552  51.8048  54.7794  56.1799  57.9906

          k = 0.0000 0.5714 0.0000 (   218 PWs)   bands (ev):

    -9.5335  -9.3375  -8.8130  -8.8130  -8.3995  13.6799  35.6237  38.4998
    38.4998  45.4197  45.5973  63.5604  63.5604  65.6335

          k =-0.1429 0.7143-0.1429 (   221 PWs)   bands (ev):

    -9.7002  -9.2569  -8.9818  -8.8045  -8.5878  16.5250  30.2130  34.8820
    37.4362  44.7580  48.9377  61.8109  62.5440  66.3651

          k = 0.7143-0.1429 0.7143 (   224 PWs)   bands (ev):

    -9.4949  -9.1730  -9.1419  -9.0685  -8.9969  19.4735  26.3153  31.4030
    38.2522  45.1125  55.6828  59.7350  60.2487  65.8602

          k = 0.5714 0.0000 0.5714 (   222 PWs)   bands (ev):

    -9.2366  -9.1470  -9.0869  -9.0463  -8.9040  17.5076  29.0308  30.5704
    40.8277  46.4988  57.5143  58.4246  60.3924  60.5264

          k = 0.0000 0.8571 0.0000 (   222 PWs)   bands (ev):

    -9.8730  -9.2297  -9.0655  -9.0655  -8.4183  18.8147  27.3152  35.8165
    35.8165  43.7155  44.4408  64.7758  69.3845  69.3845

          k = 0.8571-0.0000 0.8571 (   222 PWs)   bands (ev):

    -9.5641  -9.1742  -9.0930  -8.9121  -8.7881  20.8042  25.6015  32.2271
    36.1157  44.1515  48.3409  63.1182  66.9297  68.3372

          k =-0.2857 0.5714 0.0000 (   219 PWs)   bands (ev):

    -9.2975  -9.1185  -8.9785  -8.8165  -8.7002  14.7109  32.2695  34.9065
    40.1271  49.3923  50.1690  56.0134  61.2849  64.0620

          k = 0.5714-0.2857 0.8571 (   226 PWs)   bands (ev):

    -9.4750  -9.3820  -9.3382  -9.0366  -8.8687  18.1052  26.9025  33.4629
    37.5053  49.0169  53.4099  57.0154  62.3286  62.8890

          k = 0.7143-0.1429 1.0000 (   216 PWs)   bands (ev):

    -9.1558  -9.0961  -8.7541  -8.6965  -8.5929  19.4379  27.7305  32.4861
    34.1497  48.5207  49.0626  59.1010  64.5798  69.1043

          k = 0.5714 0.0000 0.8571 (   217 PWs)   bands (ev):

    -9.0299  -8.9699  -8.8293  -8.7890  -8.7811  20.5104  28.1303  28.8850
    34.6104  49.4822  55.8482  56.5258  58.7288  66.5346

     the Fermi energy is    47.6157 ev

!    total energy              =    -281.08049939 Ry
     Harris-Foulkes estimate   =    -281.08049939 Ry
     estimated scf accuracy    <          6.0E-11 Ry

     The total energy is the sum of the following terms:

     one-electron contribution =      -1.28563376 Ry
     hartree contribution      =      26.48424716 Ry
     xc contribution           =     -63.94581400 Ry
     ewald contribution        =    -242.33311990 Ry
     smearing contrib. (-TS)   =      -0.00017890 Ry

     convergence has been achieved in   7 iterations

     Forces acting on atoms (cartesian axes, Ry/au):

     atom    1 type  1   force =     0.00000000    0.00000000    0.00000000

     Total force =     0.000000     Total SCF correction =     0.000000


     Computing stress (Cartesian axis) and pressure

          total   stress  (Ry/bohr**3)                   (kbar)     P=-5356.89
  -0.03641543  -0.00000000  -0.00000000      -5356.89     -0.00     -0.00
  -0.00000000  -0.03641543   0.00000000         -0.00  -5356.89      0.00
  -0.00000000   0.00000000  -0.03641543         -0.00      0.00  -5356.89


     Writing output data file Fr.save/

     init_run     :      0.13s CPU      0.14s WALL (       1 calls)
     electrons    :      0.88s CPU      0.97s WALL (       1 calls)
     forces       :      0.01s CPU      0.01s WALL (       1 calls)
     stress       :      0.04s CPU      0.04s WALL (       1 calls)

     Called by init_run:
     wfcinit      :      0.03s CPU      0.03s WALL (       1 calls)
     potinit      :      0.00s CPU      0.00s WALL (       1 calls)
     hinit0       :      0.10s CPU      0.10s WALL (       1 calls)

     Called by electrons:
     c_bands      :      0.74s CPU      0.81s WALL (       7 calls)
     sum_band     :      0.11s CPU      0.13s WALL (       7 calls)
     v_of_rho     :      0.01s CPU      0.01s WALL (       8 calls)
     newd         :      0.01s CPU      0.01s WALL (       8 calls)
     mix_rho      :      0.00s CPU      0.00s WALL (       7 calls)

     Called by c_bands:
     init_us_2    :      0.01s CPU      0.01s WALL (     340 calls)
     cegterg      :      0.72s CPU      0.79s WALL (     140 calls)

     Called by sum_band:
     sum_band:bec :      0.00s CPU      0.00s WALL (     140 calls)
     addusdens    :      0.01s CPU      0.01s WALL (       7 calls)

     Called by *egterg:
     h_psi        :      0.44s CPU      0.48s WALL (     511 calls)
     s_psi        :      0.01s CPU      0.01s WALL (     511 calls)
     g_psi        :      0.00s CPU      0.00s WALL (     351 calls)
     cdiaghg      :      0.21s CPU      0.22s WALL (     491 calls)

     Called by h_psi:
     h_psi:pot    :      0.43s CPU      0.48s WALL (     511 calls)
     h_psi:calbec :      0.02s CPU      0.02s WALL (     511 calls)
     vloc_psi     :      0.40s CPU      0.44s WALL (     511 calls)
     add_vuspsi   :      0.01s CPU      0.01s WALL (     511 calls)

     General routines
     calbec       :      0.03s CPU      0.03s WALL (     751 calls)
     fft          :      0.01s CPU      0.01s WALL (     114 calls)
     ffts         :      0.00s CPU      0.00s WALL (       7 calls)
     fftw         :      0.44s CPU      0.49s WALL (   12542 calls)

     Parallel routines
     fft_scatt_xy :      0.04s CPU      0.05s WALL (   12663 calls)
     fft_scatt_yz :      0.12s CPU      0.14s WALL (   12663 calls)

     PWSCF        :     1.98s CPU         2.13s WALL


   This run was terminated on:  22:28:13   7Apr2024            

=------------------------------------------------------------------------------=
   JOB DONE.
=------------------------------------------------------------------------------=
