
     Program PWSCF v.6.3MaX starts on  7Apr2024 at 23: 2:16 

     This program is part of the open-source Quantum ESPRESSO suite
     for quantum simulation of materials; please cite
         "P. Giannozzi et al., J. Phys.:Condens. Matter 21 395502 (2009);
         "P. Giannozzi et al., J. Phys.:Condens. Matter 29 465901 (2017);
          URL http://www.quantum-espresso.org", 
     in publications or presentations arising from this work. More details at
     http://www.quantum-espresso.org/quote

     Parallel version (MPI), running on     5 processors

     MPI processes distributed on     1 nodes
     R & G space division:  proc/nbgrp/npool/nimage =       5
     Waiting for input...
     Reading input from standard input

     Current dimensions of program PWSCF are:
     Max number of different atomic species (ntypx) = 10
     Max number of k-points (npk) =  40000
     Max angular momentum in pseudopotentials (lmaxx) =  3
               file Fr.pbe-spdn-kjpaw_psl.1.0.0.UPF: wavefunction(s)  6P renormalized

     Subspace diagonalization in iterative solution of the eigenvalue problem:
     a serial algorithm will be used


     Parallelization info
     --------------------
     sticks:   dense  smooth     PW     G-vecs:    dense   smooth      PW
     Min         116     116     37                 1850     1850     327
     Max         117     117     38                 1853     1853     329
     Sum         583     583    187                 9257     9257    1639



     bravais-lattice index     =            2
     lattice parameter (alat)  =       6.8300  a.u.
     unit-cell volume          =      79.6530 (a.u.)^3
     number of atoms/cell      =            1
     number of atomic types    =            1
     number of electrons       =        19.00
     number of Kohn-Sham states=           14
     kinetic-energy cutoff     =      90.0000  Ry
     charge density cutoff     =     360.0000  Ry
     convergence threshold     =      1.0E-08
     mixing beta               =       0.7000
     number of iterations used =            8  plain     mixing
     Exchange-correlation      = SLA PW PBX PBC ( 1  4  3  4 0 0)

     celldm(1)=   6.830000  celldm(2)=   0.000000  celldm(3)=   0.000000
     celldm(4)=   0.000000  celldm(5)=   0.000000  celldm(6)=   0.000000

     crystal axes: (cart. coord. in units of alat)
               a(1) = (  -0.500000   0.000000   0.500000 )  
               a(2) = (   0.000000   0.500000   0.500000 )  
               a(3) = (  -0.500000   0.500000   0.000000 )  

     reciprocal axes: (cart. coord. in units 2 pi/alat)
               b(1) = ( -1.000000 -1.000000  1.000000 )  
               b(2) = (  1.000000  1.000000  1.000000 )  
               b(3) = ( -1.000000  1.000000 -1.000000 )  


     PseudoPot. # 1 for Fr read from file:
     /home/lorenzo/pseudos/Fr/Fr.pbe-spdn-kjpaw_psl.1.0.0.UPF
     MD5 check sum: 362a188b966a64328b94f1ef5f32e8c4
     Pseudo is Projector augmented-wave + core cor, Zval = 19.0
     Generated using "atomic" code by A. Dal Corso v.6.2.2
     Shape of augmentation charge: PSQ
     Using radial grid of 1287 points,  6 beta functions with: 
                l(1) =   0
                l(2) =   0
                l(3) =   1
                l(4) =   1
                l(5) =   2
                l(6) =   2
     Q(r) pseudized with 0 coefficients 


     atomic species   valence    mass     pseudopotential
        Fr            19.00   223.00000     Fr( 1.00)

     48 Sym. Ops., with inversion, found



   Cartesian axes

     site n.     atom                  positions (alat units)
         1           Fr  tau(   1) = (   0.0000000   0.0000000   0.0000000  )

     number of k points=    35  gaussian smearing, width (Ry)=  0.0100
                       cart. coord. in units 2pi/alat
        k(    1) = (   0.0000000   0.0000000   0.0000000), wk =   0.0027435
        k(    2) = (  -0.1111111   0.1111111  -0.1111111), wk =   0.0219479
        k(    3) = (  -0.2222222   0.2222222  -0.2222222), wk =   0.0219479
        k(    4) = (  -0.3333333   0.3333333  -0.3333333), wk =   0.0219479
        k(    5) = (  -0.4444444   0.4444444  -0.4444444), wk =   0.0219479
        k(    6) = (   0.0000000   0.2222222   0.0000000), wk =   0.0164609
        k(    7) = (  -0.1111111   0.3333333  -0.1111111), wk =   0.0658436
        k(    8) = (  -0.2222222   0.4444444  -0.2222222), wk =   0.0658436
        k(    9) = (  -0.3333333   0.5555556  -0.3333333), wk =   0.0658436
        k(   10) = (   0.5555556  -0.3333333   0.5555556), wk =   0.0658436
        k(   11) = (   0.4444444  -0.2222222   0.4444444), wk =   0.0658436
        k(   12) = (   0.3333333  -0.1111111   0.3333333), wk =   0.0658436
        k(   13) = (   0.2222222  -0.0000000   0.2222222), wk =   0.0329218
        k(   14) = (   0.0000000   0.4444444   0.0000000), wk =   0.0164609
        k(   15) = (  -0.1111111   0.5555556  -0.1111111), wk =   0.0658436
        k(   16) = (  -0.2222222   0.6666667  -0.2222222), wk =   0.0658436
        k(   17) = (   0.6666667  -0.2222222   0.6666667), wk =   0.0658436
        k(   18) = (   0.5555556  -0.1111111   0.5555556), wk =   0.0658436
        k(   19) = (   0.4444444   0.0000000   0.4444444), wk =   0.0329218
        k(   20) = (   0.0000000   0.6666667   0.0000000), wk =   0.0164609
        k(   21) = (  -0.1111111   0.7777778  -0.1111111), wk =   0.0658436
        k(   22) = (   0.7777778  -0.1111111   0.7777778), wk =   0.0658436
        k(   23) = (   0.6666667  -0.0000000   0.6666667), wk =   0.0329218
        k(   24) = (   0.0000000   0.8888889   0.0000000), wk =   0.0164609
        k(   25) = (   0.8888889   0.0000000   0.8888889), wk =   0.0329218
        k(   26) = (  -0.2222222   0.4444444   0.0000000), wk =   0.0658436
        k(   27) = (  -0.3333333   0.5555556  -0.1111111), wk =   0.1316872
        k(   28) = (   0.5555556  -0.3333333   0.7777778), wk =   0.1316872
        k(   29) = (  -0.2222222   0.6666667   0.0000000), wk =   0.0658436
        k(   30) = (   0.6666667  -0.2222222   0.8888889), wk =   0.1316872
        k(   31) = (   0.5555556  -0.1111111   0.7777778), wk =   0.1316872
        k(   32) = (   0.4444444   0.0000000   0.6666667), wk =   0.0658436
        k(   33) = (   0.7777778  -0.1111111   1.0000000), wk =   0.0658436
        k(   34) = (   0.6666667  -0.0000000   0.8888889), wk =   0.0658436
        k(   35) = (   0.5555556  -0.1111111   1.0000000), wk =   0.0658436

     Dense  grid:     9257 G-vectors     FFT dimensions: (  30,  30,  30)

     Estimated max dynamical RAM per process >      10.30 MB

     Estimated total dynamical RAM >      51.48 MB

     Initial potential from superposition of free atoms

     starting charge   18.97009, renormalised to   19.00000
     Starting wfcs are   10 randomized atomic wfcs +    4 random wfcs
     Checking if some PAW data can be deallocated... 

     total cpu time spent up to now is        1.5 secs

     Self-consistent Calculation

     iteration #  1     ecut=    90.00 Ry     beta= 0.70
     Davidson diagonalization with overlap
     ethr =  1.00E-02,  avg # of iterations =  4.7

     Threshold (ethr) on eigenvalues was too large:
     Diagonalizing with lowered threshold

     Davidson diagonalization with overlap
     ethr =  1.00E-04,  avg # of iterations =  1.7

     total cpu time spent up to now is        3.4 secs

     total energy              =   -1069.95730589 Ry
     Harris-Foulkes estimate   =   -1069.96950050 Ry
     estimated scf accuracy    <       0.01886279 Ry

     iteration #  2     ecut=    90.00 Ry     beta= 0.70
     Davidson diagonalization with overlap
     ethr =  9.93E-05,  avg # of iterations =  2.0

     total cpu time spent up to now is        4.3 secs

     total energy              =   -1069.96007584 Ry
     Harris-Foulkes estimate   =   -1069.96037705 Ry
     estimated scf accuracy    <       0.00055886 Ry

     iteration #  3     ecut=    90.00 Ry     beta= 0.70
     Davidson diagonalization with overlap
     ethr =  2.94E-06,  avg # of iterations =  3.0

     total cpu time spent up to now is        5.1 secs

     total energy              =   -1069.96013134 Ry
     Harris-Foulkes estimate   =   -1069.96014021 Ry
     estimated scf accuracy    <       0.00002316 Ry

     iteration #  4     ecut=    90.00 Ry     beta= 0.70
     Davidson diagonalization with overlap
     ethr =  1.22E-07,  avg # of iterations =  2.1

     total cpu time spent up to now is        5.9 secs

     total energy              =   -1069.96013641 Ry
     Harris-Foulkes estimate   =   -1069.96013604 Ry
     estimated scf accuracy    <       0.00000018 Ry

     iteration #  5     ecut=    90.00 Ry     beta= 0.70
     Davidson diagonalization with overlap
     ethr =  9.28E-10,  avg # of iterations =  2.3

     total cpu time spent up to now is        6.6 secs

     total energy              =   -1069.96013650 Ry
     Harris-Foulkes estimate   =   -1069.96013644 Ry
     estimated scf accuracy    <       0.00000002 Ry

     iteration #  6     ecut=    90.00 Ry     beta= 0.70
     Davidson diagonalization with overlap
     ethr =  1.01E-10,  avg # of iterations =  2.0

     total cpu time spent up to now is        7.3 secs

     End of self-consistent calculation

          k = 0.0000 0.0000 0.0000 (  1139 PWs)   bands (ev):

    -9.2617  -9.2617  -9.2617  -8.9173  -8.9173   9.4647  47.2626  47.2626
    47.2626  48.3053  53.8719  53.8719  53.8719  57.8167

          k =-0.1111 0.1111-0.1111 (  1155 PWs)   bands (ev):

    -9.2572  -9.2243  -9.2243  -8.9159  -8.9159   9.9596  42.3949  46.5317
    46.5317  48.1913  55.0841  55.0841  55.8535  57.1660

          k =-0.2222 0.2222-0.2222 (  1158 PWs)   bands (ev):

    -9.2494  -9.1721  -9.1721  -8.8680  -8.8680  11.4469  35.4895  45.1323
    45.1323  48.2254  53.9439  54.5901  54.5901  57.9070

          k =-0.3333 0.3333-0.3333 (  1149 PWs)   bands (ev):

    -9.2465  -9.1802  -9.1802  -8.7431  -8.7431  13.8827  29.1782  43.8567
    43.8567  48.1861  52.1699  52.7768  52.7768  61.4739

          k =-0.4444 0.4444-0.4444 (  1155 PWs)   bands (ev):

    -9.2478  -9.2035  -9.2035  -8.6419  -8.6419  16.8151  24.2545  43.1061
    43.1061  48.0816  51.3292  51.8918  51.8918  64.8136

          k = 0.0000 0.2222 0.0000 (  1155 PWs)   bands (ev):

    -9.3004  -9.1840  -9.1840  -8.9571  -8.8845  10.1244  44.3601  44.3601
    44.8805  46.9270  52.8469  56.3265  57.1193  57.1193

          k =-0.1111 0.3333-0.1111 (  1156 PWs)   bands (ev):

    -9.3118  -9.1200  -9.1111  -8.9692  -8.8320  11.2812  38.0011  42.5564
    44.1759  48.0017  50.3776  56.1108  58.2273  58.4808

          k =-0.2222 0.4444-0.2222 (  1139 PWs)   bands (ev):

    -9.2890  -9.1351  -9.1005  -8.8736  -8.7200  13.4088  31.5091  41.4575
    42.4015  46.9116  53.0392  55.7457  56.1015  56.8886

          k =-0.3333 0.5556-0.3333 (  1144 PWs)   bands (ev):

    -9.2643  -9.1649  -9.1274  -8.7502  -8.6315  16.2805  26.0556  40.5368
    41.2466  46.3445  54.1726  54.3382  55.2414  59.4419

          k = 0.5556-0.3333 0.5556 (  1155 PWs)   bands (ev):

    -9.2388  -9.1831  -9.1433  -8.6763  -8.6463  17.8193  23.8712  39.2562
    42.0349  46.6811  53.0217  53.2409  56.2976  63.7882

          k = 0.4444-0.2222 0.4444 (  1147 PWs)   bands (ev):

    -9.2147  -9.1897  -9.1319  -8.7665  -8.6874  15.2771  27.7285  38.8470
    43.7950  47.8375  52.1647  52.8104  57.8079  60.3944

          k = 0.3333-0.1111 0.3333 (  1147 PWs)   bands (ev):

    -9.2393  -9.1571  -9.1161  -8.9155  -8.7696  12.5954  33.6027  39.3477
    46.1898  49.6703  51.4643  53.0758  56.5072  58.1635

          k = 0.2222-0.0000 0.2222 (  1161 PWs)   bands (ev):

    -9.2613  -9.1757  -9.1647  -8.9505  -8.8615  10.7857  39.8181  41.1095
    47.7843  49.5324  53.0272  54.3163  54.3256  56.5771

          k = 0.0000 0.4444 0.0000 (  1154 PWs)   bands (ev):

    -9.3979  -9.0659  -8.9833  -8.9833  -8.8009  12.1067  39.7124  40.3763
    40.3763  45.0709  46.8117  61.1698  61.1698  61.3600

          k =-0.1111 0.5556-0.1111 (  1147 PWs)   bands (ev):

    -9.4124  -9.1245  -8.9267  -8.8738  -8.7089  13.9086  34.0927  38.6058
    39.0276  44.9108  47.7347  60.3771  60.6937  62.1808

          k =-0.2222 0.6667-0.2222 (  1151 PWs)   bands (ev):

    -9.3651  -9.1241  -8.9476  -8.8213  -8.6204  16.5438  28.6546  36.0173
    38.6986  44.5703  52.3860  58.3414  58.8797  62.0010

          k = 0.6667-0.2222 0.6667 (  1142 PWs)   bands (ev):

    -9.3103  -9.0650  -8.9745  -8.8150  -8.6411  18.9124  25.2033  34.0500
    39.4752  44.9184  56.8739  57.0756  57.9658  62.7763

          k = 0.5556-0.1111 0.5556 (  1142 PWs)   bands (ev):

    -9.2515  -9.0793  -8.9809  -8.7750  -8.7725  17.4306  27.3818  33.0599
    41.3131  45.9709  55.7815  56.0645  60.4342  61.0286

          k = 0.4444 0.0000 0.4444 (  1147 PWs)   bands (ev):

    -9.1911  -9.1694  -8.9634  -8.9569  -8.7317  14.6787  31.9007  33.8175
    43.9378  47.7566  53.7590  55.9025  55.9820  58.5544

          k = 0.0000 0.6667 0.0000 (  1150 PWs)   bands (ev):

    -9.5079  -9.2021  -8.7475  -8.7475  -8.7052  15.3814  32.9542  37.3588
    37.3588  43.7982  43.9289  64.6165  65.1591  65.1591

          k =-0.1111 0.7778-0.1111 (  1143 PWs)   bands (ev):

    -9.5010  -9.2309  -8.7462  -8.6899  -8.6129  17.7128  29.4249  34.2516
    36.7297  43.4835  46.4024  62.4451  64.3244  68.7488

          k = 0.7778-0.1111 0.7778 (  1146 PWs)   bands (ev):

    -9.4188  -9.1530  -8.7777  -8.7482  -8.6239  20.1629  26.8773  30.6608
    37.2466  43.7025  51.5534  60.6340  62.3760  66.9070

          k = 0.6667-0.0000 0.6667 (  1141 PWs)   bands (ev):

    -9.3313  -8.9660  -8.8976  -8.8278  -8.7318  19.8091  28.3109  28.3241
    38.8606  44.5246  57.4361  59.0024  60.0136  62.6391

          k = 0.0000 0.8889 0.0000 (  1154 PWs)   bands (ev):

    -9.5792  -9.2975  -8.6423  -8.5890  -8.5890  19.6601  26.6153  35.7556
    35.7556  42.8319  43.1756  64.4020  69.8530  69.8530

          k = 0.8889 0.0000 0.8889 (  1142 PWs)   bands (ev):

    -9.5359  -9.2773  -8.6618  -8.6133  -8.5865  21.1416  25.3125  33.0998
    35.9347  43.0673  45.9756  63.2680  67.6709  69.2470

          k =-0.2222 0.4444 0.0000 (  1151 PWs)   bands (ev):

    -9.3196  -9.1118  -8.9927  -8.9889  -8.7564  12.7612  35.5990  37.4598
    43.3555  48.6637  49.0385  55.7096  58.0701  60.7228

          k =-0.3333 0.5556-0.1111 (  1148 PWs)   bands (ev):

    -9.2706  -9.1516  -9.0040  -8.8609  -8.6864  15.1554  30.2180  35.9847
    40.8387  48.0989  52.1288  54.6881  58.5282  61.9294

          k = 0.5556-0.3333 0.7778 (  1146 PWs)   bands (ev):

    -9.2271  -9.1815  -8.9977  -8.7898  -8.6510  17.9590  25.5866  35.8109
    39.0750  47.6920  52.1585  58.7828  59.0483  60.3512

          k =-0.2222 0.6667 0.0000 (  1148 PWs)   bands (ev):

    -9.4096  -9.1676  -8.8944  -8.7524  -8.6658  15.9814  31.6717  34.7368
    37.1579  47.1204  47.1211  58.0490  64.0424  66.2576

          k = 0.6667-0.2222 0.8889 (  1151 PWs)   bands (ev):

    -9.3311  -9.1462  -8.9157  -8.7488  -8.6341  18.6540  27.9789  32.5456
    35.7814  47.1303  51.9597  56.0942  63.7025  64.9200

          k = 0.5556-0.1111 0.7778 (  1150 PWs)   bands (ev):

    -9.2632  -9.0729  -8.9252  -8.8398  -8.6534  19.8710  26.5696  31.0268
    36.3709  47.7958  54.4298  57.8776  59.3113  63.0789

          k = 0.4444 0.0000 0.6667 (  1153 PWs)   bands (ev):

    -9.2046  -9.1575  -8.9525  -8.7614  -8.7558  17.6479  29.3689  31.1016
    38.2544  48.9960  52.9309  55.2745  61.3568  63.0609

          k = 0.7778-0.1111 1.0000 (  1152 PWs)   bands (ev):

    -9.4691  -9.2415  -8.7474  -8.6573  -8.5896  20.0186  27.0287  33.2812
    34.1046  46.2362  46.3209  60.7449  65.7542  68.7961

          k = 0.6667-0.0000 0.8889 (  1152 PWs)   bands (ev):

    -9.3570  -9.1556  -8.8396  -8.7523  -8.5927  21.1703  26.8356  29.9283
    34.5246  46.7874  51.6641  58.4230  61.4205  66.6075

          k = 0.5556-0.1111 1.0000 (  1149 PWs)   bands (ev):

    -9.1819  -9.1610  -8.9958  -8.7820  -8.5912  20.7682  28.0842  29.6570
    33.0856  51.8435  52.0293  54.7388  58.7415  68.2703

     the Fermi energy is    46.9435 ev

!    total energy              =   -1069.96013651 Ry
     Harris-Foulkes estimate   =   -1069.96013651 Ry
     estimated scf accuracy    <          6.3E-10 Ry

     total all-electron energy =    -48515.570448 Ry

     The total energy is the sum of the following terms:

     one-electron contribution =       1.51316060 Ry
     hartree contribution      =      28.16162346 Ry
     xc contribution           =     -64.58858046 Ry
     ewald contribution        =    -242.33311988 Ry
     one-center paw contrib.   =    -792.71280170 Ry
     smearing contrib. (-TS)   =      -0.00041853 Ry

     convergence has been achieved in   6 iterations

     Forces acting on atoms (cartesian axes, Ry/au):

     atom    1 type  1   force =     0.00000000    0.00000000    0.00000000

     Total force =     0.000000     Total SCF correction =     0.000000


     Computing stress (Cartesian axis) and pressure

          total   stress  (Ry/bohr**3)                   (kbar)     P= 7230.24
   0.04915021   0.00000000   0.00000000       7230.24      0.00      0.00
   0.00000000   0.04915021  -0.00000000          0.00   7230.24     -0.00
   0.00000000  -0.00000000   0.04915021          0.00     -0.00   7230.24


     Writing output data file Fr.save/

     init_run     :      0.54s CPU      0.57s WALL (       1 calls)
     electrons    :      5.55s CPU      5.80s WALL (       1 calls)
     forces       :      0.05s CPU      0.05s WALL (       1 calls)
     stress       :      0.19s CPU      0.20s WALL (       1 calls)

     Called by init_run:
     wfcinit      :      0.21s CPU      0.21s WALL (       1 calls)
     potinit      :      0.12s CPU      0.13s WALL (       1 calls)
     hinit0       :      0.19s CPU      0.19s WALL (       1 calls)

     Called by electrons:
     c_bands      :      4.02s CPU      4.15s WALL (       7 calls)
     sum_band     :      0.73s CPU      0.76s WALL (       7 calls)
     v_of_rho     :      0.04s CPU      0.04s WALL (       7 calls)
     newd         :      0.08s CPU      0.09s WALL (       7 calls)
     PAW_pot      :      0.80s CPU      0.89s WALL (       7 calls)
     mix_rho      :      0.00s CPU      0.00s WALL (       7 calls)

     Called by c_bands:
     init_us_2    :      0.09s CPU      0.09s WALL (     595 calls)
     cegterg      :      3.85s CPU      3.98s WALL (     245 calls)

     Called by sum_band:
     sum_band:bec :      0.00s CPU      0.00s WALL (     245 calls)
     addusdens    :      0.07s CPU      0.07s WALL (       7 calls)

     Called by *egterg:
     h_psi        :      2.94s CPU      3.05s WALL (     901 calls)
     s_psi        :      0.09s CPU      0.09s WALL (     901 calls)
     g_psi        :      0.01s CPU      0.01s WALL (     621 calls)
     cdiaghg      :      0.39s CPU      0.40s WALL (     831 calls)

     Called by h_psi:
     h_psi:pot    :      2.93s CPU      3.03s WALL (     901 calls)
     h_psi:calbec :      0.14s CPU      0.14s WALL (     901 calls)
     vloc_psi     :      2.70s CPU      2.80s WALL (     901 calls)
     add_vuspsi   :      0.08s CPU      0.09s WALL (     901 calls)

     General routines
     calbec       :      0.21s CPU      0.22s WALL (    1321 calls)
     fft          :      0.03s CPU      0.03s WALL (     104 calls)
     ffts         :      0.00s CPU      0.00s WALL (       7 calls)
     fftw         :      3.06s CPU      3.17s WALL (   21468 calls)

     Parallel routines
     fft_scatt_xy :      0.22s CPU      0.23s WALL (   21579 calls)
     fft_scatt_yz :      1.13s CPU      1.16s WALL (   21579 calls)

     PWSCF        :     7.30s CPU         7.66s WALL


   This run was terminated on:  23: 2:24   7Apr2024            

=------------------------------------------------------------------------------=
   JOB DONE.
=------------------------------------------------------------------------------=
