
     Program PWSCF v.6.3MaX starts on  7Apr2024 at 22:51: 9 

     This program is part of the open-source Quantum ESPRESSO suite
     for quantum simulation of materials; please cite
         "P. Giannozzi et al., J. Phys.:Condens. Matter 21 395502 (2009);
         "P. Giannozzi et al., J. Phys.:Condens. Matter 29 465901 (2017);
          URL http://www.quantum-espresso.org", 
     in publications or presentations arising from this work. More details at
     http://www.quantum-espresso.org/quote

     Parallel version (MPI), running on     5 processors

     MPI processes distributed on     1 nodes
     R & G space division:  proc/nbgrp/npool/nimage =       5
     Waiting for input...
     Reading input from standard input

     Current dimensions of program PWSCF are:
     Max number of different atomic species (ntypx) = 10
     Max number of k-points (npk) =  40000
     Max angular momentum in pseudopotentials (lmaxx) =  3

     Subspace diagonalization in iterative solution of the eigenvalue problem:
     a serial algorithm will be used


     Parallelization info
     --------------------
     sticks:   dense  smooth     PW     G-vecs:    dense   smooth      PW
     Min          95      95     30                 1375     1375     248
     Max          95      95     31                 1376     1376     251
     Sum         475     475    151                 6879     6879    1243



     bravais-lattice index     =            2
     lattice parameter (alat)  =       6.8300  a.u.
     unit-cell volume          =      79.6530 (a.u.)^3
     number of atoms/cell      =            1
     number of atomic types    =            1
     number of electrons       =        19.00
     number of Kohn-Sham states=           14
     kinetic-energy cutoff     =      75.0000  Ry
     charge density cutoff     =     300.0000  Ry
     convergence threshold     =      1.0E-08
     mixing beta               =       0.7000
     number of iterations used =            8  plain     mixing
     Exchange-correlation      = LDA ( 1  1  0  0 0 0)

     celldm(1)=   6.830000  celldm(2)=   0.000000  celldm(3)=   0.000000
     celldm(4)=   0.000000  celldm(5)=   0.000000  celldm(6)=   0.000000

     crystal axes: (cart. coord. in units of alat)
               a(1) = (  -0.500000   0.000000   0.500000 )  
               a(2) = (   0.000000   0.500000   0.500000 )  
               a(3) = (  -0.500000   0.500000   0.000000 )  

     reciprocal axes: (cart. coord. in units 2 pi/alat)
               b(1) = ( -1.000000 -1.000000  1.000000 )  
               b(2) = (  1.000000  1.000000  1.000000 )  
               b(3) = ( -1.000000  1.000000 -1.000000 )  


     PseudoPot. # 1 for Fr read from file:
     /home/lorenzo/pseudos/Fr/Fr.pz-spdn-rrkjus_psl.1.0.0.UPF
     MD5 check sum: 5665a43a3d1ea02b0b7dc7a0ae9ace04
     Pseudo is Ultrasoft + core correction, Zval = 19.0
     Generated using "atomic" code by A. Dal Corso v.6.2.2
     Using radial grid of 1287 points,  6 beta functions with: 
                l(1) =   0
                l(2) =   0
                l(3) =   1
                l(4) =   1
                l(5) =   2
                l(6) =   2
     Q(r) pseudized with 0 coefficients 


     atomic species   valence    mass     pseudopotential
        Fr            19.00   223.00000     Fr( 1.00)

     48 Sym. Ops., with inversion, found



   Cartesian axes

     site n.     atom                  positions (alat units)
         1           Fr  tau(   1) = (   0.0000000   0.0000000   0.0000000  )

     number of k points=    10  gaussian smearing, width (Ry)=  0.0100
                       cart. coord. in units 2pi/alat
        k(    1) = (   0.0000000   0.0000000   0.0000000), wk =   0.0160000
        k(    2) = (  -0.2000000   0.2000000  -0.2000000), wk =   0.1280000
        k(    3) = (  -0.4000000   0.4000000  -0.4000000), wk =   0.1280000
        k(    4) = (   0.0000000   0.4000000   0.0000000), wk =   0.0960000
        k(    5) = (  -0.2000000   0.6000000  -0.2000000), wk =   0.3840000
        k(    6) = (   0.6000000  -0.2000000   0.6000000), wk =   0.3840000
        k(    7) = (   0.4000000   0.0000000   0.4000000), wk =   0.1920000
        k(    8) = (   0.0000000   0.8000000   0.0000000), wk =   0.0960000
        k(    9) = (   0.8000000   0.0000000   0.8000000), wk =   0.1920000
        k(   10) = (   0.6000000  -0.2000000   1.0000000), wk =   0.3840000

     Dense  grid:     6879 G-vectors     FFT dimensions: (  27,  27,  27)

     Estimated max dynamical RAM per process >       7.06 MB

     Estimated total dynamical RAM >      35.30 MB

     Initial potential from superposition of free atoms

     starting charge   18.97647, renormalised to   19.00000
     Starting wfcs are   10 randomized atomic wfcs +    4 random wfcs

     total cpu time spent up to now is        1.2 secs

     Self-consistent Calculation

     iteration #  1     ecut=    75.00 Ry     beta= 0.70
     Davidson diagonalization with overlap
     ethr =  1.00E-02,  avg # of iterations =  4.7

     Threshold (ethr) on eigenvalues was too large:
     Diagonalizing with lowered threshold

     Davidson diagonalization with overlap
     ethr =  9.07E-05,  avg # of iterations =  1.8

     total cpu time spent up to now is        1.8 secs

     total energy              =    -282.51461783 Ry
     Harris-Foulkes estimate   =    -282.52624088 Ry
     estimated scf accuracy    <       0.01687418 Ry

     iteration #  2     ecut=    75.00 Ry     beta= 0.70
     Davidson diagonalization with overlap
     ethr =  8.88E-05,  avg # of iterations =  2.0

     total cpu time spent up to now is        2.0 secs

     total energy              =    -282.51808143 Ry
     Harris-Foulkes estimate   =    -282.51867468 Ry
     estimated scf accuracy    <       0.00079649 Ry

     iteration #  3     ecut=    75.00 Ry     beta= 0.70
     Davidson diagonalization with overlap
     ethr =  4.19E-06,  avg # of iterations =  2.4

     total cpu time spent up to now is        2.1 secs

     total energy              =    -282.51823746 Ry
     Harris-Foulkes estimate   =    -282.51824892 Ry
     estimated scf accuracy    <       0.00002152 Ry

     iteration #  4     ecut=    75.00 Ry     beta= 0.70
     Davidson diagonalization with overlap
     ethr =  1.13E-07,  avg # of iterations =  2.0

     total cpu time spent up to now is        2.3 secs

     total energy              =    -282.51823959 Ry
     Harris-Foulkes estimate   =    -282.51823975 Ry
     estimated scf accuracy    <       0.00000032 Ry

     iteration #  5     ecut=    75.00 Ry     beta= 0.70
     Davidson diagonalization with overlap
     ethr =  1.69E-09,  avg # of iterations =  2.2

     total cpu time spent up to now is        2.5 secs

     total energy              =    -282.51823966 Ry
     Harris-Foulkes estimate   =    -282.51823967 Ry
     estimated scf accuracy    <       0.00000001 Ry

     iteration #  6     ecut=    75.00 Ry     beta= 0.70
     Davidson diagonalization with overlap
     ethr =  6.86E-11,  avg # of iterations =  2.0

     total cpu time spent up to now is        2.6 secs

     End of self-consistent calculation

          k = 0.0000 0.0000 0.0000 (   893 PWs)   bands (ev):

    -9.4430  -9.4430  -9.4430  -9.0977  -9.0977   9.1110  46.9005  46.9005
    46.9005  48.1085  53.6866  53.6866  53.6866  57.5033

          k =-0.2000 0.2000-0.2000 (   887 PWs)   bands (ev):

    -9.4302  -9.3587  -9.3587  -9.0655  -9.0655  10.7151  36.5400  45.0852
    45.0852  48.0004  54.1258  54.8210  54.8210  57.0267

          k =-0.4000 0.4000-0.4000 (   869 PWs)   bands (ev):

    -9.4278  -9.3773  -9.3773  -8.8486  -8.8486  15.3011  25.6695  42.9932
    42.9932  47.8911  51.3053  51.9324  51.9324  63.3368

          k = 0.0000 0.4000 0.0000 (   869 PWs)   bands (ev):

    -9.5570  -9.2210  -9.2076  -9.2076  -8.9994  11.2489  40.5489  40.8123
    40.8123  45.2296  47.5166  60.0160  60.1830  60.1830

          k =-0.2000 0.6000-0.2000 (   876 PWs)   bands (ev):

    -9.5417  -9.3038  -9.1560  -9.0258  -8.8239  14.9062  29.8892  37.5054
    38.8639  44.7130  51.3783  57.9954  58.3958  60.3335

          k = 0.6000-0.2000 0.6000 (   857 PWs)   bands (ev):

    -9.4530  -9.2640  -9.1977  -8.9490  -8.8602  18.0348  24.9086  34.2785
    40.3094  45.3600  55.4527  55.4783  60.5651  62.2256

          k = 0.4000 0.0000 0.4000 (   871 PWs)   bands (ev):

    -9.3807  -9.3532  -9.1897  -9.1457  -8.9157  13.3546  32.9013  34.8964
    44.7140  48.4185  52.4901  54.7334  55.2702  57.7578

          k = 0.0000 0.8000 0.0000 (   882 PWs)   bands (ev):

    -9.7404  -9.4525  -8.8394  -8.8115  -8.8115  17.5126  28.6558  35.9114
    35.9114  42.8663  43.1895  64.1899  67.6662  67.6662

          k = 0.8000 0.0000 0.8000 (   870 PWs)   bands (ev):

    -9.6299  -9.3731  -8.8961  -8.8823  -8.8035  20.6590  25.9210  30.0690
    36.4797  43.2541  50.0400  61.3070  64.2636  66.2110

          k = 0.6000-0.2000 1.0000 (   878 PWs)   bands (ev):

    -9.4185  -9.3509  -9.1357  -8.9243  -8.8169  18.9600  28.2340  30.4913
    34.3473  50.4693  50.8457  54.4782  61.6108  65.6836

     the Fermi energy is    45.3606 ev

!    total energy              =    -282.51823967 Ry
     Harris-Foulkes estimate   =    -282.51823967 Ry
     estimated scf accuracy    <          2.5E-10 Ry

     The total energy is the sum of the following terms:

     one-electron contribution =      -4.54811645 Ry
     hartree contribution      =      28.27296020 Ry
     xc contribution           =     -63.90876104 Ry
     ewald contribution        =    -242.33311988 Ry
     smearing contrib. (-TS)   =      -0.00120250 Ry

     convergence has been achieved in   6 iterations

     Forces acting on atoms (cartesian axes, Ry/au):

     atom    1 type  1   force =     0.00000000    0.00000000    0.00000000

     Total force =     0.000000     Total SCF correction =     0.000000


     Computing stress (Cartesian axis) and pressure

          total   stress  (Ry/bohr**3)                   (kbar)     P= 7050.56
   0.04792871  -0.00000000   0.00000000       7050.56     -0.00      0.00
  -0.00000000   0.04792871  -0.00000000         -0.00   7050.56     -0.00
   0.00000000  -0.00000000   0.04792871          0.00     -0.00   7050.56


     Writing output data file Fr.save/

     init_run     :      0.28s CPU      0.29s WALL (       1 calls)
     electrons    :      1.30s CPU      1.36s WALL (       1 calls)
     forces       :      0.03s CPU      0.03s WALL (       1 calls)
     stress       :      0.10s CPU      0.10s WALL (       1 calls)

     Called by init_run:
     wfcinit      :      0.06s CPU      0.07s WALL (       1 calls)
     potinit      :      0.01s CPU      0.01s WALL (       1 calls)
     hinit0       :      0.20s CPU      0.20s WALL (       1 calls)

     Called by electrons:
     c_bands      :      1.01s CPU      1.06s WALL (       7 calls)
     sum_band     :      0.23s CPU      0.24s WALL (       7 calls)
     v_of_rho     :      0.01s CPU      0.01s WALL (       7 calls)
     newd         :      0.06s CPU      0.06s WALL (       7 calls)
     mix_rho      :      0.00s CPU      0.00s WALL (       7 calls)

     Called by c_bands:
     init_us_2    :      0.02s CPU      0.02s WALL (     170 calls)
     cegterg      :      0.98s CPU      1.03s WALL (      70 calls)

     Called by sum_band:
     sum_band:bec :      0.00s CPU      0.00s WALL (      70 calls)
     addusdens    :      0.05s CPU      0.06s WALL (       7 calls)

     Called by *egterg:
     h_psi        :      0.74s CPU      0.78s WALL (     251 calls)
     s_psi        :      0.02s CPU      0.02s WALL (     251 calls)
     g_psi        :      0.00s CPU      0.00s WALL (     171 calls)
     cdiaghg      :      0.12s CPU      0.12s WALL (     231 calls)

     Called by h_psi:
     h_psi:pot    :      0.74s CPU      0.77s WALL (     251 calls)
     h_psi:calbec :      0.03s CPU      0.03s WALL (     251 calls)
     vloc_psi     :      0.69s CPU      0.71s WALL (     251 calls)
     add_vuspsi   :      0.02s CPU      0.02s WALL (     251 calls)

     General routines
     calbec       :      0.05s CPU      0.06s WALL (     371 calls)
     fft          :      0.01s CPU      0.01s WALL (      38 calls)
     ffts         :      0.00s CPU      0.00s WALL (       7 calls)
     fftw         :      0.77s CPU      0.81s WALL (    6194 calls)

     Parallel routines
     fft_scatt_xy :      0.06s CPU      0.06s WALL (    6239 calls)
     fft_scatt_yz :      0.29s CPU      0.30s WALL (    6239 calls)

     PWSCF        :     2.67s CPU         2.79s WALL


   This run was terminated on:  22:51:12   7Apr2024            

=------------------------------------------------------------------------------=
   JOB DONE.
=------------------------------------------------------------------------------=
