
     Program PWSCF v.6.3MaX starts on  7Apr2024 at 22:23:34 

     This program is part of the open-source Quantum ESPRESSO suite
     for quantum simulation of materials; please cite
         "P. Giannozzi et al., J. Phys.:Condens. Matter 21 395502 (2009);
         "P. Giannozzi et al., J. Phys.:Condens. Matter 29 465901 (2017);
          URL http://www.quantum-espresso.org", 
     in publications or presentations arising from this work. More details at
     http://www.quantum-espresso.org/quote

     Parallel version (MPI), running on     5 processors

     MPI processes distributed on     1 nodes
     R & G space division:  proc/nbgrp/npool/nimage =       5
     Waiting for input...
     Reading input from standard input

     Current dimensions of program PWSCF are:
     Max number of different atomic species (ntypx) = 10
     Max number of k-points (npk) =  40000
     Max angular momentum in pseudopotentials (lmaxx) =  3

     Subspace diagonalization in iterative solution of the eigenvalue problem:
     a serial algorithm will be used


     Parallelization info
     --------------------
     sticks:   dense  smooth     PW     G-vecs:    dense   smooth      PW
     Min          24      24      8                  187      187      36
     Max          25      25      9                  191      191      37
     Sum         121     121     43                  941      941     181



     bravais-lattice index     =            2
     lattice parameter (alat)  =       6.8300  a.u.
     unit-cell volume          =      79.6530 (a.u.)^3
     number of atoms/cell      =            1
     number of atomic types    =            1
     number of electrons       =        19.00
     number of Kohn-Sham states=           14
     kinetic-energy cutoff     =      20.0000  Ry
     charge density cutoff     =      80.0000  Ry
     convergence threshold     =      1.0E-08
     mixing beta               =       0.7000
     number of iterations used =            8  plain     mixing
     Exchange-correlation      = LDA ( 1  1  0  0 0 0)

     celldm(1)=   6.830000  celldm(2)=   0.000000  celldm(3)=   0.000000
     celldm(4)=   0.000000  celldm(5)=   0.000000  celldm(6)=   0.000000

     crystal axes: (cart. coord. in units of alat)
               a(1) = (  -0.500000   0.000000   0.500000 )  
               a(2) = (   0.000000   0.500000   0.500000 )  
               a(3) = (  -0.500000   0.500000   0.000000 )  

     reciprocal axes: (cart. coord. in units 2 pi/alat)
               b(1) = ( -1.000000 -1.000000  1.000000 )  
               b(2) = (  1.000000  1.000000  1.000000 )  
               b(3) = ( -1.000000  1.000000 -1.000000 )  


     PseudoPot. # 1 for Fr read from file:
     /home/lorenzo/pseudos/Fr/Fr.pz-spdn-rrkjus_psl.1.0.0.UPF
     MD5 check sum: 5665a43a3d1ea02b0b7dc7a0ae9ace04
     Pseudo is Ultrasoft + core correction, Zval = 19.0
     Generated using "atomic" code by A. Dal Corso v.6.2.2
     Using radial grid of 1287 points,  6 beta functions with: 
                l(1) =   0
                l(2) =   0
                l(3) =   1
                l(4) =   1
                l(5) =   2
                l(6) =   2
     Q(r) pseudized with 0 coefficients 


     atomic species   valence    mass     pseudopotential
        Fr            19.00   223.00000     Fr( 1.00)

     48 Sym. Ops., with inversion, found



   Cartesian axes

     site n.     atom                  positions (alat units)
         1           Fr  tau(   1) = (   0.0000000   0.0000000   0.0000000  )

     number of k points=     3  gaussian smearing, width (Ry)=  0.0100
                       cart. coord. in units 2pi/alat
        k(    1) = (   0.0000000   0.0000000   0.0000000), wk =   0.2500000
        k(    2) = (   0.5000000  -0.5000000   0.5000000), wk =   1.0000000
        k(    3) = (   0.0000000  -1.0000000   0.0000000), wk =   0.7500000

     Dense  grid:      941 G-vectors     FFT dimensions: (  15,  15,  15)

     Estimated max dynamical RAM per process >       1.51 MB

     Estimated total dynamical RAM >       7.55 MB

     Check: negative/imaginary core charge=   -0.000219    0.000000

     Initial potential from superposition of free atoms

     starting charge   18.97647, renormalised to   19.00000
     Starting wfcs are   10 randomized atomic wfcs +    4 random wfcs

     total cpu time spent up to now is        1.2 secs

     Self-consistent Calculation

     iteration #  1     ecut=    20.00 Ry     beta= 0.70
     Davidson diagonalization with overlap
     ethr =  1.00E-02,  avg # of iterations =  4.3

     total cpu time spent up to now is        1.3 secs

     total energy              =    -271.44158215 Ry
     Harris-Foulkes estimate   =    -273.30403440 Ry
     estimated scf accuracy    <       2.38881538 Ry

     iteration #  2     ecut=    20.00 Ry     beta= 0.70
     Davidson diagonalization with overlap
     ethr =  1.00E-02,  avg # of iterations =  2.0

     total cpu time spent up to now is        1.3 secs

     total energy              =    -271.87953527 Ry
     Harris-Foulkes estimate   =    -272.01226472 Ry
     estimated scf accuracy    <       0.22021092 Ry

     iteration #  3     ecut=    20.00 Ry     beta= 0.70
     Davidson diagonalization with overlap
     ethr =  1.16E-03,  avg # of iterations =  2.0

     total cpu time spent up to now is        1.3 secs

     total energy              =    -271.91045889 Ry
     Harris-Foulkes estimate   =    -271.91950050 Ry
     estimated scf accuracy    <       0.01400428 Ry

     iteration #  4     ecut=    20.00 Ry     beta= 0.70
     Davidson diagonalization with overlap
     ethr =  7.37E-05,  avg # of iterations =  2.0

     total cpu time spent up to now is        1.3 secs

     total energy              =    -271.91168628 Ry
     Harris-Foulkes estimate   =    -271.91171261 Ry
     estimated scf accuracy    <       0.00004416 Ry

     iteration #  5     ecut=    20.00 Ry     beta= 0.70
     Davidson diagonalization with overlap
     ethr =  2.32E-07,  avg # of iterations =  2.7

     total cpu time spent up to now is        1.3 secs

     total energy              =    -271.91169964 Ry
     Harris-Foulkes estimate   =    -271.91169986 Ry
     estimated scf accuracy    <       0.00000086 Ry

     iteration #  6     ecut=    20.00 Ry     beta= 0.70
     Davidson diagonalization with overlap
     ethr =  4.52E-09,  avg # of iterations =  2.0

     total cpu time spent up to now is        1.3 secs

     total energy              =    -271.91169971 Ry
     Harris-Foulkes estimate   =    -271.91169972 Ry
     estimated scf accuracy    <       0.00000002 Ry

     iteration #  7     ecut=    20.00 Ry     beta= 0.70
     Davidson diagonalization with overlap
     ethr =  9.49E-11,  avg # of iterations =  2.0

     total cpu time spent up to now is        1.4 secs

     End of self-consistent calculation

          k = 0.0000 0.0000 0.0000 (   113 PWs)   bands (ev):

    -2.8714  -2.8714  -2.8714  -2.6683  -2.6683   8.4388  45.5558  45.5558
    45.5558  49.0621  56.5200  59.1385  59.1385  59.1385

          k = 0.5000-0.5000 0.5000 (   120 PWs)   bands (ev):

    -6.3895  -6.3895  -3.7483  -2.8204  -2.8204  16.0744  23.1501  41.5729
    41.5729  49.0315  53.9795  56.6628  56.6628  65.4075

          k = 0.0000-1.0000 0.0000 (   116 PWs)   bands (ev):

    -9.1739  -4.4751  -2.0021  -1.7122  -1.7122  18.9356  24.6246  34.8072
    34.8072  46.0363  46.8268  65.1223  70.4558  70.7668

     the Fermi energy is    46.7853 ev

!    total energy              =    -271.91169972 Ry
     Harris-Foulkes estimate   =    -271.91169972 Ry
     estimated scf accuracy    <          1.1E-09 Ry

     The total energy is the sum of the following terms:

     one-electron contribution =      10.25378868 Ry
     hartree contribution      =      22.05230827 Ry
     xc contribution           =     -61.88274842 Ry
     ewald contribution        =    -242.33311997 Ry
     smearing contrib. (-TS)   =      -0.00192828 Ry

     convergence has been achieved in   7 iterations

     Forces acting on atoms (cartesian axes, Ry/au):

     atom    1 type  1   force =     0.00000000    0.00000000    0.00000000

     Total force =     0.000000     Total SCF correction =     0.000000


     Computing stress (Cartesian axis) and pressure

          total   stress  (Ry/bohr**3)                   (kbar)     P=********
  -0.20152366  -0.00000000  -0.00000000     -29645.15     -0.00     -0.00
  -0.00000000  -0.20152366   0.00000000         -0.00 -29645.15      0.00
  -0.00000000   0.00000000  -0.20152366         -0.00      0.00 -29645.15


     Writing output data file Fr.save/

     init_run     :      0.09s CPU      0.09s WALL (       1 calls)
     electrons    :      0.11s CPU      0.13s WALL (       1 calls)
     forces       :      0.00s CPU      0.00s WALL (       1 calls)
     stress       :      0.01s CPU      0.01s WALL (       1 calls)

     Called by init_run:
     wfcinit      :      0.00s CPU      0.00s WALL (       1 calls)
     potinit      :      0.00s CPU      0.00s WALL (       1 calls)
     hinit0       :      0.08s CPU      0.08s WALL (       1 calls)

     Called by electrons:
     c_bands      :      0.08s CPU      0.09s WALL (       7 calls)
     sum_band     :      0.02s CPU      0.02s WALL (       7 calls)
     v_of_rho     :      0.00s CPU      0.00s WALL (       8 calls)
     newd         :      0.01s CPU      0.01s WALL (       8 calls)
     mix_rho      :      0.00s CPU      0.00s WALL (       7 calls)

     Called by c_bands:
     init_us_2    :      0.00s CPU      0.00s WALL (      51 calls)
     cegterg      :      0.08s CPU      0.09s WALL (      21 calls)

     Called by sum_band:
     sum_band:bec :      0.00s CPU      0.00s WALL (      21 calls)
     addusdens    :      0.01s CPU      0.01s WALL (       7 calls)

     Called by *egterg:
     h_psi        :      0.04s CPU      0.05s WALL (      75 calls)
     s_psi        :      0.00s CPU      0.00s WALL (      75 calls)
     g_psi        :      0.00s CPU      0.00s WALL (      51 calls)
     cdiaghg      :      0.03s CPU      0.03s WALL (      72 calls)

     Called by h_psi:
     h_psi:pot    :      0.04s CPU      0.05s WALL (      75 calls)
     h_psi:calbec :      0.00s CPU      0.00s WALL (      75 calls)
     vloc_psi     :      0.04s CPU      0.04s WALL (      75 calls)
     add_vuspsi   :      0.00s CPU      0.00s WALL (      75 calls)

     General routines
     calbec       :      0.00s CPU      0.00s WALL (     111 calls)
     fft          :      0.00s CPU      0.00s WALL (      41 calls)
     ffts         :      0.00s CPU      0.00s WALL (       7 calls)
     fftw         :      0.04s CPU      0.05s WALL (    1874 calls)

     Parallel routines
     fft_scatt_xy :      0.00s CPU      0.01s WALL (    1922 calls)
     fft_scatt_yz :      0.02s CPU      0.02s WALL (    1922 calls)

     PWSCF        :     1.35s CPU         1.42s WALL


   This run was terminated on:  22:23:35   7Apr2024            

=------------------------------------------------------------------------------=
   JOB DONE.
=------------------------------------------------------------------------------=
