
     Program PWSCF v.6.3MaX starts on  7Apr2024 at 22:27:13 

     This program is part of the open-source Quantum ESPRESSO suite
     for quantum simulation of materials; please cite
         "P. Giannozzi et al., J. Phys.:Condens. Matter 21 395502 (2009);
         "P. Giannozzi et al., J. Phys.:Condens. Matter 29 465901 (2017);
          URL http://www.quantum-espresso.org", 
     in publications or presentations arising from this work. More details at
     http://www.quantum-espresso.org/quote

     Parallel version (MPI), running on     5 processors

     MPI processes distributed on     1 nodes
     R & G space division:  proc/nbgrp/npool/nimage =       5
     Waiting for input...
     Reading input from standard input

     Current dimensions of program PWSCF are:
     Max number of different atomic species (ntypx) = 10
     Max number of k-points (npk) =  40000
     Max angular momentum in pseudopotentials (lmaxx) =  3

     Subspace diagonalization in iterative solution of the eigenvalue problem:
     a serial algorithm will be used


     Parallelization info
     --------------------
     sticks:   dense  smooth     PW     G-vecs:    dense   smooth      PW
     Min          39      39     14                  361      361      82
     Max          40      40     15                  363      363      83
     Sum         199     199     73                 1807     1807     411



     bravais-lattice index     =            2
     lattice parameter (alat)  =       6.8300  a.u.
     unit-cell volume          =      79.6530 (a.u.)^3
     number of atoms/cell      =            1
     number of atomic types    =            1
     number of electrons       =        19.00
     number of Kohn-Sham states=           14
     kinetic-energy cutoff     =      30.0000  Ry
     charge density cutoff     =     120.0000  Ry
     convergence threshold     =      1.0E-08
     mixing beta               =       0.7000
     number of iterations used =            8  plain     mixing
     Exchange-correlation      = LDA ( 1  1  0  0 0 0)

     celldm(1)=   6.830000  celldm(2)=   0.000000  celldm(3)=   0.000000
     celldm(4)=   0.000000  celldm(5)=   0.000000  celldm(6)=   0.000000

     crystal axes: (cart. coord. in units of alat)
               a(1) = (  -0.500000   0.000000   0.500000 )  
               a(2) = (   0.000000   0.500000   0.500000 )  
               a(3) = (  -0.500000   0.500000   0.000000 )  

     reciprocal axes: (cart. coord. in units 2 pi/alat)
               b(1) = ( -1.000000 -1.000000  1.000000 )  
               b(2) = (  1.000000  1.000000  1.000000 )  
               b(3) = ( -1.000000  1.000000 -1.000000 )  


     PseudoPot. # 1 for Fr read from file:
     /home/lorenzo/pseudos/Fr/Fr.pz-spdn-rrkjus_psl.1.0.0.UPF
     MD5 check sum: 5665a43a3d1ea02b0b7dc7a0ae9ace04
     Pseudo is Ultrasoft + core correction, Zval = 19.0
     Generated using "atomic" code by A. Dal Corso v.6.2.2
     Using radial grid of 1287 points,  6 beta functions with: 
                l(1) =   0
                l(2) =   0
                l(3) =   1
                l(4) =   1
                l(5) =   2
                l(6) =   2
     Q(r) pseudized with 0 coefficients 


     atomic species   valence    mass     pseudopotential
        Fr            19.00   223.00000     Fr( 1.00)

     48 Sym. Ops., with inversion, found



   Cartesian axes

     site n.     atom                  positions (alat units)
         1           Fr  tau(   1) = (   0.0000000   0.0000000   0.0000000  )

     number of k points=    56  gaussian smearing, width (Ry)=  0.0100
                       cart. coord. in units 2pi/alat
        k(    1) = (   0.0000000   0.0000000   0.0000000), wk =   0.0015026
        k(    2) = (  -0.0909091   0.0909091  -0.0909091), wk =   0.0120210
        k(    3) = (  -0.1818182   0.1818182  -0.1818182), wk =   0.0120210
        k(    4) = (  -0.2727273   0.2727273  -0.2727273), wk =   0.0120210
        k(    5) = (  -0.3636364   0.3636364  -0.3636364), wk =   0.0120210
        k(    6) = (  -0.4545455   0.4545455  -0.4545455), wk =   0.0120210
        k(    7) = (   0.0000000   0.1818182   0.0000000), wk =   0.0090158
        k(    8) = (  -0.0909091   0.2727273  -0.0909091), wk =   0.0360631
        k(    9) = (  -0.1818182   0.3636364  -0.1818182), wk =   0.0360631
        k(   10) = (  -0.2727273   0.4545455  -0.2727273), wk =   0.0360631
        k(   11) = (  -0.3636364   0.5454545  -0.3636364), wk =   0.0360631
        k(   12) = (   0.5454545  -0.3636364   0.5454545), wk =   0.0360631
        k(   13) = (   0.4545455  -0.2727273   0.4545455), wk =   0.0360631
        k(   14) = (   0.3636364  -0.1818182   0.3636364), wk =   0.0360631
        k(   15) = (   0.2727273  -0.0909091   0.2727273), wk =   0.0360631
        k(   16) = (   0.1818182  -0.0000000   0.1818182), wk =   0.0180316
        k(   17) = (   0.0000000   0.3636364   0.0000000), wk =   0.0090158
        k(   18) = (  -0.0909091   0.4545455  -0.0909091), wk =   0.0360631
        k(   19) = (  -0.1818182   0.5454545  -0.1818182), wk =   0.0360631
        k(   20) = (  -0.2727273   0.6363636  -0.2727273), wk =   0.0360631
        k(   21) = (   0.6363636  -0.2727273   0.6363636), wk =   0.0360631
        k(   22) = (   0.5454545  -0.1818182   0.5454545), wk =   0.0360631
        k(   23) = (   0.4545455  -0.0909091   0.4545455), wk =   0.0360631
        k(   24) = (   0.3636364   0.0000000   0.3636364), wk =   0.0180316
        k(   25) = (   0.0000000   0.5454545   0.0000000), wk =   0.0090158
        k(   26) = (  -0.0909091   0.6363636  -0.0909091), wk =   0.0360631
        k(   27) = (  -0.1818182   0.7272727  -0.1818182), wk =   0.0360631
        k(   28) = (   0.7272727  -0.1818182   0.7272727), wk =   0.0360631
        k(   29) = (   0.6363636  -0.0909091   0.6363636), wk =   0.0360631
        k(   30) = (   0.5454545   0.0000000   0.5454545), wk =   0.0180316
        k(   31) = (   0.0000000   0.7272727   0.0000000), wk =   0.0090158
        k(   32) = (  -0.0909091   0.8181818  -0.0909091), wk =   0.0360631
        k(   33) = (   0.8181818  -0.0909091   0.8181818), wk =   0.0360631
        k(   34) = (   0.7272727   0.0000000   0.7272727), wk =   0.0180316
        k(   35) = (   0.0000000   0.9090909   0.0000000), wk =   0.0090158
        k(   36) = (   0.9090909  -0.0000000   0.9090909), wk =   0.0180316
        k(   37) = (  -0.1818182   0.3636364   0.0000000), wk =   0.0360631
        k(   38) = (  -0.2727273   0.4545455  -0.0909091), wk =   0.0721262
        k(   39) = (  -0.3636364   0.5454545  -0.1818182), wk =   0.0721262
        k(   40) = (   0.5454545  -0.3636364   0.7272727), wk =   0.0721262
        k(   41) = (  -0.1818182   0.5454545   0.0000000), wk =   0.0360631
        k(   42) = (  -0.2727273   0.6363636  -0.0909091), wk =   0.0721262
        k(   43) = (   0.6363636  -0.2727273   0.8181818), wk =   0.0721262
        k(   44) = (   0.5454545  -0.1818182   0.7272727), wk =   0.0721262
        k(   45) = (   0.4545455  -0.0909091   0.6363636), wk =   0.0721262
        k(   46) = (   0.3636364   0.0000000   0.5454545), wk =   0.0360631
        k(   47) = (  -0.1818182   0.7272727   0.0000000), wk =   0.0360631
        k(   48) = (   0.7272727  -0.1818182   0.9090909), wk =   0.0721262
        k(   49) = (   0.6363636  -0.0909091   0.8181818), wk =   0.0721262
        k(   50) = (   0.5454545   0.0000000   0.7272727), wk =   0.0360631
        k(   51) = (   0.8181818  -0.0909091   1.0000000), wk =   0.0360631
        k(   52) = (   0.7272727   0.0000000   0.9090909), wk =   0.0360631
        k(   53) = (   0.6363636  -0.2727273   1.0000000), wk =   0.0360631
        k(   54) = (   0.5454545  -0.1818182   0.9090909), wk =   0.0721262
        k(   55) = (   0.6363636  -0.0909091   1.0000000), wk =   0.0360631
        k(   56) = (   0.5454545   0.0000000   0.9090909), wk =   0.0360631

     Dense  grid:     1807 G-vectors     FFT dimensions: (  18,  18,  18)

     Estimated max dynamical RAM per process >       2.86 MB

     Estimated total dynamical RAM >      14.29 MB

     Check: negative/imaginary core charge=   -0.000065    0.000000

     Initial potential from superposition of free atoms

     starting charge   18.97647, renormalised to   19.00000
     Starting wfcs are   10 randomized atomic wfcs +    4 random wfcs

     total cpu time spent up to now is        1.1 secs

     Self-consistent Calculation

     iteration #  1     ecut=    30.00 Ry     beta= 0.70
     Davidson diagonalization with overlap
     ethr =  1.00E-02,  avg # of iterations =  4.8

     total cpu time spent up to now is        1.8 secs

     total energy              =    -280.66228324 Ry
     Harris-Foulkes estimate   =    -280.83550760 Ry
     estimated scf accuracy    <       0.21890716 Ry

     iteration #  2     ecut=    30.00 Ry     beta= 0.70
     Davidson diagonalization with overlap
     ethr =  1.15E-03,  avg # of iterations =  2.0

     total cpu time spent up to now is        2.2 secs

     total energy              =    -280.71422052 Ry
     Harris-Foulkes estimate   =    -280.72319996 Ry
     estimated scf accuracy    <       0.01352724 Ry

     iteration #  3     ecut=    30.00 Ry     beta= 0.70
     Davidson diagonalization with overlap
     ethr =  7.12E-05,  avg # of iterations =  2.0

     total cpu time spent up to now is        2.5 secs

     total energy              =    -280.71658143 Ry
     Harris-Foulkes estimate   =    -280.71683348 Ry
     estimated scf accuracy    <       0.00050200 Ry

     iteration #  4     ecut=    30.00 Ry     beta= 0.70
     Davidson diagonalization with overlap
     ethr =  2.64E-06,  avg # of iterations =  2.0

     total cpu time spent up to now is        2.8 secs

     total energy              =    -280.71660825 Ry
     Harris-Foulkes estimate   =    -280.71660836 Ry
     estimated scf accuracy    <       0.00000201 Ry

     iteration #  5     ecut=    30.00 Ry     beta= 0.70
     Davidson diagonalization with overlap
     ethr =  1.06E-08,  avg # of iterations =  3.0

     total cpu time spent up to now is        3.2 secs

     total energy              =    -280.71660928 Ry
     Harris-Foulkes estimate   =    -280.71660941 Ry
     estimated scf accuracy    <       0.00000016 Ry

     iteration #  6     ecut=    30.00 Ry     beta= 0.70
     Davidson diagonalization with overlap
     ethr =  8.52E-10,  avg # of iterations =  2.0

     total cpu time spent up to now is        3.6 secs

     total energy              =    -280.71660931 Ry
     Harris-Foulkes estimate   =    -280.71660933 Ry
     estimated scf accuracy    <       0.00000003 Ry

     iteration #  7     ecut=    30.00 Ry     beta= 0.70
     Davidson diagonalization with overlap
     ethr =  1.69E-10,  avg # of iterations =  2.0

     total cpu time spent up to now is        4.0 secs

     End of self-consistent calculation

          k = 0.0000 0.0000 0.0000 (   229 PWs)   bands (ev):

    -9.2784  -9.2784  -9.2784  -9.0125  -9.0125   8.9838  46.5624  46.5624
    46.5624  48.3190  55.3864  55.3864  55.3864  57.3452

          k =-0.0909 0.0909-0.0909 (   220 PWs)   bands (ev):

    -9.1804  -8.9432  -8.9432  -8.7691  -8.7691   9.3122  43.2549  46.1582
    46.1582  48.2418  56.1619  56.2055  56.2055  57.8307

          k =-0.1818 0.1818-0.1818 (   220 PWs)   bands (ev):

    -9.3046  -9.1550  -9.1550  -8.6982  -8.6982  10.3000  37.6652  45.1612
    45.1612  48.3644  54.6226  56.1038  56.1038  57.8148

          k =-0.2727 0.2727-0.2727 (   217 PWs)   bands (ev):

    -9.2131  -9.1385  -9.1385  -8.5543  -8.5543  11.9414  32.1968  44.0042
    44.0042  48.4246  53.0779  54.6564  54.6564  60.1739

          k =-0.3636 0.3636-0.3636 (   226 PWs)   bands (ev):

    -9.7045  -9.3093  -9.3093  -9.0427  -9.0427  14.1472  27.3010  43.0169
    43.0169  48.2550  52.0536  53.5705  53.5705  62.7352

          k =-0.4545 0.4545-0.4545 (   225 PWs)   bands (ev):

    -9.5119  -9.3499  -9.3499  -8.9920  -8.9920  16.4465  23.6589  42.4617
    42.4617  48.0973  51.7254  53.0921  53.0921  64.8150

          k = 0.0000 0.1818 0.0000 (   226 PWs)   bands (ev):

    -9.9914  -9.1965  -9.1965  -8.9255  -8.6418   9.4215  44.6873  44.6873
    44.8378  47.5524  54.4101  56.4763  57.3285  57.3285

          k =-0.0909 0.2727-0.0909 (   221 PWs)   bands (ev):

    -9.4700  -9.1809  -9.0823  -8.8068  -8.7635  10.1894  39.6477  43.2298
    44.7102  48.2981  51.9409  56.5989  58.3077  58.4107

          k =-0.1818 0.3636-0.1818 (   222 PWs)   bands (ev):

    -9.5873  -9.2874  -9.0969  -8.9399  -8.7233  11.6133  34.1425  42.0624
    43.5542  48.3567  52.0358  56.3185  57.1467  57.2569

          k =-0.2727 0.4545-0.2727 (   219 PWs)   bands (ev):

    -9.2859  -9.1006  -8.9791  -8.8669  -8.7849  13.6498  29.0943  41.3681
    42.1069  47.4959  53.6251  55.3812  55.7887  58.2644

          k =-0.3636 0.5455-0.3636 (   225 PWs)   bands (ev):

    -9.7466  -9.2726  -9.2105  -8.9963  -8.9642  16.0099  24.9400  40.7423
    41.2497  47.0807  53.6079  54.6316  55.1850  61.1213

          k = 0.5455-0.3636 0.5455 (   225 PWs)   bands (ev):

    -9.5901  -9.4263  -9.2555  -8.9724  -8.9719  17.1084  23.4068  39.8453
    41.7926  47.2329  53.0072  54.0047  55.7839  64.0552

          k = 0.4545-0.2727 0.4545 (   224 PWs)   bands (ev):

    -9.5828  -9.3886  -9.0964  -9.0098  -8.9430  15.2262  26.1813  39.5486
    42.9780  47.9110  52.3764  53.7099  56.8528  61.9037

          k = 0.3636-0.1818 0.3636 (   217 PWs)   bands (ev):

    -9.2208  -9.0581  -8.8896  -8.7767  -8.7675  12.9100  30.7254  39.8646
    44.6426  49.0248  52.0400  53.8155  58.2431  59.0239

          k = 0.2727-0.0909 0.2727 (   217 PWs)   bands (ev):

    -9.3301  -9.0057  -8.8353  -8.7638  -8.6991  11.0677  35.9407  40.7179
    46.3030  49.7029  52.2581  54.4086  56.6719  58.0961

          k = 0.1818-0.0000 0.1818 (   217 PWs)   bands (ev):

    -9.2187  -9.0594  -8.9741  -8.6935  -8.4924   9.8604  41.0240  42.4581
    46.9618  48.9770  54.1587  55.6621  55.7129  57.3596

          k = 0.0000 0.3636 0.0000 (   218 PWs)   bands (ev):

    -9.3690  -9.1140  -9.1140  -8.7373  -8.4942  10.7375  41.0633  41.4333
    41.4333  46.4113  49.1601  59.9853  59.9853  60.1569

          k =-0.0909 0.4545-0.0909 (   221 PWs)   bands (ev):

    -9.4404  -9.2999  -9.1309  -9.0217  -8.7093  11.9408  36.1840  40.0718
    40.7893  46.5956  48.3544  59.7460  60.1616  60.9042

          k =-0.1818 0.5455-0.1818 (   221 PWs)   bands (ev):

    -9.4874  -9.3006  -9.1179  -8.9775  -8.6847  13.7685  31.2147  38.9626
    39.3046  45.9364  51.3958  58.7101  58.8137  60.0469

          k =-0.2727 0.6364-0.2727 (   225 PWs)   bands (ev):

    -9.7655  -9.3522  -9.2416  -9.1133  -8.7991  16.0365  26.9069  37.1125
    39.2331  45.6465  55.3505  57.2874  57.4795  60.0121

          k = 0.6364-0.2727 0.6364 (   221 PWs)   bands (ev):

    -9.3025  -9.2081  -9.1045  -9.0893  -8.6795  17.8205  24.3446  35.7174
    39.8909  45.9755  55.9539  56.5464  59.8006  60.8384

          k = 0.5455-0.1818 0.5455 (   222 PWs)   bands (ev):

    -9.5266  -9.3352  -9.1446  -8.8531  -8.7620  16.7557  25.8723  34.9335
    41.2496  46.7226  54.9068  55.8771  60.9533  61.7892

          k = 0.4545-0.0909 0.4545 (   221 PWs)   bands (ev):

    -9.3068  -9.1675  -9.0756  -8.9877  -8.9706  14.4744  29.8186  34.9258
    43.2006  47.9721  53.7570  55.4341  58.4203  59.5392

          k = 0.3636 0.0000 0.3636 (   218 PWs)   bands (ev):

    -9.2559  -9.1260  -8.9707  -8.8875  -8.7095  12.4788  33.9460  36.2569
    45.3170  49.7532  51.9724  55.0137  56.2927  58.1823

          k = 0.0000 0.5455 0.0000 (   218 PWs)   bands (ev):

    -9.5751  -9.3794  -8.8853  -8.8853  -8.4465  12.9235  36.0166  38.5024
    38.5024  45.3276  45.6809  62.7952  62.7952  64.6313

          k =-0.0909 0.6364-0.0909 (   220 PWs)   bands (ev):

    -9.5955  -9.4287  -8.8876  -8.8736  -8.6829  14.5337  32.4762  36.5590
    37.5456  44.8614  46.8390  62.2004  62.7072  65.3594

          k =-0.1818 0.7273-0.1818 (   219 PWs)   bands (ev):

    -9.6136  -9.0742  -9.0062  -8.8686  -8.6176  16.6385  28.7785  34.0655
    37.3212  44.6587  50.5144  60.6393  61.1893  65.3293

          k = 0.7273-0.1818 0.7273 (   222 PWs)   bands (ev):

    -9.5324  -9.1877  -9.1551  -9.0061  -8.8426  18.6309  26.0741  31.9859
    37.8643  44.8757  54.8291  59.3805  59.7491  65.4976

          k = 0.6364-0.0909 0.6364 (   224 PWs)   bands (ev):

    -9.4070  -9.2986  -9.2534  -9.1329  -9.0194  18.5003  26.4767  30.6835
    39.1477  45.5650  58.4258  58.4638  59.2230  62.7377

          k = 0.5455 0.0000 0.5455 (   222 PWs)   bands (ev):

    -9.2750  -9.2411  -9.1754  -9.1016  -8.9427  16.5019  29.1016  30.9106
    41.0517  46.5907  56.4820  57.8317  59.2677  59.9977

          k = 0.0000 0.7273 0.0000 (   218 PWs)   bands (ev):

    -9.7090  -9.4576  -8.7244  -8.7244  -8.4668  15.9242  30.5556  36.3709
    36.3709  43.9800  44.6027  64.8249  66.3170  66.3170

          k =-0.0909 0.8182-0.0909 (   216 PWs)   bands (ev):

    -9.6065  -8.9677  -8.8188  -8.7963  -8.3897  17.8198  27.9861  34.2059
    35.9312  44.0391  46.2057  63.4082  65.7536  68.9574

          k = 0.8182-0.0909 0.8182 (   222 PWs)   bands (ev):

    -9.5857  -9.1683  -9.1488  -9.0391  -8.8921  19.6638  26.3216  31.0958
    36.2806  44.1581  50.0085  61.9068  64.1709  67.9196

          k = 0.7273 0.0000 0.7273 (   224 PWs)   bands (ev):

    -9.5877  -9.1901  -9.1689  -9.1653  -9.1526  19.8997  26.9841  28.6189
    37.3968  44.6328  54.5503  60.4742  62.1185  64.3391

          k = 0.0000 0.9091 0.0000 (   222 PWs)   bands (ev):

    -9.9597  -9.3381  -9.1147  -9.1147  -8.4686  19.3831  25.7491  35.2546
    35.2546  43.3407  44.1608  64.3584  70.0292  70.0380

          k = 0.9091-0.0000 0.9091 (   220 PWs)   bands (ev):

    -9.7352  -9.1728  -9.1125  -9.1102  -8.3908  20.3716  24.8866  33.5031
    35.3786  43.7140  45.9174  63.6156  68.3398  69.4826

          k =-0.1818 0.3636 0.0000 (   217 PWs)   bands (ev):

    -9.2436  -9.0347  -8.9783  -8.8421  -8.5916  11.1761  37.3666  39.3423
    44.6353  48.8043  50.0547  56.6283  57.7441  59.7997

          k =-0.2727 0.4545-0.0909 (   221 PWs)   bands (ev):

    -9.2820  -9.2317  -9.1429  -9.0577  -8.7922  12.8035  32.7227  37.7145
    42.9973  48.5218  51.6132  55.2857  57.7609  61.0354

          k =-0.3636 0.5455-0.1818 (   221 PWs)   bands (ev):

    -9.3960  -9.2740  -9.0343  -8.9386  -8.7902  14.9769  28.0824  37.1574
    41.1460  47.8229  53.1064  56.2364  58.0656  59.9699

          k = 0.5455-0.3636 0.7273 (   220 PWs)   bands (ev):

    -9.3999  -9.2829  -9.0154  -8.8482  -8.6198  17.1832  24.5942  37.0720
    39.9363  47.4497  52.9595  57.8396  58.8025  60.7146

          k =-0.1818 0.5455 0.0000 (   220 PWs)   bands (ev):

    -9.4272  -9.3982  -9.0581  -8.9131  -8.6363  13.3488  33.9302  36.6330
    39.7484  47.4494  47.6406  58.4094  61.7230  64.1740

          k =-0.2727 0.6364-0.0909 (   223 PWs)   bands (ev):

    -9.6847  -9.3332  -9.1595  -9.0006  -8.7757  15.3223  30.1003  34.9705
    38.0593  47.1072  50.9065  56.6918  62.2158  63.4782

          k = 0.6364-0.2727 0.8182 (   225 PWs)   bands (ev):

    -9.6469  -9.3834  -9.2748  -9.0699  -8.8788  17.5414  26.5143  33.9182
    37.2616  47.1267  54.3411  56.0681  61.8406  62.8373

          k = 0.5455-0.1818 0.7273 (   224 PWs)   bands (ev):

    -9.5463  -9.3205  -9.1707  -9.1470  -8.8679  18.4733  25.2970  33.0050
    37.7176  47.5834  54.1882  59.4980  60.8866  61.2337

          k = 0.4545-0.0909 0.6364 (   222 PWs)   bands (ev):

    -9.4368  -9.3548  -9.1085  -8.9341  -8.8078  16.7737  27.8005  32.6083
    39.0991  48.4532  53.5310  57.0070  60.1129  62.8595

          k = 0.3636 0.0000 0.5455 (   219 PWs)   bands (ev):

    -9.4060  -9.1027  -8.9809  -8.8722  -8.7327  14.5888  31.1745  33.6163
    41.0501  49.4148  52.0083  55.0624  59.3506  61.8645

          k =-0.1818 0.7273 0.0000 (   223 PWs)   bands (ev):

    -9.7174  -9.6897  -9.0169  -8.9868  -8.5550  16.2890  30.1204  34.6371
    35.8954  46.0616  46.7337  60.4650  66.2085  66.2758

          k = 0.7273-0.1818 0.9091 (   219 PWs)   bands (ev):

    -9.4769  -9.1650  -8.9948  -8.8030  -8.7318  18.3710  27.7260  32.1351
    35.2442  46.4358  50.3092  58.8109  64.4953  66.7259

          k = 0.6364-0.0909 0.8182 (   222 PWs)   bands (ev):

    -9.4800  -9.1726  -9.1484  -9.0159  -8.9521  19.6886  26.6636  29.8705
    35.7943  46.8602  54.7272  57.4845  61.5240  64.3293

          k = 0.5455 0.0000 0.7273 (   225 PWs)   bands (ev):

    -9.5858  -9.3148  -9.3143  -9.0621  -9.0141  18.7213  28.1258  28.9753
    37.1597  47.6239  55.9469  58.1907  59.4506  62.4636

          k = 0.8182-0.0909 1.0000 (   220 PWs)   bands (ev):

    -9.5708  -9.2502  -9.0107  -8.9134  -8.6834  19.5722  26.1038  33.6151
    34.1829  45.5843  46.3627  62.2358  66.5465  69.0368

          k = 0.7273 0.0000 0.9091 (   219 PWs)   bands (ev):

    -9.3517  -9.1729  -9.1183  -8.9106  -8.6669  20.4186  25.9458  30.8763
    34.5092  46.2524  50.0785  60.3876  63.7005  66.9638

          k = 0.6364-0.2727 1.0000 (   218 PWs)   bands (ev):

    -9.1636  -9.0628  -9.0164  -8.8989  -8.7996  17.3260  28.9856  31.7017
    36.0937  50.0344  51.1496  55.3787  64.0033  64.2990

          k = 0.5455-0.1818 0.9091 (   219 PWs)   bands (ev):

    -9.2511  -9.1114  -9.0675  -8.8811  -8.7588  19.1923  27.0536  30.6714
    34.7784  50.2329  53.4655  56.0884  60.0912  65.5273

          k = 0.6364-0.0909 1.0000 (   214 PWs)   bands (ev):

    -9.0438  -8.9203  -8.8547  -8.6854  -8.6711  19.9998  27.1264  30.7063
    32.9798  50.2864  50.6706  57.1961  61.1566  68.8276

          k = 0.5455 0.0000 0.9091 (   220 PWs)   bands (ev):

    -9.2841  -9.2618  -9.0178  -8.9026  -8.8814  20.3410  27.9497  28.7039
    33.0952  50.8879  54.8956  55.3793  57.5286  67.9061

     the Fermi energy is    47.0846 ev

!    total energy              =    -280.71660932 Ry
     Harris-Foulkes estimate   =    -280.71660932 Ry
     estimated scf accuracy    <          1.2E-10 Ry

     The total energy is the sum of the following terms:

     one-electron contribution =      -1.67295618 Ry
     hartree contribution      =      26.61066459 Ry
     xc contribution           =     -63.32064201 Ry
     ewald contribution        =    -242.33311990 Ry
     smearing contrib. (-TS)   =      -0.00055582 Ry

     convergence has been achieved in   7 iterations

     Forces acting on atoms (cartesian axes, Ry/au):

     atom    1 type  1   force =     0.00000000    0.00000000    0.00000000

     Total force =     0.000000     Total SCF correction =     0.000000


     Computing stress (Cartesian axis) and pressure

          total   stress  (Ry/bohr**3)                   (kbar)     P=-5455.68
  -0.03708698   0.00000000   0.00000000      -5455.68      0.00      0.00
   0.00000000  -0.03708698  -0.00000000          0.00  -5455.68     -0.00
   0.00000000  -0.00000000  -0.03708698          0.00     -0.00  -5455.68


     Writing output data file Fr.save/

     init_run     :      0.19s CPU      0.20s WALL (       1 calls)
     electrons    :      2.67s CPU      2.89s WALL (       1 calls)
     forces       :      0.02s CPU      0.02s WALL (       1 calls)
     stress       :      0.05s CPU      0.05s WALL (       1 calls)

     Called by init_run:
     wfcinit      :      0.08s CPU      0.09s WALL (       1 calls)
     potinit      :      0.00s CPU      0.00s WALL (       1 calls)
     hinit0       :      0.10s CPU      0.10s WALL (       1 calls)

     Called by electrons:
     c_bands      :      2.37s CPU      2.56s WALL (       7 calls)
     sum_band     :      0.28s CPU      0.31s WALL (       7 calls)
     v_of_rho     :      0.00s CPU      0.00s WALL (       8 calls)
     newd         :      0.01s CPU      0.01s WALL (       8 calls)
     mix_rho      :      0.00s CPU      0.00s WALL (       7 calls)

     Called by c_bands:
     init_us_2    :      0.03s CPU      0.04s WALL (     952 calls)
     cegterg      :      2.31s CPU      2.50s WALL (     392 calls)

     Called by sum_band:
     sum_band:bec :      0.00s CPU      0.00s WALL (     392 calls)
     addusdens    :      0.01s CPU      0.01s WALL (       7 calls)

     Called by *egterg:
     h_psi        :      1.39s CPU      1.52s WALL (    1452 calls)
     s_psi        :      0.04s CPU      0.04s WALL (    1452 calls)
     g_psi        :      0.00s CPU      0.00s WALL (    1004 calls)
     cdiaghg      :      0.66s CPU      0.70s WALL (    1396 calls)

     Called by h_psi:
     h_psi:pot    :      1.38s CPU      1.51s WALL (    1452 calls)
     h_psi:calbec :      0.06s CPU      0.07s WALL (    1452 calls)
     vloc_psi     :      1.28s CPU      1.39s WALL (    1452 calls)
     add_vuspsi   :      0.04s CPU      0.04s WALL (    1452 calls)

     General routines
     calbec       :      0.08s CPU      0.09s WALL (    2124 calls)
     fft          :      0.00s CPU      0.00s WALL (      41 calls)
     ffts         :      0.00s CPU      0.00s WALL (       7 calls)
     fftw         :      1.39s CPU      1.52s WALL (   36338 calls)

     Parallel routines
     fft_scatt_xy :      0.13s CPU      0.14s WALL (   36386 calls)
     fft_scatt_yz :      0.47s CPU      0.51s WALL (   36386 calls)

     PWSCF        :     3.86s CPU         4.17s WALL


   This run was terminated on:  22:27:17   7Apr2024            

=------------------------------------------------------------------------------=
   JOB DONE.
=------------------------------------------------------------------------------=
