
     Program PWSCF v.6.3MaX starts on  7Apr2024 at 22:25:43 

     This program is part of the open-source Quantum ESPRESSO suite
     for quantum simulation of materials; please cite
         "P. Giannozzi et al., J. Phys.:Condens. Matter 21 395502 (2009);
         "P. Giannozzi et al., J. Phys.:Condens. Matter 29 465901 (2017);
          URL http://www.quantum-espresso.org", 
     in publications or presentations arising from this work. More details at
     http://www.quantum-espresso.org/quote

     Parallel version (MPI), running on     5 processors

     MPI processes distributed on     1 nodes
     R & G space division:  proc/nbgrp/npool/nimage =       5
     Waiting for input...
     Reading input from standard input

     Current dimensions of program PWSCF are:
     Max number of different atomic species (ntypx) = 10
     Max number of k-points (npk) =  40000
     Max angular momentum in pseudopotentials (lmaxx) =  3

     Subspace diagonalization in iterative solution of the eigenvalue problem:
     a serial algorithm will be used


     Parallelization info
     --------------------
     sticks:   dense  smooth     PW     G-vecs:    dense   smooth      PW
     Min          32      32     11                  271      271      56
     Max          33      33     11                  273      273      58
     Sum         163     163     55                 1363     1363     283



     bravais-lattice index     =            2
     lattice parameter (alat)  =       6.8300  a.u.
     unit-cell volume          =      79.6530 (a.u.)^3
     number of atoms/cell      =            1
     number of atomic types    =            1
     number of electrons       =        19.00
     number of Kohn-Sham states=           14
     kinetic-energy cutoff     =      25.0000  Ry
     charge density cutoff     =     100.0000  Ry
     convergence threshold     =      1.0E-08
     mixing beta               =       0.7000
     number of iterations used =            8  plain     mixing
     Exchange-correlation      = PBE ( 1  4  3  4 0 0)

     celldm(1)=   6.830000  celldm(2)=   0.000000  celldm(3)=   0.000000
     celldm(4)=   0.000000  celldm(5)=   0.000000  celldm(6)=   0.000000

     crystal axes: (cart. coord. in units of alat)
               a(1) = (  -0.500000   0.000000   0.500000 )  
               a(2) = (   0.000000   0.500000   0.500000 )  
               a(3) = (  -0.500000   0.500000   0.000000 )  

     reciprocal axes: (cart. coord. in units 2 pi/alat)
               b(1) = ( -1.000000 -1.000000  1.000000 )  
               b(2) = (  1.000000  1.000000  1.000000 )  
               b(3) = ( -1.000000  1.000000 -1.000000 )  


     PseudoPot. # 1 for Fr read from file:
     /home/lorenzo/pseudos/Fr/Fr.pbe-spdn-rrkjus_psl.1.0.0.UPF
     MD5 check sum: 07cabfa18982bd6b5b9d8ae5689d9732
     Pseudo is Ultrasoft + core correction, Zval = 19.0
     Generated using "atomic" code by A. Dal Corso v.6.2.2
     Using radial grid of 1287 points,  6 beta functions with: 
                l(1) =   0
                l(2) =   0
                l(3) =   1
                l(4) =   1
                l(5) =   2
                l(6) =   2
     Q(r) pseudized with 0 coefficients 


     atomic species   valence    mass     pseudopotential
        Fr            19.00   223.00000     Fr( 1.00)

     48 Sym. Ops., with inversion, found



   Cartesian axes

     site n.     atom                  positions (alat units)
         1           Fr  tau(   1) = (   0.0000000   0.0000000   0.0000000  )

     number of k points=     8  gaussian smearing, width (Ry)=  0.0100
                       cart. coord. in units 2pi/alat
        k(    1) = (   0.0000000   0.0000000   0.0000000), wk =   0.0312500
        k(    2) = (  -0.2500000   0.2500000  -0.2500000), wk =   0.2500000
        k(    3) = (   0.5000000  -0.5000000   0.5000000), wk =   0.1250000
        k(    4) = (   0.0000000   0.5000000   0.0000000), wk =   0.1875000
        k(    5) = (   0.7500000  -0.2500000   0.7500000), wk =   0.7500000
        k(    6) = (   0.5000000   0.0000000   0.5000000), wk =   0.3750000
        k(    7) = (   0.0000000  -1.0000000   0.0000000), wk =   0.0937500
        k(    8) = (  -0.5000000  -1.0000000   0.0000000), wk =   0.1875000

     Dense  grid:     1363 G-vectors     FFT dimensions: (  15,  15,  15)

     Estimated max dynamical RAM per process >       1.94 MB

     Estimated total dynamical RAM >       9.72 MB

     Check: negative/imaginary core charge=   -0.000045    0.000000

     Initial potential from superposition of free atoms

     starting charge   18.97009, renormalised to   19.00000
     Starting wfcs are   10 randomized atomic wfcs +    4 random wfcs

     total cpu time spent up to now is        1.2 secs

     Self-consistent Calculation

     iteration #  1     ecut=    25.00 Ry     beta= 0.70
     Davidson diagonalization with overlap
     ethr =  1.00E-02,  avg # of iterations =  5.1

     total cpu time spent up to now is        1.3 secs

     total energy              =    -278.39879929 Ry
     Harris-Foulkes estimate   =    -278.92471092 Ry
     estimated scf accuracy    <       0.71001173 Ry

     iteration #  2     ecut=    25.00 Ry     beta= 0.70
     Davidson diagonalization with overlap
     ethr =  3.74E-03,  avg # of iterations =  2.0

     total cpu time spent up to now is        1.3 secs

     total energy              =    -278.54796237 Ry
     Harris-Foulkes estimate   =    -278.57413992 Ry
     estimated scf accuracy    <       0.04836221 Ry

     iteration #  3     ecut=    25.00 Ry     beta= 0.70
     Davidson diagonalization with overlap
     ethr =  2.55E-04,  avg # of iterations =  2.1

     total cpu time spent up to now is        1.3 secs

     total energy              =    -278.55498893 Ry
     Harris-Foulkes estimate   =    -278.55594802 Ry
     estimated scf accuracy    <       0.00250029 Ry

     iteration #  4     ecut=    25.00 Ry     beta= 0.70
     Davidson diagonalization with overlap
     ethr =  1.32E-05,  avg # of iterations =  1.1

     total cpu time spent up to now is        1.4 secs

     total energy              =    -278.55511634 Ry
     Harris-Foulkes estimate   =    -278.55511363 Ry
     estimated scf accuracy    <       0.00000523 Ry

     iteration #  5     ecut=    25.00 Ry     beta= 0.70
     Davidson diagonalization with overlap
     ethr =  2.75E-08,  avg # of iterations =  3.0

     total cpu time spent up to now is        1.4 secs

     total energy              =    -278.55512150 Ry
     Harris-Foulkes estimate   =    -278.55512186 Ry
     estimated scf accuracy    <       0.00000090 Ry

     iteration #  6     ecut=    25.00 Ry     beta= 0.70
     Davidson diagonalization with overlap
     ethr =  4.76E-09,  avg # of iterations =  2.0

     total cpu time spent up to now is        1.4 secs

     total energy              =    -278.55512165 Ry
     Harris-Foulkes estimate   =    -278.55512168 Ry
     estimated scf accuracy    <       0.00000007 Ry

     iteration #  7     ecut=    25.00 Ry     beta= 0.70
     Davidson diagonalization with overlap
     ethr =  3.44E-10,  avg # of iterations =  2.0

     total cpu time spent up to now is        1.5 secs

     End of self-consistent calculation

          k = 0.0000 0.0000 0.0000 (   169 PWs)   bands (ev):

    -8.7852  -8.7852  -8.3657  -8.3657  -8.3657   9.2034  46.6330  46.6330
    46.6330  48.8742  57.2687  57.2687  57.2687  57.2798

          k =-0.2500 0.2500-0.2500 (   162 PWs)   bands (ev):

    -7.9798  -7.9798  -7.4990  -6.7954  -6.7954  11.6764  33.8703  44.5033
    44.5033  49.1813  53.9640  56.3097  56.3097  60.9171

          k = 0.5000-0.5000 0.5000 (   168 PWs)   bands (ev):

    -8.3886  -8.0363  -8.0363  -7.3579  -7.3579  17.0680  23.3738  42.5335
    42.5335  48.6226  52.5987  55.0389  55.0389  65.5513

          k = 0.0000 0.5000 0.0000 (   165 PWs)   bands (ev):

    -8.6147  -7.8407  -7.3287  -7.1828  -7.1828  12.4926  37.3668  39.5442
    39.5442  47.0251  47.4695  62.5660  62.5660  64.7264

          k = 0.7500-0.2500 0.7500 (   171 PWs)   bands (ev):

    -8.3101  -8.1480  -8.0451  -7.6081  -7.4414  17.6530  27.1077  34.1034
    38.2505  46.1268  54.8847  60.1775  60.2905  64.9695

          k = 0.5000 0.0000 0.5000 (   170 PWs)   bands (ev):

    -8.3101  -8.1889  -7.9711  -7.9590  -7.1885  15.5762  30.2444  32.6572
    42.4490  48.1041  55.8919  58.6413  59.2616  60.0086

          k = 0.0000-1.0000 0.0000 (   174 PWs)   bands (ev):

    -8.7676  -8.2582  -8.2213  -8.2213  -6.4830  20.3272  24.9734  35.3871
    35.3871  44.0902  45.9796  64.9199  70.5616  71.2094

          k =-0.5000-1.0000 0.0000 (   176 PWs)   bands (ev):

    -8.6771  -8.4113  -8.4113  -8.0111  -7.8601  20.5041  28.8784  28.8784
    32.6366  53.7488  55.1051  55.1051  57.6208  70.4825

     the Fermi energy is    46.9837 ev

!    total energy              =    -278.55512166 Ry
     Harris-Foulkes estimate   =    -278.55512166 Ry
     estimated scf accuracy    <          2.9E-09 Ry

     The total energy is the sum of the following terms:

     one-electron contribution =       2.23690298 Ry
     hartree contribution      =      24.92123044 Ry
     xc contribution           =     -63.37965272 Ry
     ewald contribution        =    -242.33311992 Ry
     smearing contrib. (-TS)   =      -0.00048245 Ry

     convergence has been achieved in   7 iterations

     Forces acting on atoms (cartesian axes, Ry/au):

     atom    1 type  1   force =     0.00000000    0.00000000    0.00000000

     Total force =     0.000000     Total SCF correction =     0.000000


     Computing stress (Cartesian axis) and pressure

          total   stress  (Ry/bohr**3)                   (kbar)     P=********
  -0.10258901   0.00000000   0.00000000     -15091.36      0.00      0.00
   0.00000000  -0.10258901  -0.00000000          0.00 -15091.36     -0.00
   0.00000000  -0.00000000  -0.10258901          0.00     -0.00 -15091.36


     Writing output data file Fr.save/

     init_run     :      0.10s CPU      0.11s WALL (       1 calls)
     electrons    :      0.27s CPU      0.32s WALL (       1 calls)
     forces       :      0.01s CPU      0.01s WALL (       1 calls)
     stress       :      0.02s CPU      0.02s WALL (       1 calls)

     Called by init_run:
     wfcinit      :      0.01s CPU      0.01s WALL (       1 calls)
     potinit      :      0.00s CPU      0.00s WALL (       1 calls)
     hinit0       :      0.09s CPU      0.09s WALL (       1 calls)

     Called by electrons:
     c_bands      :      0.22s CPU      0.26s WALL (       7 calls)
     sum_band     :      0.03s CPU      0.04s WALL (       7 calls)
     v_of_rho     :      0.00s CPU      0.01s WALL (       8 calls)
     newd         :      0.01s CPU      0.01s WALL (       8 calls)
     mix_rho      :      0.00s CPU      0.00s WALL (       7 calls)

     Called by c_bands:
     init_us_2    :      0.00s CPU      0.00s WALL (     136 calls)
     cegterg      :      0.22s CPU      0.25s WALL (      56 calls)

     Called by sum_band:
     sum_band:bec :      0.00s CPU      0.00s WALL (      56 calls)
     addusdens    :      0.01s CPU      0.01s WALL (       7 calls)

     Called by *egterg:
     h_psi        :      0.11s CPU      0.13s WALL (     203 calls)
     s_psi        :      0.00s CPU      0.00s WALL (     203 calls)
     g_psi        :      0.00s CPU      0.00s WALL (     139 calls)
     cdiaghg      :      0.08s CPU      0.09s WALL (     195 calls)

     Called by h_psi:
     h_psi:pot    :      0.11s CPU      0.13s WALL (     203 calls)
     h_psi:calbec :      0.01s CPU      0.01s WALL (     203 calls)
     vloc_psi     :      0.10s CPU      0.11s WALL (     203 calls)
     add_vuspsi   :      0.00s CPU      0.01s WALL (     203 calls)

     General routines
     calbec       :      0.01s CPU      0.01s WALL (     299 calls)
     fft          :      0.00s CPU      0.00s WALL (     114 calls)
     ffts         :      0.00s CPU      0.00s WALL (       7 calls)
     fftw         :      0.10s CPU      0.12s WALL (    5042 calls)

     Parallel routines
     fft_scatt_xy :      0.01s CPU      0.01s WALL (    5163 calls)
     fft_scatt_yz :      0.04s CPU      0.05s WALL (    5163 calls)

     PWSCF        :     1.47s CPU         1.58s WALL


   This run was terminated on:  22:25:45   7Apr2024            

=------------------------------------------------------------------------------=
   JOB DONE.
=------------------------------------------------------------------------------=
