
     Program PWSCF v.6.3MaX starts on  7Apr2024 at 22:38:17 

     This program is part of the open-source Quantum ESPRESSO suite
     for quantum simulation of materials; please cite
         "P. Giannozzi et al., J. Phys.:Condens. Matter 21 395502 (2009);
         "P. Giannozzi et al., J. Phys.:Condens. Matter 29 465901 (2017);
          URL http://www.quantum-espresso.org", 
     in publications or presentations arising from this work. More details at
     http://www.quantum-espresso.org/quote

     Parallel version (MPI), running on     5 processors

     MPI processes distributed on     1 nodes
     R & G space division:  proc/nbgrp/npool/nimage =       5
     Waiting for input...
     Reading input from standard input

     Current dimensions of program PWSCF are:
     Max number of different atomic species (ntypx) = 10
     Max number of k-points (npk) =  40000
     Max angular momentum in pseudopotentials (lmaxx) =  3
               file Fr.pz-spdn-kjpaw_psl.1.0.0.UPF: wavefunction(s)  6P renormalized

     Subspace diagonalization in iterative solution of the eigenvalue problem:
     a serial algorithm will be used


     Parallelization info
     --------------------
     sticks:   dense  smooth     PW     G-vecs:    dense   smooth      PW
     Min          72      72     24                  876      876     173
     Max          73      73     25                  877      877     174
     Sum         361     361    121                 4381     4381     869



     bravais-lattice index     =            2
     lattice parameter (alat)  =       6.8300  a.u.
     unit-cell volume          =      79.6530 (a.u.)^3
     number of atoms/cell      =            1
     number of atomic types    =            1
     number of electrons       =        19.00
     number of Kohn-Sham states=           14
     kinetic-energy cutoff     =      55.0000  Ry
     charge density cutoff     =     220.0000  Ry
     convergence threshold     =      1.0E-08
     mixing beta               =       0.7000
     number of iterations used =            8  plain     mixing
     Exchange-correlation      = SLA PZ NOGX NOGC ( 1  1  0  0 0 0)

     celldm(1)=   6.830000  celldm(2)=   0.000000  celldm(3)=   0.000000
     celldm(4)=   0.000000  celldm(5)=   0.000000  celldm(6)=   0.000000

     crystal axes: (cart. coord. in units of alat)
               a(1) = (  -0.500000   0.000000   0.500000 )  
               a(2) = (   0.000000   0.500000   0.500000 )  
               a(3) = (  -0.500000   0.500000   0.000000 )  

     reciprocal axes: (cart. coord. in units 2 pi/alat)
               b(1) = ( -1.000000 -1.000000  1.000000 )  
               b(2) = (  1.000000  1.000000  1.000000 )  
               b(3) = ( -1.000000  1.000000 -1.000000 )  


     PseudoPot. # 1 for Fr read from file:
     /home/lorenzo/pseudos/Fr/Fr.pz-spdn-kjpaw_psl.1.0.0.UPF
     MD5 check sum: 60dafd115682613df3cc92ec23a62a32
     Pseudo is Projector augmented-wave + core cor, Zval = 19.0
     Generated using "atomic" code by A. Dal Corso v.6.2.2
     Shape of augmentation charge: PSQ
     Using radial grid of 1287 points,  6 beta functions with: 
                l(1) =   0
                l(2) =   0
                l(3) =   1
                l(4) =   1
                l(5) =   2
                l(6) =   2
     Q(r) pseudized with 0 coefficients 


     atomic species   valence    mass     pseudopotential
        Fr            19.00   223.00000     Fr( 1.00)

     48 Sym. Ops., with inversion, found



   Cartesian axes

     site n.     atom                  positions (alat units)
         1           Fr  tau(   1) = (   0.0000000   0.0000000   0.0000000  )

     number of k points=    47  gaussian smearing, width (Ry)=  0.0100
                       cart. coord. in units 2pi/alat
        k(    1) = (   0.0000000   0.0000000   0.0000000), wk =   0.0020000
        k(    2) = (  -0.1000000   0.1000000  -0.1000000), wk =   0.0160000
        k(    3) = (  -0.2000000   0.2000000  -0.2000000), wk =   0.0160000
        k(    4) = (  -0.3000000   0.3000000  -0.3000000), wk =   0.0160000
        k(    5) = (  -0.4000000   0.4000000  -0.4000000), wk =   0.0160000
        k(    6) = (   0.5000000  -0.5000000   0.5000000), wk =   0.0080000
        k(    7) = (   0.0000000   0.2000000   0.0000000), wk =   0.0120000
        k(    8) = (  -0.1000000   0.3000000  -0.1000000), wk =   0.0480000
        k(    9) = (  -0.2000000   0.4000000  -0.2000000), wk =   0.0480000
        k(   10) = (  -0.3000000   0.5000000  -0.3000000), wk =   0.0480000
        k(   11) = (   0.6000000  -0.4000000   0.6000000), wk =   0.0480000
        k(   12) = (   0.5000000  -0.3000000   0.5000000), wk =   0.0480000
        k(   13) = (   0.4000000  -0.2000000   0.4000000), wk =   0.0480000
        k(   14) = (   0.3000000  -0.1000000   0.3000000), wk =   0.0480000
        k(   15) = (   0.2000000   0.0000000   0.2000000), wk =   0.0240000
        k(   16) = (   0.0000000   0.4000000   0.0000000), wk =   0.0120000
        k(   17) = (  -0.1000000   0.5000000  -0.1000000), wk =   0.0480000
        k(   18) = (  -0.2000000   0.6000000  -0.2000000), wk =   0.0480000
        k(   19) = (   0.7000000  -0.3000000   0.7000000), wk =   0.0480000
        k(   20) = (   0.6000000  -0.2000000   0.6000000), wk =   0.0480000
        k(   21) = (   0.5000000  -0.1000000   0.5000000), wk =   0.0480000
        k(   22) = (   0.4000000   0.0000000   0.4000000), wk =   0.0240000
        k(   23) = (   0.0000000   0.6000000   0.0000000), wk =   0.0120000
        k(   24) = (  -0.1000000   0.7000000  -0.1000000), wk =   0.0480000
        k(   25) = (   0.8000000  -0.2000000   0.8000000), wk =   0.0480000
        k(   26) = (   0.7000000  -0.1000000   0.7000000), wk =   0.0480000
        k(   27) = (   0.6000000  -0.0000000   0.6000000), wk =   0.0240000
        k(   28) = (   0.0000000   0.8000000   0.0000000), wk =   0.0120000
        k(   29) = (   0.9000000  -0.1000000   0.9000000), wk =   0.0480000
        k(   30) = (   0.8000000   0.0000000   0.8000000), wk =   0.0240000
        k(   31) = (   0.0000000  -1.0000000   0.0000000), wk =   0.0060000
        k(   32) = (  -0.2000000   0.4000000   0.0000000), wk =   0.0480000
        k(   33) = (  -0.3000000   0.5000000  -0.1000000), wk =   0.0960000
        k(   34) = (   0.6000000  -0.4000000   0.8000000), wk =   0.0960000
        k(   35) = (   0.5000000  -0.3000000   0.7000000), wk =   0.0480000
        k(   36) = (  -0.2000000   0.6000000   0.0000000), wk =   0.0480000
        k(   37) = (   0.7000000  -0.3000000   0.9000000), wk =   0.0960000
        k(   38) = (   0.6000000  -0.2000000   0.8000000), wk =   0.0960000
        k(   39) = (   0.5000000  -0.1000000   0.7000000), wk =   0.0960000
        k(   40) = (   0.4000000   0.0000000   0.6000000), wk =   0.0480000
        k(   41) = (   0.8000000  -0.2000000   1.0000000), wk =   0.0480000
        k(   42) = (   0.7000000  -0.1000000   0.9000000), wk =   0.0960000
        k(   43) = (   0.6000000   0.0000000   0.8000000), wk =   0.0480000
        k(   44) = (  -0.2000000  -1.0000000   0.0000000), wk =   0.0240000
        k(   45) = (   0.6000000  -0.2000000   1.0000000), wk =   0.0480000
        k(   46) = (   0.5000000  -0.1000000   0.9000000), wk =   0.0480000
        k(   47) = (  -0.4000000  -1.0000000   0.0000000), wk =   0.0240000

     Dense  grid:     4381 G-vectors     FFT dimensions: (  24,  24,  24)

     Estimated max dynamical RAM per process >       5.69 MB

     Estimated total dynamical RAM >      28.47 MB

     Check: negative/imaginary core charge=   -0.000002    0.000000

     Initial potential from superposition of free atoms

     starting charge   18.97647, renormalised to   19.00000
     Starting wfcs are   10 randomized atomic wfcs +    4 random wfcs
     Checking if some PAW data can be deallocated... 

     total cpu time spent up to now is        1.3 secs

     Self-consistent Calculation

     iteration #  1     ecut=    55.00 Ry     beta= 0.70
     Davidson diagonalization with overlap
     ethr =  1.00E-02,  avg # of iterations =  4.7

     Threshold (ethr) on eigenvalues was too large:
     Diagonalizing with lowered threshold

     Davidson diagonalization with overlap
     ethr =  8.98E-05,  avg # of iterations =  1.9

     total cpu time spent up to now is        2.6 secs

     total energy              =   -1045.24648524 Ry
     Harris-Foulkes estimate   =   -1045.25846159 Ry
     estimated scf accuracy    <       0.01687688 Ry

     iteration #  2     ecut=    55.00 Ry     beta= 0.70
     Davidson diagonalization with overlap
     ethr =  8.88E-05,  avg # of iterations =  2.0

     total cpu time spent up to now is        3.1 secs

     total energy              =   -1045.24931419 Ry
     Harris-Foulkes estimate   =   -1045.24962895 Ry
     estimated scf accuracy    <       0.00054203 Ry

     iteration #  3     ecut=    55.00 Ry     beta= 0.70
     Davidson diagonalization with overlap
     ethr =  2.85E-06,  avg # of iterations =  2.5

     total cpu time spent up to now is        3.6 secs

     total energy              =   -1045.24937898 Ry
     Harris-Foulkes estimate   =   -1045.24938587 Ry
     estimated scf accuracy    <       0.00001743 Ry

     iteration #  4     ecut=    55.00 Ry     beta= 0.70
     Davidson diagonalization with overlap
     ethr =  9.18E-08,  avg # of iterations =  2.1

     total cpu time spent up to now is        4.1 secs

     total energy              =   -1045.24938380 Ry
     Harris-Foulkes estimate   =   -1045.24938334 Ry
     estimated scf accuracy    <       0.00000024 Ry

     iteration #  5     ecut=    55.00 Ry     beta= 0.70
     Davidson diagonalization with overlap
     ethr =  1.27E-09,  avg # of iterations =  2.1

     total cpu time spent up to now is        4.6 secs

     total energy              =   -1045.24938386 Ry
     Harris-Foulkes estimate   =   -1045.24938384 Ry
     estimated scf accuracy    <       0.00000002 Ry

     iteration #  6     ecut=    55.00 Ry     beta= 0.70
     Davidson diagonalization with overlap
     ethr =  1.04E-10,  avg # of iterations =  2.0

     total cpu time spent up to now is        5.0 secs

     End of self-consistent calculation

          k = 0.0000 0.0000 0.0000 (   537 PWs)   bands (ev):

    -9.4129  -9.4129  -9.4129  -9.0653  -9.0653   9.1001  46.8812  46.8812
    46.8812  48.0884  53.7044  53.7044  53.7044  57.5304

          k =-0.1000 0.1000-0.1000 (   537 PWs)   bands (ev):

    -9.4093  -9.3816  -9.3816  -9.0649  -9.0649   9.5004  42.7495  46.2876
    46.2876  47.9578  54.6809  54.6809  55.6305  57.1691

          k =-0.2000 0.2000-0.2000 (   552 PWs)   bands (ev):

    -9.4026  -9.3288  -9.3288  -9.0334  -9.0334  10.7035  36.5284  45.0650
    45.0650  47.9922  54.1228  54.8320  54.8320  57.0360

          k =-0.3000 0.3000-0.3000 (   555 PWs)   bands (ev):

    -9.3992  -9.3240  -9.3240  -8.9316  -8.9316  12.6903  30.6614  43.8451
    43.8451  47.9856  52.3477  53.0220  53.0220  60.1047

          k =-0.4000 0.4000-0.4000 (   547 PWs)   bands (ev):

    -9.4001  -9.3465  -9.3465  -8.8205  -8.8205  15.2874  25.6601  42.9670
    42.9670  47.8986  51.3027  51.9536  51.9536  63.3336

          k = 0.5000-0.5000 0.5000 (   568 PWs)   bands (ev):

    -9.4012  -9.3580  -9.3580  -8.7748  -8.7748  17.1343  23.0007  42.6471
    42.6471  47.8372  50.9769  51.6034  51.6034  65.1337

          k = 0.0000 0.2000 0.0000 (   544 PWs)   bands (ev):

    -9.4448  -9.3493  -9.3493  -9.0981  -9.0384   9.6337  44.4334  44.4334
    44.8818  46.9296  53.3470  55.7346  56.4451  56.4451

          k =-0.1000 0.3000-0.1000 (   551 PWs)   bands (ev):

    -9.4558  -9.2886  -9.2829  -9.1147  -8.9985  10.5693  38.7731  42.7844
    44.3882  47.9336  50.7026  55.5588  57.9173  58.1283

          k =-0.2000 0.4000-0.2000 (   551 PWs)   bands (ev):

    -9.4392  -9.2845  -9.2598  -9.0482  -8.9065  12.2982  32.7949  41.6357
    42.9575  47.3315  52.0502  55.3875  56.1110  56.5986

          k =-0.3000 0.5000-0.3000 (   550 PWs)   bands (ev):

    -9.4185  -9.3140  -9.2798  -8.9314  -8.8063  14.7232  27.5029  41.1421
    41.3056  46.4784  53.7050  54.3833  54.4340  58.1714

          k = 0.6000-0.4000 0.6000 (   558 PWs)   bands (ev):

    -9.4000  -9.3356  -9.3016  -8.8383  -8.7720  17.1517  23.7520  39.9455
    41.4129  46.4035  52.9593  53.1854  54.9047  62.0420

          k = 0.5000-0.3000 0.5000 (   551 PWs)   bands (ev):

    -9.3769  -9.3476  -9.3035  -8.8312  -8.8109  16.4668  24.7102  39.2113
    42.4855  47.0101  52.1171  52.5399  56.0029  62.6570

          k = 0.4000-0.2000 0.4000 (   546 PWs)   bands (ev):

    -9.3785  -9.3284  -9.2854  -8.9596  -8.8572  13.8509  29.1801  39.1989
    44.2592  48.2436  51.5079  52.4486  57.5192  58.9727

          k = 0.3000-0.1000 0.3000 (   548 PWs)   bands (ev):

    -9.3997  -9.3044  -9.2816  -9.0786  -8.9465  11.6356  34.7320  39.8923
    46.3196  49.5810  51.3834  52.9970  55.7537  57.4464

          k = 0.2000 0.0000 0.2000 (   553 PWs)   bands (ev):

    -9.4145  -9.3423  -9.3252  -9.0942  -9.0232  10.1685  40.3888  41.6126
    47.3843  48.9916  53.3673  54.0610  54.5135  56.2359

          k = 0.0000 0.4000 0.0000 (   564 PWs)   bands (ev):

    -9.5281  -9.1896  -9.1799  -9.1799  -8.9677  11.2370  40.5246  40.7973
    40.7973  45.2226  47.5388  60.0112  60.1879  60.1879

          k =-0.1000 0.5000-0.1000 (   551 PWs)   bands (ev):

    -9.5460  -9.2493  -9.1170  -9.0724  -8.8929  12.7002  35.1376  39.4345
    39.7175  45.2618  47.5486  59.7722  59.8714  60.9529

          k =-0.2000 0.6000-0.2000 (   549 PWs)   bands (ev):

    -9.5131  -9.2730  -9.1261  -8.9977  -8.7950  14.8927  29.8764  37.4882
    38.8474  44.7284  51.3808  58.0049  58.3998  60.3308

          k = 0.7000-0.3000 0.7000 (   547 PWs)   bands (ev):

    -9.4685  -9.2493  -9.1524  -8.9576  -8.7645  17.4242  25.6750  35.5430
    39.1262  44.7596  55.9144  56.4907  56.9856  60.6737

          k = 0.6000-0.2000 0.6000 (   557 PWs)   bands (ev):

    -9.4238  -9.2367  -9.1677  -8.9210  -8.8327  18.0183  24.9003  34.2637
    40.2899  45.3724  55.4510  55.4905  60.5601  62.2284

          k = 0.5000-0.1000 0.5000 (   550 PWs)   bands (ev):

    -9.3714  -9.2835  -9.1605  -8.9773  -8.8829  15.7020  28.4904  33.8245
    42.2504  46.5918  54.2775  55.0128  58.6723  59.8516

          k = 0.4000 0.0000 0.4000 (   550 PWs)   bands (ev):

    -9.3539  -9.3230  -9.1611  -9.1141  -8.8865  13.3419  32.8895  34.8838
    44.6883  48.4279  52.4777  54.7499  55.2810  57.7668

          k = 0.0000 0.6000 0.0000 (   552 PWs)   bands (ev):

    -9.6300  -9.3130  -8.9643  -8.9643  -8.8797  13.8960  34.6438  37.8134
    37.8134  43.9436  44.3345  63.5944  63.5944  64.4540

          k =-0.1000 0.7000-0.1000 (   551 PWs)   bands (ev):

    -9.6362  -9.3527  -8.9409  -8.8904  -8.7916  15.8324  31.0558  35.2389
    36.9903  43.6188  46.0600  61.8760  63.1275  66.4018

          k = 0.8000-0.2000 0.8000 (   548 PWs)   bands (ev):

    -9.5767  -9.3180  -8.9663  -8.9003  -8.7537  18.2333  27.6170  32.2176
    37.0715  43.6003  50.3930  60.1108  61.3641  66.6376

          k = 0.7000-0.1000 0.7000 (   545 PWs)   bands (ev):

    -9.5051  -9.1871  -8.9930  -8.9913  -8.8195  19.5993  26.2060  30.0593
    38.0713  44.0833  55.4667  58.8148  59.7910  64.1144

          k = 0.6000-0.0000 0.6000 (   546 PWs)   bands (ev):

    -9.4353  -9.1446  -9.0277  -9.0049  -8.9451  17.9942  28.3693  29.4709
    39.8922  45.0793  57.6781  57.7055  60.0266  60.1745

          k = 0.0000 0.8000 0.0000 (   556 PWs)   bands (ev):

    -9.7120  -9.4207  -8.8082  -8.7846  -8.7846  17.4977  28.6359  35.8955
    35.8955  42.8979  43.1890  64.1814  67.6634  67.6634

          k = 0.9000-0.1000 0.9000 (   550 PWs)   bands (ev):

    -9.6918  -9.4263  -8.8214  -8.7693  -8.7365  19.5899  26.2211  33.3784
    35.7093  42.9188  45.3697  63.0327  66.5540  69.4192

          k = 0.8000 0.0000 0.8000 (   542 PWs)   bands (ev):

    -9.6016  -9.3418  -8.8655  -8.8561  -8.7771  20.6403  25.9048  30.0646
    36.4632  43.2723  50.0499  61.3024  64.2599  66.2060

          k = 0.0000-1.0000 0.0000 (   524 PWs)   bands (ev):

    -9.7431  -9.4636  -8.7807  -8.7146  -8.7146  20.6356  24.6452  35.2353
    35.2353  42.4863  42.9450  64.0756  70.0339  70.9581

          k =-0.2000 0.4000 0.0000 (   548 PWs)   bands (ev):

    -9.4673  -9.2616  -9.1882  -9.1375  -8.9333  11.7691  36.4771  38.2382
    44.0908  48.2881  49.0631  55.7359  57.1103  59.5722

          k =-0.3000 0.5000-0.1000 (   546 PWs)   bands (ev):

    -9.4332  -9.2920  -9.1719  -9.0486  -8.8553  13.7344  31.4285  36.7175
    41.9159  47.8694  51.5428  54.3263  57.4074  61.1474

          k = 0.6000-0.4000 0.8000 (   546 PWs)   bands (ev):

    -9.3914  -9.3277  -9.1807  -8.9457  -8.8053  16.2643  26.6590  36.3681
    39.9922  47.3455  52.0368  56.8638  57.8748  59.6092

          k = 0.5000-0.3000 0.7000 (   552 PWs)   bands (ev):

    -9.3708  -9.3477  -9.1794  -8.9043  -8.7913  18.0049  24.1535  36.3869
    39.1844  47.1622  51.7735  58.0638  58.5498  61.4269

          k =-0.2000 0.6000 0.0000 (   543 PWs)   bands (ev):

    -9.5538  -9.2933  -9.0725  -8.9697  -8.8356  14.4014  32.8468  35.5281
    38.3858  46.8024  46.8437  57.7579  62.2453  65.0523

          k = 0.7000-0.3000 0.9000 (   549 PWs)   bands (ev):

    -9.4973  -9.2995  -9.0823  -8.9164  -8.7948  16.7304  28.9239  33.7346
    36.6916  46.6111  50.8677  55.8785  62.8257  63.7936

          k = 0.6000-0.2000 0.8000 (   547 PWs)   bands (ev):

    -9.4364  -9.2551  -9.0704  -8.9762  -8.7854  18.9063  25.8309  32.4593
    36.4799  46.9186  54.0043  56.2012  61.5210  62.6097

          k = 0.5000-0.1000 0.7000 (   546 PWs)   bands (ev):

    -9.3867  -9.2647  -9.0691  -8.9821  -8.8453  18.2551  26.8149  31.5985
    37.6011  47.7637  53.2723  57.5227  60.7549  61.1181

          k = 0.4000 0.0000 0.6000 (   548 PWs)   bands (ev):

    -9.3548  -9.3351  -9.1123  -8.9790  -8.8718  15.8534  30.1685  32.1995
    39.5819  48.9458  51.8899  54.4177  59.6415  62.5368

          k = 0.8000-0.2000 1.0000 (   551 PWs)   bands (ev):

    -9.6246  -9.3786  -8.9315  -8.7888  -8.7862  17.8989  28.5867  33.7761
    34.7537  45.6891  45.8572  60.1665  66.0164  67.6494

          k = 0.7000-0.1000 0.9000 (   549 PWs)   bands (ev):

    -9.5398  -9.3306  -8.9727  -8.8689  -8.7473  19.9892  26.7921  30.6910
    34.5516  46.0004  50.2965  58.3822  63.0675  66.2152

          k = 0.6000 0.0000 0.8000 (   539 PWs)   bands (ev):

    -9.4555  -9.1876  -9.0902  -8.9483  -8.7936  20.0806  27.7092  28.2707
    35.6701  46.7346  55.5649  56.5232  59.1038  63.9414

          k =-0.2000-1.0000 0.0000 (   544 PWs)   bands (ev):

    -9.6516  -9.4151  -8.8252  -8.8201  -8.7146  20.7348  25.2785  33.1698
    33.7264  45.3295  45.5430  61.6888  65.8936  68.1600

          k = 0.6000-0.2000 1.0000 (   549 PWs)   bands (ev):

    -9.3903  -9.3197  -9.1066  -8.8942  -8.7902  18.9432  28.2200  30.4769
    34.3457  50.4737  50.8464  54.4894  61.6091  65.6787

          k = 0.5000-0.1000 0.9000 (   540 PWs)   bands (ev):

    -9.3407  -9.2655  -9.1616  -8.9501  -8.7497  20.2709  27.2177  29.6568
    33.4009  50.5815  52.8758  56.0983  57.0351  66.8455

          k =-0.4000-1.0000 0.0000 (   534 PWs)   bands (ev):

    -9.4057  -9.3144  -9.0885  -8.9194  -8.7145  20.9085  27.0998  29.8827
    32.0968  50.4871  50.9033  56.1376  58.6036  68.8930

     the Fermi energy is    46.6314 ev

!    total energy              =   -1045.24938386 Ry
     Harris-Foulkes estimate   =   -1045.24938386 Ry
     estimated scf accuracy    <          1.2E-10 Ry

     total all-electron energy =    -48490.702357 Ry

     The total energy is the sum of the following terms:

     one-electron contribution =       1.46196655 Ry
     hartree contribution      =      28.24867797 Ry
     xc contribution           =     -63.90755017 Ry
     ewald contribution        =    -242.33311993 Ry
     one-center paw contrib.   =    -768.71880181 Ry
     smearing contrib. (-TS)   =      -0.00055647 Ry

     convergence has been achieved in   6 iterations

     Forces acting on atoms (cartesian axes, Ry/au):

     atom    1 type  1   force =     0.00000000    0.00000000    0.00000000

     Total force =     0.000000     Total SCF correction =     0.000000


     Computing stress (Cartesian axis) and pressure

          total   stress  (Ry/bohr**3)                   (kbar)     P= 7082.59
   0.04814646  -0.00000000   0.00000000       7082.59     -0.00      0.00
   0.00000000   0.04814646   0.00000000          0.00   7082.59      0.00
   0.00000000   0.00000000   0.04814646          0.00      0.00   7082.59


     Writing output data file Fr.save/

     init_run     :      0.32s CPU      0.33s WALL (       1 calls)
     electrons    :      3.52s CPU      3.73s WALL (       1 calls)
     forces       :      0.03s CPU      0.04s WALL (       1 calls)
     stress       :      0.12s CPU      0.12s WALL (       1 calls)

     Called by init_run:
     wfcinit      :      0.12s CPU      0.13s WALL (       1 calls)
     potinit      :      0.05s CPU      0.05s WALL (       1 calls)
     hinit0       :      0.14s CPU      0.14s WALL (       1 calls)

     Called by electrons:
     c_bands      :      2.75s CPU      2.92s WALL (       7 calls)
     sum_band     :      0.45s CPU      0.48s WALL (       7 calls)
     v_of_rho     :      0.00s CPU      0.00s WALL (       7 calls)
     newd         :      0.03s CPU      0.04s WALL (       7 calls)
     PAW_pot      :      0.33s CPU      0.34s WALL (       7 calls)
     mix_rho      :      0.00s CPU      0.00s WALL (       7 calls)

     Called by c_bands:
     init_us_2    :      0.06s CPU      0.06s WALL (     799 calls)
     cegterg      :      2.65s CPU      2.81s WALL (     329 calls)

     Called by sum_band:
     sum_band:bec :      0.00s CPU      0.00s WALL (     329 calls)
     addusdens    :      0.03s CPU      0.03s WALL (       7 calls)

     Called by *egterg:
     h_psi        :      1.84s CPU      1.96s WALL (    1189 calls)
     s_psi        :      0.05s CPU      0.06s WALL (    1189 calls)
     g_psi        :      0.00s CPU      0.01s WALL (     813 calls)
     cdiaghg      :      0.48s CPU      0.50s WALL (    1095 calls)

     Called by h_psi:
     h_psi:pot    :      1.83s CPU      1.95s WALL (    1189 calls)
     h_psi:calbec :      0.09s CPU      0.09s WALL (    1189 calls)
     vloc_psi     :      1.68s CPU      1.79s WALL (    1189 calls)
     add_vuspsi   :      0.05s CPU      0.06s WALL (    1189 calls)

     General routines
     calbec       :      0.16s CPU      0.17s WALL (    1753 calls)
     fft          :      0.01s CPU      0.01s WALL (      38 calls)
     ffts         :      0.00s CPU      0.00s WALL (       7 calls)
     fftw         :      1.88s CPU      2.00s WALL (   28598 calls)

     Parallel routines
     fft_scatt_xy :      0.16s CPU      0.17s WALL (   28643 calls)
     fft_scatt_yz :      0.66s CPU      0.69s WALL (   28643 calls)

     PWSCF        :     4.99s CPU         5.30s WALL


   This run was terminated on:  22:38:22   7Apr2024            

=------------------------------------------------------------------------------=
   JOB DONE.
=------------------------------------------------------------------------------=
