
     Program PWSCF v.6.3MaX starts on  7Apr2024 at 23: 4:51 

     This program is part of the open-source Quantum ESPRESSO suite
     for quantum simulation of materials; please cite
         "P. Giannozzi et al., J. Phys.:Condens. Matter 21 395502 (2009);
         "P. Giannozzi et al., J. Phys.:Condens. Matter 29 465901 (2017);
          URL http://www.quantum-espresso.org", 
     in publications or presentations arising from this work. More details at
     http://www.quantum-espresso.org/quote

     Parallel version (MPI), running on     5 processors

     MPI processes distributed on     1 nodes
     R & G space division:  proc/nbgrp/npool/nimage =       5
     Waiting for input...
     Reading input from standard input

     Current dimensions of program PWSCF are:
     Max number of different atomic species (ntypx) = 10
     Max number of k-points (npk) =  40000
     Max angular momentum in pseudopotentials (lmaxx) =  3

     Subspace diagonalization in iterative solution of the eigenvalue problem:
     a serial algorithm will be used


     Parallelization info
     --------------------
     sticks:   dense  smooth     PW     G-vecs:    dense   smooth      PW
     Min         119     119     37                 1967     1967     337
     Max         119     119     38                 1969     1969     338
     Sum         595     595    187                 9841     9841    1687



     bravais-lattice index     =            2
     lattice parameter (alat)  =       6.8300  a.u.
     unit-cell volume          =      79.6530 (a.u.)^3
     number of atoms/cell      =            1
     number of atomic types    =            1
     number of electrons       =        19.00
     number of Kohn-Sham states=           14
     kinetic-energy cutoff     =      95.0000  Ry
     charge density cutoff     =     380.0000  Ry
     convergence threshold     =      1.0E-08
     mixing beta               =       0.7000
     number of iterations used =            8  plain     mixing
     Exchange-correlation      = LDA ( 1  1  0  0 0 0)

     celldm(1)=   6.830000  celldm(2)=   0.000000  celldm(3)=   0.000000
     celldm(4)=   0.000000  celldm(5)=   0.000000  celldm(6)=   0.000000

     crystal axes: (cart. coord. in units of alat)
               a(1) = (  -0.500000   0.000000   0.500000 )  
               a(2) = (   0.000000   0.500000   0.500000 )  
               a(3) = (  -0.500000   0.500000   0.000000 )  

     reciprocal axes: (cart. coord. in units 2 pi/alat)
               b(1) = ( -1.000000 -1.000000  1.000000 )  
               b(2) = (  1.000000  1.000000  1.000000 )  
               b(3) = ( -1.000000  1.000000 -1.000000 )  


     PseudoPot. # 1 for Fr read from file:
     /home/lorenzo/pseudos/Fr/Fr.pz-spdn-rrkjus_psl.1.0.0.UPF
     MD5 check sum: 5665a43a3d1ea02b0b7dc7a0ae9ace04
     Pseudo is Ultrasoft + core correction, Zval = 19.0
     Generated using "atomic" code by A. Dal Corso v.6.2.2
     Using radial grid of 1287 points,  6 beta functions with: 
                l(1) =   0
                l(2) =   0
                l(3) =   1
                l(4) =   1
                l(5) =   2
                l(6) =   2
     Q(r) pseudized with 0 coefficients 


     atomic species   valence    mass     pseudopotential
        Fr            19.00   223.00000     Fr( 1.00)

     48 Sym. Ops., with inversion, found



   Cartesian axes

     site n.     atom                  positions (alat units)
         1           Fr  tau(   1) = (   0.0000000   0.0000000   0.0000000  )

     number of k points=    10  gaussian smearing, width (Ry)=  0.0100
                       cart. coord. in units 2pi/alat
        k(    1) = (   0.0000000   0.0000000   0.0000000), wk =   0.0160000
        k(    2) = (  -0.2000000   0.2000000  -0.2000000), wk =   0.1280000
        k(    3) = (  -0.4000000   0.4000000  -0.4000000), wk =   0.1280000
        k(    4) = (   0.0000000   0.4000000   0.0000000), wk =   0.0960000
        k(    5) = (  -0.2000000   0.6000000  -0.2000000), wk =   0.3840000
        k(    6) = (   0.6000000  -0.2000000   0.6000000), wk =   0.3840000
        k(    7) = (   0.4000000   0.0000000   0.4000000), wk =   0.1920000
        k(    8) = (   0.0000000   0.8000000   0.0000000), wk =   0.0960000
        k(    9) = (   0.8000000   0.0000000   0.8000000), wk =   0.1920000
        k(   10) = (   0.6000000  -0.2000000   1.0000000), wk =   0.3840000

     Dense  grid:     9841 G-vectors     FFT dimensions: (  30,  30,  30)

     Estimated max dynamical RAM per process >       9.58 MB

     Estimated total dynamical RAM >      47.91 MB

     Initial potential from superposition of free atoms

     starting charge   18.97647, renormalised to   19.00000
     Starting wfcs are   10 randomized atomic wfcs +    4 random wfcs

     total cpu time spent up to now is        1.2 secs

     Self-consistent Calculation

     iteration #  1     ecut=    95.00 Ry     beta= 0.70
     Davidson diagonalization with overlap
     ethr =  1.00E-02,  avg # of iterations =  4.6

     Threshold (ethr) on eigenvalues was too large:
     Diagonalizing with lowered threshold

     Davidson diagonalization with overlap
     ethr =  9.07E-05,  avg # of iterations =  1.8

     total cpu time spent up to now is        1.6 secs

     total energy              =    -282.51707871 Ry
     Harris-Foulkes estimate   =    -282.52872094 Ry
     estimated scf accuracy    <       0.01692038 Ry

     iteration #  2     ecut=    95.00 Ry     beta= 0.70
     Davidson diagonalization with overlap
     ethr =  8.91E-05,  avg # of iterations =  2.0

     total cpu time spent up to now is        1.9 secs

     total energy              =    -282.52056861 Ry
     Harris-Foulkes estimate   =    -282.52116298 Ry
     estimated scf accuracy    <       0.00079946 Ry

     iteration #  3     ecut=    95.00 Ry     beta= 0.70
     Davidson diagonalization with overlap
     ethr =  4.21E-06,  avg # of iterations =  2.4

     total cpu time spent up to now is        2.1 secs

     total energy              =    -282.52072536 Ry
     Harris-Foulkes estimate   =    -282.52073666 Ry
     estimated scf accuracy    <       0.00002151 Ry

     iteration #  4     ecut=    95.00 Ry     beta= 0.70
     Davidson diagonalization with overlap
     ethr =  1.13E-07,  avg # of iterations =  2.0

     total cpu time spent up to now is        2.3 secs

     total energy              =    -282.52072747 Ry
     Harris-Foulkes estimate   =    -282.52072764 Ry
     estimated scf accuracy    <       0.00000033 Ry

     iteration #  5     ecut=    95.00 Ry     beta= 0.70
     Davidson diagonalization with overlap
     ethr =  1.73E-09,  avg # of iterations =  2.2

     total cpu time spent up to now is        2.5 secs

     total energy              =    -282.52072755 Ry
     Harris-Foulkes estimate   =    -282.52072756 Ry
     estimated scf accuracy    <       0.00000001 Ry

     iteration #  6     ecut=    95.00 Ry     beta= 0.70
     Davidson diagonalization with overlap
     ethr =  7.01E-11,  avg # of iterations =  2.0

     total cpu time spent up to now is        2.7 secs

     End of self-consistent calculation

          k = 0.0000 0.0000 0.0000 (  1243 PWs)   bands (ev):

    -9.4403  -9.4403  -9.4403  -9.0963  -9.0963   9.1101  46.8987  46.8987
    46.8987  48.1082  53.6854  53.6854  53.6854  57.5021

          k =-0.2000 0.2000-0.2000 (  1254 PWs)   bands (ev):

    -9.4293  -9.3565  -9.3565  -9.0636  -9.0636  10.7142  36.5387  45.0835
    45.0835  47.9998  54.1250  54.8200  54.8200  57.0254

          k =-0.4000 0.4000-0.4000 (  1251 PWs)   bands (ev):

    -9.4260  -9.3756  -9.3756  -8.8486  -8.8486  15.3001  25.6685  42.9916
    42.9916  47.8906  51.3041  51.9313  51.9313  63.3358

          k = 0.0000 0.4000 0.0000 (  1263 PWs)   bands (ev):

    -9.5551  -9.2204  -9.2066  -9.2066  -8.9984  11.2479  40.5472  40.8108
    40.8108  45.2289  47.5159  60.0153  60.1827  60.1827

          k =-0.2000 0.6000-0.2000 (  1252 PWs)   bands (ev):

    -9.5400  -9.3028  -9.1545  -9.0244  -8.8230  14.9052  29.8881  37.5041
    38.8626  44.7122  51.3772  57.9944  58.3950  60.3324

          k = 0.6000-0.2000 0.6000 (  1242 PWs)   bands (ev):

    -9.4519  -9.2634  -9.1969  -8.9488  -8.8603  18.0337  24.9076  34.2773
    40.3079  45.3592  55.4517  55.4772  60.5645  62.2242

          k = 0.4000 0.0000 0.4000 (  1251 PWs)   bands (ev):

    -9.3803  -9.3514  -9.1880  -9.1449  -8.9149  13.3537  32.9001  34.8952
    44.7122  48.4177  52.4893  54.7322  55.2693  57.7566

          k = 0.0000 0.8000 0.0000 (  1246 PWs)   bands (ev):

    -9.7387  -9.4512  -8.8381  -8.8103  -8.8103  17.5115  28.6546  35.9102
    35.9102  42.8653  43.1886  64.1897  67.6655  67.6655

          k = 0.8000 0.0000 0.8000 (  1248 PWs)   bands (ev):

    -9.6286  -9.3717  -8.8957  -8.8817  -8.8029  20.6577  25.9200  30.0680
    36.4784  43.2531  50.0389  61.3067  64.2629  66.2099

          k = 0.6000-0.2000 1.0000 (  1231 PWs)   bands (ev):

    -9.4166  -9.3495  -9.1344  -8.9235  -8.8159  18.9589  28.2329  30.4902
    34.3462  50.4680  50.8448  54.4772  61.6099  65.6831

     the Fermi energy is    45.3597 ev

!    total energy              =    -282.52072755 Ry
     Harris-Foulkes estimate   =    -282.52072755 Ry
     estimated scf accuracy    <          1.9E-10 Ry

     The total energy is the sum of the following terms:

     one-electron contribution =      -4.55274171 Ry
     hartree contribution      =      28.27581210 Ry
     xc contribution           =     -63.90947574 Ry
     ewald contribution        =    -242.33311988 Ry
     smearing contrib. (-TS)   =      -0.00120233 Ry

     convergence has been achieved in   6 iterations

     Forces acting on atoms (cartesian axes, Ry/au):

     atom    1 type  1   force =     0.00000000    0.00000000    0.00000000

     Total force =     0.000000     Total SCF correction =     0.000000


     Computing stress (Cartesian axis) and pressure

          total   stress  (Ry/bohr**3)                   (kbar)     P= 7092.83
   0.04821607  -0.00000000  -0.00000000       7092.83     -0.00     -0.00
  -0.00000000   0.04821607  -0.00000000         -0.00   7092.83     -0.00
  -0.00000000   0.00000000   0.04821607         -0.00      0.00   7092.83


     Writing output data file Fr.save/

     init_run     :      0.34s CPU      0.34s WALL (       1 calls)
     electrons    :      1.43s CPU      1.47s WALL (       1 calls)
     forces       :      0.04s CPU      0.04s WALL (       1 calls)
     stress       :      0.12s CPU      0.12s WALL (       1 calls)

     Called by init_run:
     wfcinit      :      0.05s CPU      0.05s WALL (       1 calls)
     potinit      :      0.01s CPU      0.01s WALL (       1 calls)
     hinit0       :      0.26s CPU      0.26s WALL (       1 calls)

     Called by electrons:
     c_bands      :      1.08s CPU      1.11s WALL (       7 calls)
     sum_band     :      0.27s CPU      0.28s WALL (       7 calls)
     v_of_rho     :      0.01s CPU      0.01s WALL (       7 calls)
     newd         :      0.07s CPU      0.07s WALL (       7 calls)
     mix_rho      :      0.00s CPU      0.00s WALL (       7 calls)

     Called by c_bands:
     init_us_2    :      0.03s CPU      0.03s WALL (     170 calls)
     cegterg      :      1.04s CPU      1.07s WALL (      70 calls)

     Called by sum_band:
     sum_band:bec :      0.00s CPU      0.00s WALL (      70 calls)
     addusdens    :      0.07s CPU      0.07s WALL (       7 calls)

     Called by *egterg:
     h_psi        :      0.78s CPU      0.80s WALL (     250 calls)
     s_psi        :      0.03s CPU      0.03s WALL (     250 calls)
     g_psi        :      0.00s CPU      0.00s WALL (     170 calls)
     cdiaghg      :      0.11s CPU      0.11s WALL (     230 calls)

     Called by h_psi:
     h_psi:pot    :      0.77s CPU      0.80s WALL (     250 calls)
     h_psi:calbec :      0.04s CPU      0.04s WALL (     250 calls)
     vloc_psi     :      0.71s CPU      0.73s WALL (     250 calls)
     add_vuspsi   :      0.03s CPU      0.03s WALL (     250 calls)

     General routines
     calbec       :      0.06s CPU      0.07s WALL (     370 calls)
     fft          :      0.01s CPU      0.01s WALL (      38 calls)
     ffts         :      0.00s CPU      0.00s WALL (       7 calls)
     fftw         :      0.80s CPU      0.83s WALL (    6176 calls)

     Parallel routines
     fft_scatt_xy :      0.07s CPU      0.07s WALL (    6221 calls)
     fft_scatt_yz :      0.19s CPU      0.20s WALL (    6221 calls)

     PWSCF        :     2.80s CPU         2.89s WALL


   This run was terminated on:  23: 4:53   7Apr2024            

=------------------------------------------------------------------------------=
   JOB DONE.
=------------------------------------------------------------------------------=
