
     Program PWSCF v.6.3MaX starts on  7Apr2024 at 22:24: 9 

     This program is part of the open-source Quantum ESPRESSO suite
     for quantum simulation of materials; please cite
         "P. Giannozzi et al., J. Phys.:Condens. Matter 21 395502 (2009);
         "P. Giannozzi et al., J. Phys.:Condens. Matter 29 465901 (2017);
          URL http://www.quantum-espresso.org", 
     in publications or presentations arising from this work. More details at
     http://www.quantum-espresso.org/quote

     Parallel version (MPI), running on     5 processors

     MPI processes distributed on     1 nodes
     R & G space division:  proc/nbgrp/npool/nimage =       5
     Waiting for input...
     Reading input from standard input

     Current dimensions of program PWSCF are:
     Max number of different atomic species (ntypx) = 10
     Max number of k-points (npk) =  40000
     Max angular momentum in pseudopotentials (lmaxx) =  3

     Subspace diagonalization in iterative solution of the eigenvalue problem:
     a serial algorithm will be used


     Parallelization info
     --------------------
     sticks:   dense  smooth     PW     G-vecs:    dense   smooth      PW
     Min          24      24     11                  187      187      51
     Max          25      25     11                  191      191      52
     Sum         121     121     55                  941      941     259



     bravais-lattice index     =            2
     lattice parameter (alat)  =       6.8300  a.u.
     unit-cell volume          =      79.6530 (a.u.)^3
     number of atoms/cell      =            1
     number of atomic types    =            1
     number of electrons       =        19.00
     number of Kohn-Sham states=           14
     kinetic-energy cutoff     =      20.0000  Ry
     charge density cutoff     =      80.0000  Ry
     convergence threshold     =      1.0E-08
     mixing beta               =       0.7000
     number of iterations used =            8  plain     mixing
     Exchange-correlation      = LDA ( 1  1  0  0 0 0)

     celldm(1)=   6.830000  celldm(2)=   0.000000  celldm(3)=   0.000000
     celldm(4)=   0.000000  celldm(5)=   0.000000  celldm(6)=   0.000000

     crystal axes: (cart. coord. in units of alat)
               a(1) = (  -0.500000   0.000000   0.500000 )  
               a(2) = (   0.000000   0.500000   0.500000 )  
               a(3) = (  -0.500000   0.500000   0.000000 )  

     reciprocal axes: (cart. coord. in units 2 pi/alat)
               b(1) = ( -1.000000 -1.000000  1.000000 )  
               b(2) = (  1.000000  1.000000  1.000000 )  
               b(3) = ( -1.000000  1.000000 -1.000000 )  


     PseudoPot. # 1 for Fr read from file:
     /home/lorenzo/pseudos/Fr/Fr.pz-spdn-rrkjus_psl.1.0.0.UPF
     MD5 check sum: 5665a43a3d1ea02b0b7dc7a0ae9ace04
     Pseudo is Ultrasoft + core correction, Zval = 19.0
     Generated using "atomic" code by A. Dal Corso v.6.2.2
     Using radial grid of 1287 points,  6 beta functions with: 
                l(1) =   0
                l(2) =   0
                l(3) =   1
                l(4) =   1
                l(5) =   2
                l(6) =   2
     Q(r) pseudized with 0 coefficients 


     atomic species   valence    mass     pseudopotential
        Fr            19.00   223.00000     Fr( 1.00)

     48 Sym. Ops., with inversion, found



   Cartesian axes

     site n.     atom                  positions (alat units)
         1           Fr  tau(   1) = (   0.0000000   0.0000000   0.0000000  )

     number of k points=    16  gaussian smearing, width (Ry)=  0.0100
                       cart. coord. in units 2pi/alat
        k(    1) = (   0.0000000   0.0000000   0.0000000), wk =   0.0092593
        k(    2) = (  -0.1666667   0.1666667  -0.1666667), wk =   0.0740741
        k(    3) = (  -0.3333333   0.3333333  -0.3333333), wk =   0.0740741
        k(    4) = (   0.5000000  -0.5000000   0.5000000), wk =   0.0370370
        k(    5) = (   0.0000000   0.3333333   0.0000000), wk =   0.0555556
        k(    6) = (  -0.1666667   0.5000000  -0.1666667), wk =   0.2222222
        k(    7) = (   0.6666667  -0.3333333   0.6666667), wk =   0.2222222
        k(    8) = (   0.5000000  -0.1666667   0.5000000), wk =   0.2222222
        k(    9) = (   0.3333333   0.0000000   0.3333333), wk =   0.1111111
        k(   10) = (   0.0000000   0.6666667   0.0000000), wk =   0.0555556
        k(   11) = (   0.8333333  -0.1666667   0.8333333), wk =   0.2222222
        k(   12) = (   0.6666667  -0.0000000   0.6666667), wk =   0.1111111
        k(   13) = (   0.0000000  -1.0000000   0.0000000), wk =   0.0277778
        k(   14) = (   0.6666667  -0.3333333   1.0000000), wk =   0.2222222
        k(   15) = (   0.5000000  -0.1666667   0.8333333), wk =   0.2222222
        k(   16) = (  -0.3333333  -1.0000000   0.0000000), wk =   0.1111111

     Dense  grid:      941 G-vectors     FFT dimensions: (  15,  15,  15)

     Estimated max dynamical RAM per process >       1.58 MB

     Estimated total dynamical RAM >       7.88 MB

     Check: negative/imaginary core charge=   -0.000219    0.000000

     Initial potential from superposition of free atoms

     starting charge   18.97647, renormalised to   19.00000
     Starting wfcs are   10 randomized atomic wfcs +    4 random wfcs

     total cpu time spent up to now is        1.0 secs

     Self-consistent Calculation

     iteration #  1     ecut=    20.00 Ry     beta= 0.70
     Davidson diagonalization with overlap
     ethr =  1.00E-02,  avg # of iterations =  4.6

     total cpu time spent up to now is        1.1 secs

     total energy              =    -272.05024344 Ry
     Harris-Foulkes estimate   =    -273.88406233 Ry
     estimated scf accuracy    <       2.33337322 Ry

     iteration #  2     ecut=    20.00 Ry     beta= 0.70
     Davidson diagonalization with overlap
     ethr =  1.00E-02,  avg # of iterations =  2.0

     total cpu time spent up to now is        1.2 secs

     total energy              =    -272.47326581 Ry
     Harris-Foulkes estimate   =    -272.57908700 Ry
     estimated scf accuracy    <       0.17227673 Ry

     iteration #  3     ecut=    20.00 Ry     beta= 0.70
     Davidson diagonalization with overlap
     ethr =  9.07E-04,  avg # of iterations =  2.0

     total cpu time spent up to now is        1.3 secs

     total energy              =    -272.49852893 Ry
     Harris-Foulkes estimate   =    -272.50597568 Ry
     estimated scf accuracy    <       0.01106830 Ry

     iteration #  4     ecut=    20.00 Ry     beta= 0.70
     Davidson diagonalization with overlap
     ethr =  5.83E-05,  avg # of iterations =  2.0

     total cpu time spent up to now is        1.4 secs

     total energy              =    -272.49976674 Ry
     Harris-Foulkes estimate   =    -272.49981588 Ry
     estimated scf accuracy    <       0.00008050 Ry

     iteration #  5     ecut=    20.00 Ry     beta= 0.70
     Davidson diagonalization with overlap
     ethr =  4.24E-07,  avg # of iterations =  2.4

     total cpu time spent up to now is        1.4 secs

     total energy              =    -272.49978694 Ry
     Harris-Foulkes estimate   =    -272.49978701 Ry
     estimated scf accuracy    <       0.00000073 Ry

     iteration #  6     ecut=    20.00 Ry     beta= 0.70
     Davidson diagonalization with overlap
     ethr =  3.84E-09,  avg # of iterations =  1.4

     total cpu time spent up to now is        1.5 secs

     total energy              =    -272.49978696 Ry
     Harris-Foulkes estimate   =    -272.49978698 Ry
     estimated scf accuracy    <       0.00000005 Ry

     iteration #  7     ecut=    20.00 Ry     beta= 0.70
     Davidson diagonalization with overlap
     ethr =  2.48E-10,  avg # of iterations =  2.0

     total cpu time spent up to now is        1.6 secs

     End of self-consistent calculation

          k = 0.0000 0.0000 0.0000 (   113 PWs)   bands (ev):

    -3.1070  -3.1070  -3.1070  -3.0114  -3.0114   8.3028  45.3056  45.3056
    45.3056  49.2811  56.2022  59.0830  59.0830  59.0830

          k =-0.1667 0.1667-0.1667 (   122 PWs)   bands (ev):

    -5.8179  -5.6771  -5.6771  -4.0485  -4.0485   9.3718  38.1656  44.3714
    44.3714  49.5389  55.4802  58.0338  58.0338  59.0427

          k =-0.3333 0.3333-0.3333 (   117 PWs)   bands (ev):

    -4.5883  -4.5883  -3.7012  -3.0879  -3.0879  12.5605  28.7131  42.4190
    42.4190  49.6236  54.0000  57.4464  57.4464  63.7506

          k = 0.5000-0.5000 0.5000 (   120 PWs)   bands (ev):

    -6.7077  -6.7077  -3.9861  -3.0942  -3.0942  15.8602  23.0854  41.4198
    41.4198  49.0107  54.0121  56.6127  56.6127  65.2900

          k = 0.0000 0.3333 0.0000 (   125 PWs)   bands (ev):

    -7.0129  -6.0869  -6.0869  -4.8053  -4.6127   9.7198  40.2561  41.5428
    41.5428  48.6882  51.6587  60.5070  60.5070  62.2912

          k =-0.1667 0.5000-0.1667 (   120 PWs)   bands (ev):

    -6.6886  -5.8011  -4.9100  -2.8770  -2.3176  12.2095  31.9605  39.4480
    39.7154  48.5998  52.5174  59.8655  60.7516  61.4767

          k = 0.6667-0.3333 0.6667 (   119 PWs)   bands (ev):

    -6.6824  -5.4002  -4.4512  -3.5439  -2.1384  15.9543  24.9876  36.8484
    39.2968  47.9685  57.5585  59.3384  59.9835  61.3502

          k = 0.5000-0.1667 0.5000 (   121 PWs)   bands (ev):

    -7.3215  -5.4276  -4.7230  -4.3740  -2.2787  14.7321  26.9894  35.5661
    41.4990  48.8787  55.8309  58.4240  60.9894  62.2947

          k = 0.3333 0.0000 0.3333 (   127 PWs)   bands (ev):

    -8.5699  -6.4089  -6.4054  -5.0227  -3.8861  11.1529  34.2210  37.3900
    44.5791  51.6281  52.1344  56.8594  58.7910  59.7443

          k = 0.0000 0.6667 0.0000 (   129 PWs)   bands (ev):

    -9.4409  -6.5894  -6.4307  -6.4307  -4.4568  13.9130  31.3471  36.6069
    36.6069  46.5128  47.3048  65.7058  65.7058  66.5654

          k = 0.8333-0.1667 0.8333 (   120 PWs)   bands (ev):

    -8.5754  -5.9560  -4.0295  -3.1250  -1.9717  17.1374  27.0221  32.4552
    36.0582  46.5543  51.3741  63.4329  64.1959  68.7685

          k = 0.6667-0.0000 0.6667 (   122 PWs)   bands (ev):

    -8.0195  -5.7352  -4.4168  -4.1317  -3.4885  17.5561  28.3228  28.4028
    38.0634  47.1735  58.9121  61.2563  61.5352  63.8640

          k = 0.0000-1.0000 0.0000 (   116 PWs)   bands (ev):

    -9.4170  -4.8110  -2.3443  -1.9698  -1.9698  18.6767  24.6063  34.6826
    34.6826  45.8477  46.9720  65.0974  70.3956  70.6206

          k = 0.6667-0.3333 1.0000 (   122 PWs)   bands (ev):

    -7.3755  -6.7629  -4.5985  -4.1399  -2.7038  15.1514  29.3094  32.9203
    37.6073  50.4501  52.6737  57.8016  64.4344  64.8280

          k = 0.5000-0.1667 0.8333 (   114 PWs)   bands (ev):

    -5.2651  -4.2049  -3.5784  -2.2093  -1.8832  17.6909  26.4849  31.5421
    35.8594  50.8069  56.3598  59.5176  60.7547  65.8501

          k =-0.3333-1.0000 0.0000 (   112 PWs)   bands (ev):

    -5.0189  -4.0206  -2.7907  -2.2334  -0.9430  18.7414  26.6068  31.2733
    33.2910  50.9643  52.5891  60.7154  62.1568  69.0942

     the Fermi energy is    48.7588 ev

!    total energy              =    -272.49978697 Ry
     Harris-Foulkes estimate   =    -272.49978697 Ry
     estimated scf accuracy    <          2.7E-11 Ry

     The total energy is the sum of the following terms:

     one-electron contribution =       9.91044930 Ry
     hartree contribution      =      21.72410809 Ry
     xc contribution           =     -61.80065292 Ry
     ewald contribution        =    -242.33311997 Ry
     smearing contrib. (-TS)   =      -0.00057147 Ry

     convergence has been achieved in   7 iterations

     Forces acting on atoms (cartesian axes, Ry/au):

     atom    1 type  1   force =     0.00000000    0.00000000    0.00000000

     Total force =     0.000000     Total SCF correction =     0.000000


     Computing stress (Cartesian axis) and pressure

          total   stress  (Ry/bohr**3)                   (kbar)     P=********
  -0.20851041   0.00000000   0.00000000     -30672.93      0.00      0.00
   0.00000000  -0.20851041  -0.00000000          0.00 -30672.93     -0.00
   0.00000000  -0.00000000  -0.20851041          0.00     -0.00 -30672.93


     Writing output data file Fr.save/

     init_run     :      0.10s CPU      0.10s WALL (       1 calls)
     electrons    :      0.50s CPU      0.57s WALL (       1 calls)
     forces       :      0.01s CPU      0.01s WALL (       1 calls)
     stress       :      0.02s CPU      0.02s WALL (       1 calls)

     Called by init_run:
     wfcinit      :      0.02s CPU      0.02s WALL (       1 calls)
     potinit      :      0.00s CPU      0.00s WALL (       1 calls)
     hinit0       :      0.08s CPU      0.08s WALL (       1 calls)

     Called by electrons:
     c_bands      :      0.42s CPU      0.48s WALL (       7 calls)
     sum_band     :      0.06s CPU      0.07s WALL (       7 calls)
     v_of_rho     :      0.00s CPU      0.00s WALL (       8 calls)
     newd         :      0.01s CPU      0.01s WALL (       8 calls)
     mix_rho      :      0.00s CPU      0.00s WALL (       7 calls)

     Called by c_bands:
     init_us_2    :      0.01s CPU      0.01s WALL (     272 calls)
     cegterg      :      0.41s CPU      0.47s WALL (     112 calls)

     Called by sum_band:
     sum_band:bec :      0.00s CPU      0.00s WALL (     112 calls)
     addusdens    :      0.01s CPU      0.01s WALL (       7 calls)

     Called by *egterg:
     h_psi        :      0.22s CPU      0.26s WALL (     390 calls)
     s_psi        :      0.01s CPU      0.01s WALL (     390 calls)
     g_psi        :      0.00s CPU      0.00s WALL (     262 calls)
     cdiaghg      :      0.14s CPU      0.16s WALL (     374 calls)

     Called by h_psi:
     h_psi:pot    :      0.22s CPU      0.26s WALL (     390 calls)
     h_psi:calbec :      0.01s CPU      0.01s WALL (     390 calls)
     vloc_psi     :      0.20s CPU      0.23s WALL (     390 calls)
     add_vuspsi   :      0.01s CPU      0.01s WALL (     390 calls)

     General routines
     calbec       :      0.02s CPU      0.02s WALL (     582 calls)
     fft          :      0.01s CPU      0.01s WALL (      41 calls)
     ffts         :      0.00s CPU      0.00s WALL (       7 calls)
     fftw         :      0.22s CPU      0.26s WALL (    9936 calls)

     Parallel routines
     fft_scatt_xy :      0.02s CPU      0.03s WALL (    9984 calls)
     fft_scatt_yz :      0.10s CPU      0.11s WALL (    9984 calls)

     PWSCF        :     1.52s CPU         1.65s WALL


   This run was terminated on:  22:24:10   7Apr2024            

=------------------------------------------------------------------------------=
   JOB DONE.
=------------------------------------------------------------------------------=
