
     Program PWSCF v.6.3MaX starts on  7Apr2024 at 22:33:20 

     This program is part of the open-source Quantum ESPRESSO suite
     for quantum simulation of materials; please cite
         "P. Giannozzi et al., J. Phys.:Condens. Matter 21 395502 (2009);
         "P. Giannozzi et al., J. Phys.:Condens. Matter 29 465901 (2017);
          URL http://www.quantum-espresso.org", 
     in publications or presentations arising from this work. More details at
     http://www.quantum-espresso.org/quote

     Parallel version (MPI), running on     5 processors

     MPI processes distributed on     1 nodes
     R & G space division:  proc/nbgrp/npool/nimage =       5
     Waiting for input...
     Reading input from standard input

     Current dimensions of program PWSCF are:
     Max number of different atomic species (ntypx) = 10
     Max number of k-points (npk) =  40000
     Max angular momentum in pseudopotentials (lmaxx) =  3

     Subspace diagonalization in iterative solution of the eigenvalue problem:
     a serial algorithm will be used


     Parallelization info
     --------------------
     sticks:   dense  smooth     PW     G-vecs:    dense   smooth      PW
     Min          59      59     19                  657      657     128
     Max          59      59     20                  658      658     130
     Sum         295     295     97                 3287     3287     645



     bravais-lattice index     =            2
     lattice parameter (alat)  =       6.8300  a.u.
     unit-cell volume          =      79.6530 (a.u.)^3
     number of atoms/cell      =            1
     number of atomic types    =            1
     number of electrons       =        19.00
     number of Kohn-Sham states=           14
     kinetic-energy cutoff     =      45.0000  Ry
     charge density cutoff     =     180.0000  Ry
     convergence threshold     =      1.0E-08
     mixing beta               =       0.7000
     number of iterations used =            8  plain     mixing
     Exchange-correlation      = PBE ( 1  4  3  4 0 0)

     celldm(1)=   6.830000  celldm(2)=   0.000000  celldm(3)=   0.000000
     celldm(4)=   0.000000  celldm(5)=   0.000000  celldm(6)=   0.000000

     crystal axes: (cart. coord. in units of alat)
               a(1) = (  -0.500000   0.000000   0.500000 )  
               a(2) = (   0.000000   0.500000   0.500000 )  
               a(3) = (  -0.500000   0.500000   0.000000 )  

     reciprocal axes: (cart. coord. in units 2 pi/alat)
               b(1) = ( -1.000000 -1.000000  1.000000 )  
               b(2) = (  1.000000  1.000000  1.000000 )  
               b(3) = ( -1.000000  1.000000 -1.000000 )  


     PseudoPot. # 1 for Fr read from file:
     /home/lorenzo/pseudos/Fr/Fr.pbe-spdn-rrkjus_psl.1.0.0.UPF
     MD5 check sum: 07cabfa18982bd6b5b9d8ae5689d9732
     Pseudo is Ultrasoft + core correction, Zval = 19.0
     Generated using "atomic" code by A. Dal Corso v.6.2.2
     Using radial grid of 1287 points,  6 beta functions with: 
                l(1) =   0
                l(2) =   0
                l(3) =   1
                l(4) =   1
                l(5) =   2
                l(6) =   2
     Q(r) pseudized with 0 coefficients 


     atomic species   valence    mass     pseudopotential
        Fr            19.00   223.00000     Fr( 1.00)

     48 Sym. Ops., with inversion, found



   Cartesian axes

     site n.     atom                  positions (alat units)
         1           Fr  tau(   1) = (   0.0000000   0.0000000   0.0000000  )

     number of k points=    47  gaussian smearing, width (Ry)=  0.0100
                       cart. coord. in units 2pi/alat
        k(    1) = (   0.0000000   0.0000000   0.0000000), wk =   0.0020000
        k(    2) = (  -0.1000000   0.1000000  -0.1000000), wk =   0.0160000
        k(    3) = (  -0.2000000   0.2000000  -0.2000000), wk =   0.0160000
        k(    4) = (  -0.3000000   0.3000000  -0.3000000), wk =   0.0160000
        k(    5) = (  -0.4000000   0.4000000  -0.4000000), wk =   0.0160000
        k(    6) = (   0.5000000  -0.5000000   0.5000000), wk =   0.0080000
        k(    7) = (   0.0000000   0.2000000   0.0000000), wk =   0.0120000
        k(    8) = (  -0.1000000   0.3000000  -0.1000000), wk =   0.0480000
        k(    9) = (  -0.2000000   0.4000000  -0.2000000), wk =   0.0480000
        k(   10) = (  -0.3000000   0.5000000  -0.3000000), wk =   0.0480000
        k(   11) = (   0.6000000  -0.4000000   0.6000000), wk =   0.0480000
        k(   12) = (   0.5000000  -0.3000000   0.5000000), wk =   0.0480000
        k(   13) = (   0.4000000  -0.2000000   0.4000000), wk =   0.0480000
        k(   14) = (   0.3000000  -0.1000000   0.3000000), wk =   0.0480000
        k(   15) = (   0.2000000   0.0000000   0.2000000), wk =   0.0240000
        k(   16) = (   0.0000000   0.4000000   0.0000000), wk =   0.0120000
        k(   17) = (  -0.1000000   0.5000000  -0.1000000), wk =   0.0480000
        k(   18) = (  -0.2000000   0.6000000  -0.2000000), wk =   0.0480000
        k(   19) = (   0.7000000  -0.3000000   0.7000000), wk =   0.0480000
        k(   20) = (   0.6000000  -0.2000000   0.6000000), wk =   0.0480000
        k(   21) = (   0.5000000  -0.1000000   0.5000000), wk =   0.0480000
        k(   22) = (   0.4000000   0.0000000   0.4000000), wk =   0.0240000
        k(   23) = (   0.0000000   0.6000000   0.0000000), wk =   0.0120000
        k(   24) = (  -0.1000000   0.7000000  -0.1000000), wk =   0.0480000
        k(   25) = (   0.8000000  -0.2000000   0.8000000), wk =   0.0480000
        k(   26) = (   0.7000000  -0.1000000   0.7000000), wk =   0.0480000
        k(   27) = (   0.6000000  -0.0000000   0.6000000), wk =   0.0240000
        k(   28) = (   0.0000000   0.8000000   0.0000000), wk =   0.0120000
        k(   29) = (   0.9000000  -0.1000000   0.9000000), wk =   0.0480000
        k(   30) = (   0.8000000   0.0000000   0.8000000), wk =   0.0240000
        k(   31) = (   0.0000000  -1.0000000   0.0000000), wk =   0.0060000
        k(   32) = (  -0.2000000   0.4000000   0.0000000), wk =   0.0480000
        k(   33) = (  -0.3000000   0.5000000  -0.1000000), wk =   0.0960000
        k(   34) = (   0.6000000  -0.4000000   0.8000000), wk =   0.0960000
        k(   35) = (   0.5000000  -0.3000000   0.7000000), wk =   0.0480000
        k(   36) = (  -0.2000000   0.6000000   0.0000000), wk =   0.0480000
        k(   37) = (   0.7000000  -0.3000000   0.9000000), wk =   0.0960000
        k(   38) = (   0.6000000  -0.2000000   0.8000000), wk =   0.0960000
        k(   39) = (   0.5000000  -0.1000000   0.7000000), wk =   0.0960000
        k(   40) = (   0.4000000   0.0000000   0.6000000), wk =   0.0480000
        k(   41) = (   0.8000000  -0.2000000   1.0000000), wk =   0.0480000
        k(   42) = (   0.7000000  -0.1000000   0.9000000), wk =   0.0960000
        k(   43) = (   0.6000000   0.0000000   0.8000000), wk =   0.0480000
        k(   44) = (  -0.2000000  -1.0000000   0.0000000), wk =   0.0240000
        k(   45) = (   0.6000000  -0.2000000   1.0000000), wk =   0.0480000
        k(   46) = (   0.5000000  -0.1000000   0.9000000), wk =   0.0480000
        k(   47) = (  -0.4000000  -1.0000000   0.0000000), wk =   0.0240000

     Dense  grid:     3287 G-vectors     FFT dimensions: (  24,  24,  24)

     Estimated max dynamical RAM per process >       4.51 MB

     Estimated total dynamical RAM >      22.55 MB

     Check: negative/imaginary core charge=   -0.000013    0.000000

     Initial potential from superposition of free atoms

     starting charge   18.97009, renormalised to   19.00000
     Starting wfcs are   10 randomized atomic wfcs +    4 random wfcs

     total cpu time spent up to now is        1.2 secs

     Self-consistent Calculation

     iteration #  1     ecut=    45.00 Ry     beta= 0.70
     Davidson diagonalization with overlap
     ethr =  1.00E-02,  avg # of iterations =  4.6

     Threshold (ethr) on eigenvalues was too large:
     Diagonalizing with lowered threshold

     Davidson diagonalization with overlap
     ethr =  1.08E-04,  avg # of iterations =  1.7

     total cpu time spent up to now is        2.3 secs

     total energy              =    -282.79348762 Ry
     Harris-Foulkes estimate   =    -282.80665154 Ry
     estimated scf accuracy    <       0.02056646 Ry

     iteration #  2     ecut=    45.00 Ry     beta= 0.70
     Davidson diagonalization with overlap
     ethr =  1.08E-04,  avg # of iterations =  2.0

     total cpu time spent up to now is        2.8 secs

     total energy              =    -282.79737898 Ry
     Harris-Foulkes estimate   =    -282.79796644 Ry
     estimated scf accuracy    <       0.00081404 Ry

     iteration #  3     ecut=    45.00 Ry     beta= 0.70
     Davidson diagonalization with overlap
     ethr =  4.28E-06,  avg # of iterations =  2.3

     total cpu time spent up to now is        3.2 secs

     total energy              =    -282.79754987 Ry
     Harris-Foulkes estimate   =    -282.79756015 Ry
     estimated scf accuracy    <       0.00003059 Ry

     iteration #  4     ecut=    45.00 Ry     beta= 0.70
     Davidson diagonalization with overlap
     ethr =  1.61E-07,  avg # of iterations =  1.9

     total cpu time spent up to now is        3.6 secs

     total energy              =    -282.79755263 Ry
     Harris-Foulkes estimate   =    -282.79755258 Ry
     estimated scf accuracy    <       0.00000020 Ry

     iteration #  5     ecut=    45.00 Ry     beta= 0.70
     Davidson diagonalization with overlap
     ethr =  1.03E-09,  avg # of iterations =  2.0

     total cpu time spent up to now is        4.0 secs

     End of self-consistent calculation

          k = 0.0000 0.0000 0.0000 (   411 PWs)   bands (ev):

    -9.3057  -9.3057  -9.3057  -8.9758  -8.9758   9.4740  47.2882  47.2882
    47.2882  48.3173  54.0449  54.0449  54.0449  57.8195

          k =-0.1000 0.1000-0.1000 (   402 PWs)   bands (ev):

    -9.2837  -9.2668  -9.2668  -8.9649  -8.9649   9.8749  43.1231  46.6908
    46.6908  48.2158  55.0457  55.0457  55.9237  57.4903

          k =-0.2000 0.2000-0.2000 (   402 PWs)   bands (ev):

    -9.2889  -9.2206  -9.2206  -8.9218  -8.9218  11.0802  36.8799  45.4608
    45.4608  48.2582  54.4049  55.1597  55.1597  57.3956

          k =-0.3000 0.3000-0.3000 (   401 PWs)   bands (ev):

    -9.2945  -9.2038  -9.2038  -8.8292  -8.8292  13.0724  30.9964  44.2361
    44.2361  48.2411  52.6535  53.3660  53.3660  60.4684

          k =-0.4000 0.4000-0.4000 (   407 PWs)   bands (ev):

    -9.2953  -9.2303  -9.2303  -8.7325  -8.7325  15.6849  25.9753  43.3525
    43.3525  48.1384  51.6333  52.2891  52.2891  63.6883

          k = 0.5000-0.5000 0.5000 (   410 PWs)   bands (ev):

    -9.2840  -9.2527  -9.2527  -8.6923  -8.6923  17.5639  23.2840  43.0311
    43.0311  48.0692  51.3426  51.9239  51.9239  65.4887

          k = 0.0000 0.2000 0.0000 (   399 PWs)   bands (ev):

    -9.3343  -9.2255  -9.2255  -8.9836  -8.9396  10.0084  44.8198  44.8198
    45.2943  47.1790  53.6522  56.0589  56.8096  56.8096

          k =-0.1000 0.3000-0.1000 (   400 PWs)   bands (ev):

    -9.3414  -9.1693  -9.1653  -9.0023  -8.8961  10.9456  39.1372  43.1589
    44.7711  48.2427  50.9847  55.9009  58.2071  58.4294

          k =-0.2000 0.4000-0.2000 (   403 PWs)   bands (ev):

    -9.3291  -9.1685  -9.1486  -8.9466  -8.7996  12.6787  33.1386  42.0026
    43.3428  47.5988  52.3728  55.7099  56.4463  56.9267

          k =-0.3000 0.5000-0.3000 (   407 PWs)   bands (ev):

    -9.3074  -9.2026  -9.1673  -8.8394  -8.7147  15.1148  27.8280  41.5090
    41.6810  46.7405  54.0548  54.7211  54.7427  58.4993

          k = 0.6000-0.4000 0.6000 (   407 PWs)   bands (ev):

    -9.2859  -9.2212  -9.1948  -8.7503  -8.6834  17.5759  24.0432  40.3129
    41.7833  46.6610  53.3032  53.5146  55.2397  62.3785

          k = 0.5000-0.3000 0.5000 (   403 PWs)   bands (ev):

    -9.2601  -9.2313  -9.1905  -8.7389  -8.7177  16.8777  25.0150  39.5709
    42.8658  47.2714  52.4562  52.8771  56.3462  63.0091

          k = 0.4000-0.2000 0.4000 (   405 PWs)   bands (ev):

    -9.2736  -9.2110  -9.1736  -8.8608  -8.7636  14.2374  29.5122  39.5512
    44.6569  48.5052  51.8320  52.7763  57.8517  59.3169

          k = 0.3000-0.1000 0.3000 (   396 PWs)   bands (ev):

    -9.2758  -9.1863  -9.1616  -8.9633  -8.8437  12.0144  35.0848  40.2474
    46.7462  49.8554  51.6821  53.3271  56.1064  57.8114

          k = 0.2000 0.0000 0.2000 (   395 PWs)   bands (ev):

    -9.2876  -9.2210  -9.2136  -8.9710  -8.9165  10.5441  40.7681  41.9616
    47.8183  49.2751  53.6391  54.4293  54.8362  56.6201

          k = 0.0000 0.4000 0.0000 (   407 PWs)   bands (ev):

    -9.4178  -9.0790  -9.0691  -9.0691  -8.8766  11.6145  40.9503  41.1575
    41.1575  45.4859  47.8078  60.3223  60.4674  60.4674

          k =-0.1000 0.5000-0.1000 (   409 PWs)   bands (ev):

    -9.4298  -9.1503  -9.0148  -8.9734  -8.7886  13.0812  35.5048  39.7857
    40.0875  45.5252  47.8428  60.0590  60.1864  61.3024

          k =-0.2000 0.6000-0.2000 (   404 PWs)   bands (ev):

    -9.3901  -9.1719  -9.0119  -8.8966  -8.6959  15.2831  30.2187  37.8399
    39.1991  45.0056  51.7077  58.3468  58.7068  60.6731

          k = 0.7000-0.3000 0.7000 (   407 PWs)   bands (ev):

    -9.3553  -9.1524  -9.0389  -8.8541  -8.6782  17.8407  25.9826  35.8833
    39.4809  45.0318  56.2488  56.8349  57.2994  61.0052

          k = 0.6000-0.2000 0.6000 (   404 PWs)   bands (ev):

    -9.3081  -9.1318  -9.0550  -8.8257  -8.7399  18.4489  25.1921  34.5999
    40.6519  45.6504  55.7724  55.8365  60.8723  62.5968

          k = 0.5000-0.1000 0.5000 (   408 PWs)   bands (ev):

    -9.2595  -9.1870  -9.0516  -8.8806  -8.7925  16.0993  28.8207  34.1502
    42.6241  46.8682  54.5783  55.3573  59.0154  60.1813

          k = 0.4000 0.0000 0.4000 (   409 PWs)   bands (ev):

    -9.2534  -9.2139  -9.0514  -9.0147  -8.7996  13.7258  33.2551  35.1928
    45.0877  48.7031  52.7632  55.0845  55.6129  58.1141

          k = 0.0000 0.6000 0.0000 (   415 PWs)   bands (ev):

    -9.5116  -9.2191  -8.8656  -8.8656  -8.7898  14.2800  35.0419  38.1566
    38.1566  44.2184  44.5959  63.8829  63.8829  64.7874

          k =-0.1000 0.7000-0.1000 (   412 PWs)   bands (ev):

    -9.5185  -9.2483  -8.8501  -8.7968  -8.6927  16.2252  31.4320  35.5588
    37.3300  43.8957  46.3601  62.1929  63.4333  66.7424

          k = 0.8000-0.2000 0.8000 (   408 PWs)   bands (ev):

    -9.4554  -9.2125  -8.8679  -8.8019  -8.6649  18.6504  27.9548  32.5280
    37.4133  43.8875  50.7176  60.4284  61.6797  66.9750

          k = 0.7000-0.1000 0.7000 (   404 PWs)   bands (ev):

    -9.3843  -9.0777  -8.8942  -8.8879  -8.7272  20.0519  26.4957  30.3741
    38.4185  44.3714  55.7980  59.1245  60.1019  64.5123

          k = 0.6000-0.0000 0.6000 (   403 PWs)   bands (ev):

    -9.3197  -9.0411  -8.9310  -8.8968  -8.8457  18.4152  28.7031  29.7696
    40.2492  45.3627  57.9848  57.9983  60.3469  60.5610

          k = 0.0000 0.8000 0.0000 (   404 PWs)   bands (ev):

    -9.5790  -9.3025  -8.6934  -8.6902  -8.6902  17.9011  28.9972  36.2320
    36.2320  43.1957  43.4906  64.5043  67.9814  67.9815

          k = 0.9000-0.1000 0.9000 (   411 PWs)   bands (ev):

    -9.5703  -9.3130  -8.7307  -8.6783  -8.6439  20.0227  26.5502  33.6924
    36.0454  43.2170  45.6687  63.3399  66.8740  69.7970

          k = 0.8000 0.0000 0.8000 (   405 PWs)   bands (ev):

    -9.4770  -9.2266  -8.7720  -8.7534  -8.6812  21.1125  26.1974  30.3627
    36.8024  43.5650  50.3754  61.6065  64.5631  66.5589

          k = 0.0000-1.0000 0.0000 (   412 PWs)   bands (ev):

    -9.6299  -9.3565  -8.6717  -8.6178  -8.6178  21.1013  24.9362  35.5699
    35.5699  42.7680  43.2061  64.3844  70.3619  71.3330

          k =-0.2000 0.4000 0.0000 (   400 PWs)   bands (ev):

    -9.3475  -9.1468  -9.0727  -9.0256  -8.8291  12.1480  36.8531  38.5703
    44.4910  48.5856  49.3495  56.0537  57.4425  59.9569

          k =-0.3000 0.5000-0.1000 (   407 PWs)   bands (ev):

    -9.3197  -9.1846  -9.0647  -8.9496  -8.7640  14.1196  31.7744  37.0576
    42.2774  48.1600  51.8630  54.6450  57.7318  61.4710

          k = 0.6000-0.4000 0.8000 (   409 PWs)   bands (ev):

    -9.2775  -9.2225  -9.0813  -8.8478  -8.7166  16.6672  26.9772  36.7144
    40.3344  47.6369  52.3611  57.1874  58.1996  59.9450

          k = 0.5000-0.3000 0.7000 (   404 PWs)   bands (ev):

    -9.2527  -9.2255  -9.0748  -8.8076  -8.7054  18.4407  24.4381  36.7416
    39.5222  47.4532  52.1157  58.3784  58.9078  61.7723

          k =-0.2000 0.6000 0.0000 (   413 PWs)   bands (ev):

    -9.4371  -9.1970  -8.9723  -8.8775  -8.7496  14.7882  33.2268  35.8487
    38.7180  47.0976  47.1407  58.0719  62.5435  65.3892

          k = 0.7000-0.3000 0.9000 (   406 PWs)   bands (ev):

    -9.3821  -9.1954  -8.9749  -8.8216  -8.6995  17.1328  29.2681  34.0652
    37.0099  46.9144  51.1905  56.2061  63.1241  64.1390

          k = 0.6000-0.2000 0.8000 (   408 PWs)   bands (ev):

    -9.3277  -9.1506  -8.9686  -8.8768  -8.6959  19.3448  26.1264  32.7907
    36.7980  47.2176  54.3294  56.5286  61.8369  62.9367

          k = 0.5000-0.1000 0.7000 (   408 PWs)   bands (ev):

    -9.2820  -9.1566  -8.9695  -8.8834  -8.7533  18.6805  27.1234  31.9232
    37.9266  48.0631  53.5889  57.8617  61.0729  61.4378

          k = 0.4000 0.0000 0.6000 (   406 PWs)   bands (ev):

    -9.2487  -9.2229  -9.0106  -8.8777  -8.7784  16.2505  30.5265  32.5034
    39.9207  49.2579  52.1928  54.7578  59.9488  62.8970

          k = 0.8000-0.2000 1.0000 (   412 PWs)   bands (ev):

    -9.5122  -9.2706  -8.8350  -8.6995  -8.6940  18.3079  28.9463  34.0934
    35.0668  46.0004  46.1455  60.4794  66.3455  67.9430

          k = 0.7000-0.1000 0.9000 (   408 PWs)   bands (ev):

    -9.4271  -9.2196  -8.8709  -8.7764  -8.6546  20.4385  27.1087  30.9925
    34.8671  46.3030  50.6199  58.6942  63.4145  66.5304

          k = 0.6000 0.0000 0.8000 (   406 PWs)   bands (ev):

    -9.3445  -9.0800  -8.9861  -8.8493  -8.7012  20.5404  28.0048  28.5742
    35.9890  47.0382  55.8956  56.8221  59.4647  64.2415

          k =-0.2000-1.0000 0.0000 (   414 PWs)   bands (ev):

    -9.5414  -9.3084  -8.7323  -8.7283  -8.6262  21.2050  25.5698  33.4863
    34.0394  45.6357  45.8278  61.9885  66.2601  68.4771

          k = 0.6000-0.2000 1.0000 (   408 PWs)   bands (ev):

    -9.2820  -9.2189  -8.9989  -8.8043  -8.6973  19.3732  28.5585  30.7799
    34.6478  50.8005  51.1462  54.8189  61.9414  65.9790

          k = 0.5000-0.1000 0.9000 (   404 PWs)   bands (ev):

    -9.2307  -9.1543  -9.0541  -8.8513  -8.6574  20.7344  27.5101  29.9732
    33.7013  50.9009  53.1881  56.4355  57.3651  67.1453

          k =-0.4000-1.0000 0.0000 (   404 PWs)   bands (ev):

    -9.2932  -9.2076  -8.9801  -8.8154  -8.6213  21.3873  27.3951  30.1861
    32.3904  50.7910  51.2372  56.4421  58.9577  69.2165

     the Fermi energy is    46.9276 ev

!    total energy              =    -282.79755268 Ry
     Harris-Foulkes estimate   =    -282.79755268 Ry
     estimated scf accuracy    <          3.3E-09 Ry

     The total energy is the sum of the following terms:

     one-electron contribution =      -4.01664058 Ry
     hartree contribution      =      28.12132468 Ry
     xc contribution           =     -64.56857177 Ry
     ewald contribution        =    -242.33311996 Ry
     smearing contrib. (-TS)   =      -0.00054505 Ry

     convergence has been achieved in   5 iterations

     Forces acting on atoms (cartesian axes, Ry/au):

     atom    1 type  1   force =     0.00000000    0.00000000    0.00000000

     Total force =     0.000000     Total SCF correction =     0.000000


     Computing stress (Cartesian axis) and pressure

          total   stress  (Ry/bohr**3)                   (kbar)     P= 6631.81
   0.04508213  -0.00000000  -0.00000000       6631.81     -0.00     -0.00
  -0.00000000   0.04508213  -0.00000000         -0.00   6631.81     -0.00
  -0.00000000  -0.00000000   0.04508213         -0.00     -0.00   6631.81


     Writing output data file Fr.save/

     init_run     :      0.26s CPU      0.27s WALL (       1 calls)
     electrons    :      2.70s CPU      2.88s WALL (       1 calls)
     forces       :      0.03s CPU      0.03s WALL (       1 calls)
     stress       :      0.08s CPU      0.08s WALL (       1 calls)

     Called by init_run:
     wfcinit      :      0.12s CPU      0.13s WALL (       1 calls)
     potinit      :      0.01s CPU      0.01s WALL (       1 calls)
     hinit0       :      0.13s CPU      0.13s WALL (       1 calls)

     Called by electrons:
     c_bands      :      2.31s CPU      2.47s WALL (       6 calls)
     sum_band     :      0.35s CPU      0.38s WALL (       6 calls)
     v_of_rho     :      0.02s CPU      0.02s WALL (       6 calls)
     newd         :      0.02s CPU      0.02s WALL (       6 calls)
     mix_rho      :      0.00s CPU      0.00s WALL (       6 calls)

     Called by c_bands:
     init_us_2    :      0.04s CPU      0.04s WALL (     705 calls)
     cegterg      :      2.23s CPU      2.38s WALL (     282 calls)

     Called by sum_band:
     sum_band:bec :      0.00s CPU      0.00s WALL (     282 calls)
     addusdens    :      0.02s CPU      0.02s WALL (       6 calls)

     Called by *egterg:
     h_psi        :      1.58s CPU      1.69s WALL (    1013 calls)
     s_psi        :      0.04s CPU      0.04s WALL (    1013 calls)
     g_psi        :      0.00s CPU      0.00s WALL (     684 calls)
     cdiaghg      :      0.42s CPU      0.45s WALL (     919 calls)

     Called by h_psi:
     h_psi:pot    :      1.57s CPU      1.68s WALL (    1013 calls)
     h_psi:calbec :      0.06s CPU      0.07s WALL (    1013 calls)
     vloc_psi     :      1.46s CPU      1.56s WALL (    1013 calls)
     add_vuspsi   :      0.04s CPU      0.04s WALL (    1013 calls)

     General routines
     calbec       :      0.10s CPU      0.10s WALL (    1530 calls)
     fft          :      0.01s CPU      0.01s WALL (      93 calls)
     ffts         :      0.00s CPU      0.00s WALL (       6 calls)
     fftw         :      1.60s CPU      1.72s WALL (   25052 calls)

     Parallel routines
     fft_scatt_xy :      0.15s CPU      0.16s WALL (   25151 calls)
     fft_scatt_yz :      0.50s CPU      0.52s WALL (   25151 calls)

     PWSCF        :     4.00s CPU         4.28s WALL


   This run was terminated on:  22:33:24   7Apr2024            

=------------------------------------------------------------------------------=
   JOB DONE.
=------------------------------------------------------------------------------=
