
     Program PWSCF v.6.3MaX starts on  7Apr2024 at 22:31: 4 

     This program is part of the open-source Quantum ESPRESSO suite
     for quantum simulation of materials; please cite
         "P. Giannozzi et al., J. Phys.:Condens. Matter 21 395502 (2009);
         "P. Giannozzi et al., J. Phys.:Condens. Matter 29 465901 (2017);
          URL http://www.quantum-espresso.org", 
     in publications or presentations arising from this work. More details at
     http://www.quantum-espresso.org/quote

     Parallel version (MPI), running on     5 processors

     MPI processes distributed on     1 nodes
     R & G space division:  proc/nbgrp/npool/nimage =       5
     Waiting for input...
     Reading input from standard input

     Current dimensions of program PWSCF are:
     Max number of different atomic species (ntypx) = 10
     Max number of k-points (npk) =  40000
     Max angular momentum in pseudopotentials (lmaxx) =  3
               file Fr.pbe-spdn-kjpaw_psl.1.0.0.UPF: wavefunction(s)  6P renormalized

     Subspace diagonalization in iterative solution of the eigenvalue problem:
     a serial algorithm will be used


     Parallelization info
     --------------------
     sticks:   dense  smooth     PW     G-vecs:    dense   smooth      PW
     Min          50      50     17                  544      544     107
     Max          51      51     17                  548      548     108
     Sum         253     253     85                 2733     2733     537



     bravais-lattice index     =            2
     lattice parameter (alat)  =       6.8300  a.u.
     unit-cell volume          =      79.6530 (a.u.)^3
     number of atoms/cell      =            1
     number of atomic types    =            1
     number of electrons       =        19.00
     number of Kohn-Sham states=           14
     kinetic-energy cutoff     =      40.0000  Ry
     charge density cutoff     =     160.0000  Ry
     convergence threshold     =      1.0E-08
     mixing beta               =       0.7000
     number of iterations used =            8  plain     mixing
     Exchange-correlation      = SLA PW PBX PBC ( 1  4  3  4 0 0)

     celldm(1)=   6.830000  celldm(2)=   0.000000  celldm(3)=   0.000000
     celldm(4)=   0.000000  celldm(5)=   0.000000  celldm(6)=   0.000000

     crystal axes: (cart. coord. in units of alat)
               a(1) = (  -0.500000   0.000000   0.500000 )  
               a(2) = (   0.000000   0.500000   0.500000 )  
               a(3) = (  -0.500000   0.500000   0.000000 )  

     reciprocal axes: (cart. coord. in units 2 pi/alat)
               b(1) = ( -1.000000 -1.000000  1.000000 )  
               b(2) = (  1.000000  1.000000  1.000000 )  
               b(3) = ( -1.000000  1.000000 -1.000000 )  


     PseudoPot. # 1 for Fr read from file:
     /home/lorenzo/pseudos/Fr/Fr.pbe-spdn-kjpaw_psl.1.0.0.UPF
     MD5 check sum: 362a188b966a64328b94f1ef5f32e8c4
     Pseudo is Projector augmented-wave + core cor, Zval = 19.0
     Generated using "atomic" code by A. Dal Corso v.6.2.2
     Shape of augmentation charge: PSQ
     Using radial grid of 1287 points,  6 beta functions with: 
                l(1) =   0
                l(2) =   0
                l(3) =   1
                l(4) =   1
                l(5) =   2
                l(6) =   2
     Q(r) pseudized with 0 coefficients 


     atomic species   valence    mass     pseudopotential
        Fr            19.00   223.00000     Fr( 1.00)

     48 Sym. Ops., with inversion, found



   Cartesian axes

     site n.     atom                  positions (alat units)
         1           Fr  tau(   1) = (   0.0000000   0.0000000   0.0000000  )

     number of k points=    47  gaussian smearing, width (Ry)=  0.0100
                       cart. coord. in units 2pi/alat
        k(    1) = (   0.0000000   0.0000000   0.0000000), wk =   0.0020000
        k(    2) = (  -0.1000000   0.1000000  -0.1000000), wk =   0.0160000
        k(    3) = (  -0.2000000   0.2000000  -0.2000000), wk =   0.0160000
        k(    4) = (  -0.3000000   0.3000000  -0.3000000), wk =   0.0160000
        k(    5) = (  -0.4000000   0.4000000  -0.4000000), wk =   0.0160000
        k(    6) = (   0.5000000  -0.5000000   0.5000000), wk =   0.0080000
        k(    7) = (   0.0000000   0.2000000   0.0000000), wk =   0.0120000
        k(    8) = (  -0.1000000   0.3000000  -0.1000000), wk =   0.0480000
        k(    9) = (  -0.2000000   0.4000000  -0.2000000), wk =   0.0480000
        k(   10) = (  -0.3000000   0.5000000  -0.3000000), wk =   0.0480000
        k(   11) = (   0.6000000  -0.4000000   0.6000000), wk =   0.0480000
        k(   12) = (   0.5000000  -0.3000000   0.5000000), wk =   0.0480000
        k(   13) = (   0.4000000  -0.2000000   0.4000000), wk =   0.0480000
        k(   14) = (   0.3000000  -0.1000000   0.3000000), wk =   0.0480000
        k(   15) = (   0.2000000   0.0000000   0.2000000), wk =   0.0240000
        k(   16) = (   0.0000000   0.4000000   0.0000000), wk =   0.0120000
        k(   17) = (  -0.1000000   0.5000000  -0.1000000), wk =   0.0480000
        k(   18) = (  -0.2000000   0.6000000  -0.2000000), wk =   0.0480000
        k(   19) = (   0.7000000  -0.3000000   0.7000000), wk =   0.0480000
        k(   20) = (   0.6000000  -0.2000000   0.6000000), wk =   0.0480000
        k(   21) = (   0.5000000  -0.1000000   0.5000000), wk =   0.0480000
        k(   22) = (   0.4000000   0.0000000   0.4000000), wk =   0.0240000
        k(   23) = (   0.0000000   0.6000000   0.0000000), wk =   0.0120000
        k(   24) = (  -0.1000000   0.7000000  -0.1000000), wk =   0.0480000
        k(   25) = (   0.8000000  -0.2000000   0.8000000), wk =   0.0480000
        k(   26) = (   0.7000000  -0.1000000   0.7000000), wk =   0.0480000
        k(   27) = (   0.6000000  -0.0000000   0.6000000), wk =   0.0240000
        k(   28) = (   0.0000000   0.8000000   0.0000000), wk =   0.0120000
        k(   29) = (   0.9000000  -0.1000000   0.9000000), wk =   0.0480000
        k(   30) = (   0.8000000   0.0000000   0.8000000), wk =   0.0240000
        k(   31) = (   0.0000000  -1.0000000   0.0000000), wk =   0.0060000
        k(   32) = (  -0.2000000   0.4000000   0.0000000), wk =   0.0480000
        k(   33) = (  -0.3000000   0.5000000  -0.1000000), wk =   0.0960000
        k(   34) = (   0.6000000  -0.4000000   0.8000000), wk =   0.0960000
        k(   35) = (   0.5000000  -0.3000000   0.7000000), wk =   0.0480000
        k(   36) = (  -0.2000000   0.6000000   0.0000000), wk =   0.0480000
        k(   37) = (   0.7000000  -0.3000000   0.9000000), wk =   0.0960000
        k(   38) = (   0.6000000  -0.2000000   0.8000000), wk =   0.0960000
        k(   39) = (   0.5000000  -0.1000000   0.7000000), wk =   0.0960000
        k(   40) = (   0.4000000   0.0000000   0.6000000), wk =   0.0480000
        k(   41) = (   0.8000000  -0.2000000   1.0000000), wk =   0.0480000
        k(   42) = (   0.7000000  -0.1000000   0.9000000), wk =   0.0960000
        k(   43) = (   0.6000000   0.0000000   0.8000000), wk =   0.0480000
        k(   44) = (  -0.2000000  -1.0000000   0.0000000), wk =   0.0240000
        k(   45) = (   0.6000000  -0.2000000   1.0000000), wk =   0.0480000
        k(   46) = (   0.5000000  -0.1000000   0.9000000), wk =   0.0480000
        k(   47) = (  -0.4000000  -1.0000000   0.0000000), wk =   0.0240000

     Dense  grid:     2733 G-vectors     FFT dimensions: (  20,  20,  20)

     Estimated max dynamical RAM per process >       3.83 MB

     Estimated total dynamical RAM >      19.14 MB

     Check: negative/imaginary core charge=   -0.000005    0.000000

     Initial potential from superposition of free atoms

     starting charge   18.97009, renormalised to   19.00000
     Starting wfcs are   10 randomized atomic wfcs +    4 random wfcs
     Checking if some PAW data can be deallocated... 

     total cpu time spent up to now is        1.3 secs

     Self-consistent Calculation

     iteration #  1     ecut=    40.00 Ry     beta= 0.70
     Davidson diagonalization with overlap
     ethr =  1.00E-02,  avg # of iterations =  4.7

     Threshold (ethr) on eigenvalues was too large:
     Diagonalizing with lowered threshold

     Davidson diagonalization with overlap
     ethr =  1.47E-04,  avg # of iterations =  1.3

     total cpu time spent up to now is        2.2 secs

     total energy              =   -1069.76688511 Ry
     Harris-Foulkes estimate   =   -1069.78628792 Ry
     estimated scf accuracy    <       0.02805879 Ry

     iteration #  2     ecut=    40.00 Ry     beta= 0.70
     Davidson diagonalization with overlap
     ethr =  1.48E-04,  avg # of iterations =  2.0

     total cpu time spent up to now is        2.7 secs

     total energy              =   -1069.77386350 Ry
     Harris-Foulkes estimate   =   -1069.77430244 Ry
     estimated scf accuracy    <       0.00114451 Ry

     iteration #  3     ecut=    40.00 Ry     beta= 0.70
     Davidson diagonalization with overlap
     ethr =  6.02E-06,  avg # of iterations =  2.4

     total cpu time spent up to now is        3.2 secs

     total energy              =   -1069.77406826 Ry
     Harris-Foulkes estimate   =   -1069.77403975 Ry
     estimated scf accuracy    <       0.00002619 Ry

     iteration #  4     ecut=    40.00 Ry     beta= 0.70
     Davidson diagonalization with overlap
     ethr =  1.38E-07,  avg # of iterations =  2.0

     total cpu time spent up to now is        3.6 secs

     total energy              =   -1069.77407280 Ry
     Harris-Foulkes estimate   =   -1069.77407204 Ry
     estimated scf accuracy    <       0.00000029 Ry

     iteration #  5     ecut=    40.00 Ry     beta= 0.70
     Davidson diagonalization with overlap
     ethr =  1.54E-09,  avg # of iterations =  2.1

     total cpu time spent up to now is        4.0 secs

     End of self-consistent calculation

          k = 0.0000 0.0000 0.0000 (   331 PWs)   bands (ev):

    -9.3946  -9.3946  -9.3946  -9.0642  -9.0642   9.4528  47.2297  47.2297
    47.2297  48.3379  54.2700  54.2700  54.2700  57.7836

          k =-0.1000 0.1000-0.1000 (   335 PWs)   bands (ev):

    -9.4166  -9.3856  -9.3856  -9.0518  -9.0518   9.8532  43.1005  46.6464
    46.6464  48.2361  55.1970  55.1970  55.9702  57.5524

          k =-0.2000 0.2000-0.2000 (   332 PWs)   bands (ev):

    -9.3381  -9.3246  -9.3246  -8.9717  -8.9717  11.0572  36.8756  45.4290
    45.4290  48.3070  54.4140  55.2794  55.2794  57.5343

          k =-0.3000 0.3000-0.3000 (   344 PWs)   bands (ev):

    -9.3646  -9.3303  -9.3303  -8.9503  -8.9503  13.0474  30.9853  44.1960
    44.1960  48.2907  52.6982  53.4752  53.4752  60.5480

          k =-0.4000 0.4000-0.4000 (   344 PWs)   bands (ev):

    -9.4104  -9.3353  -9.3353  -8.8087  -8.8087  15.6556  25.9585  43.3073
    43.3073  48.1666  51.6918  52.4360  52.4360  63.7435

          k = 0.5000-0.5000 0.5000 (   344 PWs)   bands (ev):

    -9.4408  -9.3634  -9.3634  -8.7334  -8.7334  17.5257  23.2708  42.9816
    42.9816  48.0901  51.3700  52.0842  52.0842  65.4812

          k = 0.0000 0.2000 0.0000 (   335 PWs)   bands (ev):

    -9.4586  -9.3477  -9.3477  -9.0756  -9.0289   9.9865  44.7938  44.7938
    45.2315  47.2388  53.7042  56.2007  56.9246  56.9246

          k =-0.1000 0.3000-0.1000 (   335 PWs)   bands (ev):

    -9.4520  -9.2614  -9.2569  -9.0825  -8.9741  10.9227  39.1195  43.1430
    44.7485  48.2709  51.0503  56.0522  58.2754  58.4683

          k =-0.2000 0.4000-0.2000 (   338 PWs)   bands (ev):

    -9.4027  -9.2530  -9.2443  -9.0411  -8.8961  12.6542  33.1275  41.9811
    43.3254  47.6688  52.4060  55.8341  56.5565  57.0113

          k =-0.3000 0.5000-0.3000 (   339 PWs)   bands (ev):

    -9.3938  -9.2760  -9.2533  -8.9195  -8.7731  15.0880  27.8141  41.4838
    41.6589  46.8117  54.1197  54.8506  54.8578  58.5797

          k = 0.6000-0.4000 0.6000 (   342 PWs)   bands (ev):

    -9.3856  -9.3180  -9.2845  -8.8313  -8.7277  17.5422  24.0299  40.2872
    41.7499  46.7252  53.3732  53.6722  55.3484  62.4145

          k = 0.5000-0.3000 0.5000 (   340 PWs)   bands (ev):

    -9.3695  -9.3050  -9.2774  -8.7995  -8.7748  16.8461  25.0000  39.5535
    42.8272  47.3230  52.5263  53.0399  56.4598  63.0693

          k = 0.4000-0.2000 0.4000 (   344 PWs)   bands (ev):

    -9.3369  -9.3216  -9.3042  -8.9916  -8.8509  14.2114  29.4988  39.5453
    44.6088  48.5384  51.9059  52.8935  57.9412  59.3892

          k = 0.3000-0.1000 0.3000 (   333 PWs)   bands (ev):

    -9.3359  -9.2682  -9.2392  -9.0470  -8.9150  11.9905  35.0724  40.2498
    46.6883  49.8800  51.7352  53.4563  56.2563  57.9190

          k = 0.2000 0.0000 0.2000 (   331 PWs)   bands (ev):

    -9.3992  -9.3100  -9.3042  -9.0219  -8.9869  10.5216  40.7368  41.9709
    47.7461  49.2835  53.6740  54.6254  54.9457  56.7471

          k = 0.0000 0.4000 0.0000 (   343 PWs)   bands (ev):

    -9.5436  -9.1930  -9.1930  -9.1873  -8.9668  11.5908  40.8836  41.1383
    41.1383  45.5837  47.8822  60.4300  60.5028  60.5028

          k =-0.1000 0.5000-0.1000 (   340 PWs)   bands (ev):

    -9.5222  -9.2417  -9.1154  -9.0569  -8.8846  13.0559  35.4777  39.7671
    40.0774  45.6256  47.9165  60.1237  60.2642  61.3661

          k =-0.2000 0.6000-0.2000 (   339 PWs)   bands (ev):

    -9.4793  -9.2533  -9.1161  -8.9786  -8.7501  15.2550  30.1982  37.8352
    39.1765  45.1033  51.7736  58.4444  58.7678  60.7557

          k = 0.7000-0.3000 0.7000 (   345 PWs)   bands (ev):

    -9.4452  -9.2224  -9.1575  -8.9409  -8.7651  17.8070  25.9686  35.8781
    39.4533  45.1307  56.3084  56.9338  57.3614  61.0986

          k = 0.6000-0.2000 0.6000 (   348 PWs)   bands (ev):

    -9.4214  -9.2272  -9.1748  -8.9337  -8.8151  18.4106  25.1804  34.5903
    40.6254  45.7256  55.8126  55.9369  60.9013  62.6840

          k = 0.5000-0.1000 0.5000 (   339 PWs)   bands (ev):

    -9.3346  -9.2206  -9.1249  -8.9678  -8.8632  16.0702  28.8079  34.1564
    42.5991  46.9485  54.6382  55.5001  59.1093  60.2195

          k = 0.4000 0.0000 0.4000 (   333 PWs)   bands (ev):

    -9.2779  -9.2667  -9.0988  -9.0952  -8.8512  13.7003  33.2247  35.2293
    45.0524  48.7708  52.8030  55.1792  55.8081  58.2218

          k = 0.0000 0.6000 0.0000 (   339 PWs)   bands (ev):

    -9.6322  -9.2481  -8.9536  -8.9536  -8.8669  14.2540  34.9955  38.1369
    38.1369  44.3412  44.7173  63.8993  63.8993  64.9273

          k =-0.1000 0.7000-0.1000 (   333 PWs)   bands (ev):

    -9.5841  -9.2859  -8.8960  -8.8760  -8.7247  16.1964  31.3929  35.5716
    37.3099  44.0332  46.4757  62.2942  63.4798  66.8097

          k = 0.8000-0.2000 0.8000 (   342 PWs)   bands (ev):

    -9.5373  -9.2820  -8.9441  -8.9153  -8.7327  18.6143  27.9297  32.5384
    37.3890  44.0043  50.7962  60.5326  61.7179  67.0196

          k = 0.7000-0.1000 0.7000 (   343 PWs)   bands (ev):

    -9.4634  -9.1516  -8.9874  -8.9732  -8.7887  20.0086  26.4885  30.3727
    38.3940  44.4794  55.8615  59.2346  60.1482  64.5985

          k = 0.6000-0.0000 0.6000 (   343 PWs)   bands (ev):

    -9.4050  -9.1178  -8.9998  -8.9717  -8.9474  18.3789  28.6874  29.7707
    40.2291  45.4572  58.0388  58.0907  60.3613  60.6725

          k = 0.0000 0.8000 0.0000 (   335 PWs)   bands (ev):

    -9.6498  -9.3682  -8.7607  -8.7542  -8.7542  17.8693  28.9657  36.2052
    36.2052  43.2911  43.6653  64.5595  68.0024  68.0024

          k = 0.9000-0.1000 0.9000 (   340 PWs)   bands (ev):

    -9.6331  -9.3881  -8.7908  -8.7675  -8.7246  19.9839  26.5265  33.6939
    36.0175  43.3421  45.7951  63.3947  66.9003  69.8311

          k = 0.8000 0.0000 0.8000 (   341 PWs)   bands (ev):

    -9.5455  -9.3205  -8.8188  -8.8187  -8.7642  21.0645  26.1861  30.3640
    36.7773  43.6985  50.4464  61.6749  64.6068  66.5688

          k = 0.0000-1.0000 0.0000 (   342 PWs)   bands (ev):

    -9.6898  -9.4663  -8.7415  -8.7307  -8.7307  21.0559  24.9193  35.5403
    35.5403  42.8487  43.4188  64.4119  70.3645  71.3152

          k =-0.2000 0.4000 0.0000 (   335 PWs)   bands (ev):

    -9.4344  -9.2391  -9.1537  -9.1163  -8.8933  12.1238  36.8178  38.5892
    44.4579  48.6546  49.3999  56.1387  57.5632  60.0567

          k =-0.3000 0.5000-0.1000 (   338 PWs)   bands (ev):

    -9.3879  -9.2621  -9.1650  -9.0257  -8.8299  14.0939  31.7575  37.0574
    42.2705  48.2159  51.9193  54.7556  57.8493  61.5280

          k = 0.6000-0.4000 0.8000 (   341 PWs)   bands (ev):

    -9.3528  -9.2938  -9.1688  -8.9352  -8.7762  16.6374  26.9631  36.7049
    40.3371  47.6810  52.4798  57.2589  58.3008  60.0371

          k = 0.5000-0.3000 0.7000 (   346 PWs)   bands (ev):

    -9.3624  -9.3447  -9.1619  -8.9032  -8.7762  18.4015  24.4275  36.7208
    39.5215  47.4885  52.2073  58.4832  58.9778  61.8158

          k =-0.2000 0.6000 0.0000 (   331 PWs)   bands (ev):

    -9.4980  -9.2302  -9.0068  -8.9226  -8.7828  14.7616  33.1850  35.8678
    38.7339  47.2146  47.2184  58.1837  62.6183  65.4321

          k = 0.7000-0.3000 0.9000 (   337 PWs)   bands (ev):

    -9.4496  -9.2316  -9.0417  -8.8991  -8.7707  17.1016  29.2446  34.0646
    37.0332  47.0003  51.2659  56.3066  63.2093  64.1851

          k = 0.6000-0.2000 0.8000 (   348 PWs)   bands (ev):

    -9.4132  -9.2272  -9.0809  -8.9960  -8.7882  19.3040  26.1146  32.7793
    36.8107  47.2885  54.4145  56.5831  61.8936  63.0007

          k = 0.5000-0.1000 0.7000 (   346 PWs)   bands (ev):

    -9.3476  -9.2439  -9.0810  -8.9800  -8.8446  18.6428  27.1130  31.9144
    37.9388  48.1257  53.6876  57.9180  61.1215  61.4964

          k = 0.4000 0.0000 0.6000 (   341 PWs)   bands (ev):

    -9.3092  -9.3031  -9.0991  -8.9635  -8.8641  16.2205  30.4975  32.5208
    39.9310  49.2882  52.2814  54.8532  60.0238  62.9432

          k = 0.8000-0.2000 1.0000 (   336 PWs)   bands (ev):

    -9.5688  -9.3125  -8.9114  -8.7514  -8.7440  18.2750  28.9137  34.0961
    35.0780  46.0764  46.3035  60.5620  66.3584  67.9870

          k = 0.7000-0.1000 0.9000 (   343 PWs)   bands (ev):

    -9.4964  -9.2850  -8.9745  -8.8637  -8.7313  20.3942  27.0892  31.0020
    34.8745  46.4025  50.7019  58.7636  63.4519  66.5821

          k = 0.6000 0.0000 0.8000 (   342 PWs)   bands (ev):

    -9.4014  -9.1548  -9.0531  -8.9389  -8.7710  20.4942  27.9995  28.5721
    36.0014  47.1288  55.9601  56.9200  59.5223  64.2893

          k =-0.2000-1.0000 0.0000 (   346 PWs)   bands (ev):

    -9.5983  -9.4212  -8.8415  -8.8087  -8.7267  21.1566  25.5543  33.4848
    34.0352  45.6871  45.9955  62.0436  66.2953  68.4934

          k = 0.6000-0.2000 1.0000 (   343 PWs)   bands (ev):

    -9.3521  -9.2677  -9.1014  -8.8905  -8.7867  19.3335  28.5334  30.7840
    34.6768  50.8329  51.2591  54.9161  61.9766  66.0222

          k = 0.5000-0.1000 0.9000 (   344 PWs)   bands (ev):

    -9.2841  -9.2476  -9.1301  -8.9315  -8.7471  20.6857  27.5062  29.9630
    33.7282  50.9544  53.2851  56.5037  57.4323  67.1914

          k =-0.4000-1.0000 0.0000 (   344 PWs)   bands (ev):

    -9.3655  -9.2758  -9.0709  -8.9014  -8.7150  21.3343  27.3853  30.1857
    32.4142  50.9076  51.2758  56.5241  59.0081  69.2289

     the Fermi energy is    47.0108 ev

!    total energy              =   -1069.77407285 Ry
     Harris-Foulkes estimate   =   -1069.77407285 Ry
     estimated scf accuracy    <          4.8E-09 Ry

     total all-electron energy =    -48515.384384 Ry

     The total energy is the sum of the following terms:

     one-electron contribution =       1.75427718 Ry
     hartree contribution      =      27.95428004 Ry
     xc contribution           =     -64.49797534 Ry
     ewald contribution        =    -242.33311992 Ry
     one-center paw contrib.   =    -792.65103805 Ry
     smearing contrib. (-TS)   =      -0.00049677 Ry

     convergence has been achieved in   5 iterations

     Forces acting on atoms (cartesian axes, Ry/au):

     atom    1 type  1   force =     0.00000000    0.00000000    0.00000000

     Total force =     0.000000     Total SCF correction =     0.000000


     Computing stress (Cartesian axis) and pressure

          total   stress  (Ry/bohr**3)                   (kbar)     P= 4971.52
   0.03379570   0.00000000  -0.00000000       4971.52      0.00     -0.00
   0.00000000   0.03379570   0.00000000          0.00   4971.52      0.00
  -0.00000000   0.00000000   0.03379570         -0.00      0.00   4971.52


     Writing output data file Fr.save/

     init_run     :      0.34s CPU      0.36s WALL (       1 calls)
     electrons    :      2.45s CPU      2.67s WALL (       1 calls)
     forces       :      0.03s CPU      0.03s WALL (       1 calls)
     stress       :      0.07s CPU      0.07s WALL (       1 calls)

     Called by init_run:
     wfcinit      :      0.09s CPU      0.10s WALL (       1 calls)
     potinit      :      0.10s CPU      0.11s WALL (       1 calls)
     hinit0       :      0.12s CPU      0.12s WALL (       1 calls)

     Called by electrons:
     c_bands      :      1.68s CPU      1.80s WALL (       6 calls)
     sum_band     :      0.25s CPU      0.27s WALL (       6 calls)
     v_of_rho     :      0.01s CPU      0.01s WALL (       6 calls)
     newd         :      0.02s CPU      0.02s WALL (       6 calls)
     PAW_pot      :      0.60s CPU      0.67s WALL (       6 calls)
     mix_rho      :      0.00s CPU      0.00s WALL (       6 calls)

     Called by c_bands:
     init_us_2    :      0.04s CPU      0.04s WALL (     705 calls)
     cegterg      :      1.62s CPU      1.74s WALL (     282 calls)

     Called by sum_band:
     sum_band:bec :      0.00s CPU      0.00s WALL (     282 calls)
     addusdens    :      0.02s CPU      0.02s WALL (       6 calls)

     Called by *egterg:
     h_psi        :      1.05s CPU      1.14s WALL (    1014 calls)
     s_psi        :      0.03s CPU      0.04s WALL (    1014 calls)
     g_psi        :      0.00s CPU      0.00s WALL (     685 calls)
     cdiaghg      :      0.39s CPU      0.42s WALL (     920 calls)

     Called by h_psi:
     h_psi:pot    :      1.04s CPU      1.13s WALL (    1014 calls)
     h_psi:calbec :      0.05s CPU      0.05s WALL (    1014 calls)
     vloc_psi     :      0.95s CPU      1.03s WALL (    1014 calls)
     add_vuspsi   :      0.03s CPU      0.04s WALL (    1014 calls)

     General routines
     calbec       :      0.07s CPU      0.08s WALL (    1531 calls)
     fft          :      0.01s CPU      0.01s WALL (      93 calls)
     ffts         :      0.00s CPU      0.00s WALL (       6 calls)
     fftw         :      1.06s CPU      1.15s WALL (   25316 calls)

     Parallel routines
     fft_scatt_xy :      0.09s CPU      0.10s WALL (   25415 calls)
     fft_scatt_yz :      0.35s CPU      0.38s WALL (   25415 calls)

     PWSCF        :     3.88s CPU         4.20s WALL


   This run was terminated on:  22:31: 9   7Apr2024            

=------------------------------------------------------------------------------=
   JOB DONE.
=------------------------------------------------------------------------------=
