
     Program PWSCF v.6.3MaX starts on  7Apr2024 at 22:32:54 

     This program is part of the open-source Quantum ESPRESSO suite
     for quantum simulation of materials; please cite
         "P. Giannozzi et al., J. Phys.:Condens. Matter 21 395502 (2009);
         "P. Giannozzi et al., J. Phys.:Condens. Matter 29 465901 (2017);
          URL http://www.quantum-espresso.org", 
     in publications or presentations arising from this work. More details at
     http://www.quantum-espresso.org/quote

     Parallel version (MPI), running on     5 processors

     MPI processes distributed on     1 nodes
     R & G space division:  proc/nbgrp/npool/nimage =       5
     Waiting for input...
     Reading input from standard input

     Current dimensions of program PWSCF are:
     Max number of different atomic species (ntypx) = 10
     Max number of k-points (npk) =  40000
     Max angular momentum in pseudopotentials (lmaxx) =  3
               file Fr.pz-spdn-kjpaw_psl.1.0.0.UPF: wavefunction(s)  6P renormalized

     Subspace diagonalization in iterative solution of the eigenvalue problem:
     a serial algorithm will be used


     Parallelization info
     --------------------
     sticks:   dense  smooth     PW     G-vecs:    dense   smooth      PW
     Min          50      50     17                  544      544     107
     Max          51      51     17                  548      548     108
     Sum         253     253     85                 2733     2733     537



     bravais-lattice index     =            2
     lattice parameter (alat)  =       6.8300  a.u.
     unit-cell volume          =      79.6530 (a.u.)^3
     number of atoms/cell      =            1
     number of atomic types    =            1
     number of electrons       =        19.00
     number of Kohn-Sham states=           14
     kinetic-energy cutoff     =      40.0000  Ry
     charge density cutoff     =     160.0000  Ry
     convergence threshold     =      1.0E-08
     mixing beta               =       0.7000
     number of iterations used =            8  plain     mixing
     Exchange-correlation      = SLA PZ NOGX NOGC ( 1  1  0  0 0 0)

     celldm(1)=   6.830000  celldm(2)=   0.000000  celldm(3)=   0.000000
     celldm(4)=   0.000000  celldm(5)=   0.000000  celldm(6)=   0.000000

     crystal axes: (cart. coord. in units of alat)
               a(1) = (  -0.500000   0.000000   0.500000 )  
               a(2) = (   0.000000   0.500000   0.500000 )  
               a(3) = (  -0.500000   0.500000   0.000000 )  

     reciprocal axes: (cart. coord. in units 2 pi/alat)
               b(1) = ( -1.000000 -1.000000  1.000000 )  
               b(2) = (  1.000000  1.000000  1.000000 )  
               b(3) = ( -1.000000  1.000000 -1.000000 )  


     PseudoPot. # 1 for Fr read from file:
     /home/lorenzo/pseudos/Fr/Fr.pz-spdn-kjpaw_psl.1.0.0.UPF
     MD5 check sum: 60dafd115682613df3cc92ec23a62a32
     Pseudo is Projector augmented-wave + core cor, Zval = 19.0
     Generated using "atomic" code by A. Dal Corso v.6.2.2
     Shape of augmentation charge: PSQ
     Using radial grid of 1287 points,  6 beta functions with: 
                l(1) =   0
                l(2) =   0
                l(3) =   1
                l(4) =   1
                l(5) =   2
                l(6) =   2
     Q(r) pseudized with 0 coefficients 


     atomic species   valence    mass     pseudopotential
        Fr            19.00   223.00000     Fr( 1.00)

     48 Sym. Ops., with inversion, found



   Cartesian axes

     site n.     atom                  positions (alat units)
         1           Fr  tau(   1) = (   0.0000000   0.0000000   0.0000000  )

     number of k points=    29  gaussian smearing, width (Ry)=  0.0100
                       cart. coord. in units 2pi/alat
        k(    1) = (   0.0000000   0.0000000   0.0000000), wk =   0.0039062
        k(    2) = (  -0.1250000   0.1250000  -0.1250000), wk =   0.0312500
        k(    3) = (  -0.2500000   0.2500000  -0.2500000), wk =   0.0312500
        k(    4) = (  -0.3750000   0.3750000  -0.3750000), wk =   0.0312500
        k(    5) = (   0.5000000  -0.5000000   0.5000000), wk =   0.0156250
        k(    6) = (   0.0000000   0.2500000   0.0000000), wk =   0.0234375
        k(    7) = (  -0.1250000   0.3750000  -0.1250000), wk =   0.0937500
        k(    8) = (  -0.2500000   0.5000000  -0.2500000), wk =   0.0937500
        k(    9) = (   0.6250000  -0.3750000   0.6250000), wk =   0.0937500
        k(   10) = (   0.5000000  -0.2500000   0.5000000), wk =   0.0937500
        k(   11) = (   0.3750000  -0.1250000   0.3750000), wk =   0.0937500
        k(   12) = (   0.2500000   0.0000000   0.2500000), wk =   0.0468750
        k(   13) = (   0.0000000   0.5000000   0.0000000), wk =   0.0234375
        k(   14) = (  -0.1250000   0.6250000  -0.1250000), wk =   0.0937500
        k(   15) = (   0.7500000  -0.2500000   0.7500000), wk =   0.0937500
        k(   16) = (   0.6250000  -0.1250000   0.6250000), wk =   0.0937500
        k(   17) = (   0.5000000   0.0000000   0.5000000), wk =   0.0468750
        k(   18) = (   0.0000000   0.7500000   0.0000000), wk =   0.0234375
        k(   19) = (   0.8750000  -0.1250000   0.8750000), wk =   0.0937500
        k(   20) = (   0.7500000   0.0000000   0.7500000), wk =   0.0468750
        k(   21) = (   0.0000000  -1.0000000   0.0000000), wk =   0.0117188
        k(   22) = (  -0.2500000   0.5000000   0.0000000), wk =   0.0937500
        k(   23) = (   0.6250000  -0.3750000   0.8750000), wk =   0.1875000
        k(   24) = (   0.5000000  -0.2500000   0.7500000), wk =   0.0937500
        k(   25) = (   0.7500000  -0.2500000   1.0000000), wk =   0.0937500
        k(   26) = (   0.6250000  -0.1250000   0.8750000), wk =   0.1875000
        k(   27) = (   0.5000000   0.0000000   0.7500000), wk =   0.0937500
        k(   28) = (  -0.2500000  -1.0000000   0.0000000), wk =   0.0468750
        k(   29) = (  -0.5000000  -1.0000000   0.0000000), wk =   0.0234375

     Dense  grid:     2733 G-vectors     FFT dimensions: (  20,  20,  20)

     Estimated max dynamical RAM per process >       3.57 MB

     Estimated total dynamical RAM >      17.83 MB

     Check: negative/imaginary core charge=   -0.000005    0.000000

     Initial potential from superposition of free atoms

     starting charge   18.97647, renormalised to   19.00000
     Starting wfcs are   10 randomized atomic wfcs +    4 random wfcs
     Checking if some PAW data can be deallocated... 

     total cpu time spent up to now is        1.1 secs

     Self-consistent Calculation

     iteration #  1     ecut=    40.00 Ry     beta= 0.70
     Davidson diagonalization with overlap
     ethr =  1.00E-02,  avg # of iterations =  4.7

     Threshold (ethr) on eigenvalues was too large:
     Diagonalizing with lowered threshold

     Davidson diagonalization with overlap
     ethr =  1.53E-04,  avg # of iterations =  1.4

     total cpu time spent up to now is        1.7 secs

     total energy              =   -1045.06762439 Ry
     Harris-Foulkes estimate   =   -1045.08951490 Ry
     estimated scf accuracy    <       0.02899746 Ry

     iteration #  2     ecut=    40.00 Ry     beta= 0.70
     Davidson diagonalization with overlap
     ethr =  1.53E-04,  avg # of iterations =  2.1

     total cpu time spent up to now is        2.0 secs

     total energy              =   -1045.07489325 Ry
     Harris-Foulkes estimate   =   -1045.07547076 Ry
     estimated scf accuracy    <       0.00125759 Ry

     iteration #  3     ecut=    40.00 Ry     beta= 0.70
     Davidson diagonalization with overlap
     ethr =  6.62E-06,  avg # of iterations =  2.3

     total cpu time spent up to now is        2.3 secs

     total energy              =   -1045.07511470 Ry
     Harris-Foulkes estimate   =   -1045.07509945 Ry
     estimated scf accuracy    <       0.00002448 Ry

     iteration #  4     ecut=    40.00 Ry     beta= 0.70
     Davidson diagonalization with overlap
     ethr =  1.29E-07,  avg # of iterations =  2.0

     total cpu time spent up to now is        2.5 secs

     total energy              =   -1045.07511943 Ry
     Harris-Foulkes estimate   =   -1045.07511896 Ry
     estimated scf accuracy    <       0.00000049 Ry

     iteration #  5     ecut=    40.00 Ry     beta= 0.70
     Davidson diagonalization with overlap
     ethr =  2.56E-09,  avg # of iterations =  2.0

     total cpu time spent up to now is        2.7 secs

     End of self-consistent calculation

          k = 0.0000 0.0000 0.0000 (   331 PWs)   bands (ev):

    -9.6458  -9.6458  -9.6458  -9.3078  -9.3078   9.0603  46.8062  46.8062
    46.8062  48.1116  54.0591  54.0591  54.0591  57.5200

          k =-0.1250 0.1250-0.1250 (   335 PWs)   bands (ev):

    -9.6619  -9.6192  -9.6192  -9.2855  -9.2855   9.6851  41.1953  45.9622
    45.9622  48.0055  55.4475  55.4475  55.5428  56.6938

          k =-0.2500 0.2500-0.2500 (   344 PWs)   bands (ev):

    -9.6186  -9.5808  -9.5808  -9.2535  -9.2535  11.5596  33.5046  44.3829
    44.3829  48.0779  53.2025  54.0560  54.0560  58.6732

          k =-0.3750 0.3750-0.3750 (   344 PWs)   bands (ev):

    -9.5951  -9.5940  -9.5940  -9.0998  -9.0998  14.5604  26.7757  43.0786
    43.0786  47.9900  51.6149  52.4137  52.4137  62.6573

          k = 0.5000-0.5000 0.5000 (   344 PWs)   bands (ev):

    -9.6921  -9.6112  -9.6112  -8.9784  -8.9784  17.0692  22.9869  42.5757
    42.5757  47.8806  51.0768  51.8856  51.8856  65.1228

          k = 0.0000 0.2500 0.0000 (   335 PWs)   bands (ev):

    -9.7270  -9.5562  -9.5562  -9.3255  -9.2531   9.8931  43.4947  43.4947
    43.8800  46.5990  51.8253  56.8876  57.6747  57.6747

          k =-0.1250 0.3750-0.1250 (   336 PWs)   bands (ev):

    -9.6955  -9.4798  -9.4524  -9.3628  -9.1648  11.3519  36.3149  41.5492
    43.0397  47.3944  49.9785  56.5918  58.1246  58.3646

          k =-0.2500 0.5000-0.2500 (   332 PWs)   bands (ev):

    -9.6352  -9.4887  -9.4476  -9.1625  -9.0124  14.0017  29.2970  40.5850
    40.8142  46.2558  53.8758  55.8333  55.8672  57.0853

          k = 0.6250-0.3750 0.6250 (   341 PWs)   bands (ev):

    -9.6478  -9.5309  -9.4966  -9.0976  -8.9693  17.1224  24.1321  38.8332
    40.8266  46.0840  53.9079  54.1795  56.4448  60.7372

          k = 0.5000-0.2500 0.5000 (   340 PWs)   bands (ev):

    -9.6009  -9.5440  -9.4909  -9.0990  -9.0285  16.1737  25.5125  37.8494
    42.3698  46.9695  52.7361  53.3147  57.8699  61.7718

          k = 0.3750-0.1250 0.3750 (   339 PWs)   bands (ev):

    -9.5763  -9.5427  -9.4865  -9.2971  -9.1018  12.9956  31.5389  38.0511
    44.9582  48.8838  51.6615  53.1877  57.2351  58.7015

          k = 0.2500 0.0000 0.2500 (   337 PWs)   bands (ev):

    -9.6424  -9.5504  -9.5113  -9.3314  -9.2372  10.7274  38.3008  39.8840
    47.1734  49.6916  52.1128  53.9142  54.6122  56.6909

          k = 0.0000 0.5000 0.0000 (   343 PWs)   bands (ev):

    -9.8364  -9.4989  -9.3315  -9.3315  -9.1653  12.3924  37.6133  39.1675
    39.1675  44.7049  45.7838  61.8572  61.8572  62.7693

          k =-0.1250 0.6250-0.1250 (   333 PWs)   bands (ev):

    -9.7918  -9.4723  -9.2638  -9.1770  -8.9935  14.6407  32.0218  36.5376
    37.9033  44.3876  47.7591  60.5761  61.2023  63.5306

          k = 0.7500-0.2500 0.7500 (   346 PWs)   bands (ev):

    -9.7472  -9.4657  -9.3219  -9.2207  -9.0090  17.6913  26.7849  33.5677
    37.9972  44.2919  53.3378  58.4771  59.0537  63.7897

          k = 0.6250-0.1250 0.6250 (   343 PWs)   bands (ev):

    -9.6664  -9.3827  -9.2907  -9.2101  -9.1105  18.4380  25.9124  31.7175
    39.5074  45.0571  57.2073  57.2943  59.5040  62.3735

          k = 0.5000 0.0000 0.5000 (   339 PWs)   bands (ev):

    -9.5876  -9.4658  -9.3312  -9.2542  -9.1199  15.5412  30.0922  31.9952
    42.1803  46.6814  54.9652  56.5500  57.3270  59.1378

          k = 0.0000 0.7500 0.0000 (   327 PWs)   bands (ev):

    -9.8687  -9.5711  -9.0067  -8.9758  -8.9758  16.4742  30.0248  36.2297
    36.2297  43.3322  43.6282  64.3368  66.6324  66.6324

          k = 0.8750-0.1250 0.8750 (   338 PWs)   bands (ev):

    -9.8611  -9.6059  -9.0326  -9.0314  -8.9709  19.1513  26.7789  32.7606
    35.9346  43.2684  46.6877  62.5341  65.2953  69.0797

          k = 0.7500 0.0000 0.7500 (   347 PWs)   bands (ev):

    -9.7724  -9.4920  -9.1573  -9.1537  -9.0856  20.3279  26.5811  28.8961
    37.0996  43.7868  52.8136  60.4135  62.5912  64.7900

          k = 0.0000-1.0000 0.0000 (   342 PWs)   bands (ev):

    -9.9426  -9.7119  -8.9833  -8.9778  -8.9778  20.5570  24.6201  35.1943
    35.1943  42.6282  43.2339  64.0980  70.0396  70.9407

          k =-0.2500 0.5000 0.0000 (   336 PWs)   bands (ev):

    -9.6605  -9.4826  -9.3539  -9.3278  -9.0901  13.2070  33.7451  35.9512
    41.5674  48.7553  48.8317  55.3592  59.0056  61.8053

          k = 0.6250-0.3750 0.8750 (   338 PWs)   bands (ev):

    -9.6103  -9.5107  -9.3403  -9.1830  -9.0440  16.1100  28.1986  34.4877
    38.9109  48.0704  52.2768  55.1706  59.7366  62.3407

          k = 0.5000-0.2500 0.7500 (   346 PWs)   bands (ev):

    -9.5924  -9.5693  -9.3250  -9.2378  -9.0190  18.4138  24.7674  34.4159
    37.7049  47.8152  52.1774  59.8111  60.4189  61.0145

          k = 0.7500-0.2500 1.0000 (   340 PWs)   bands (ev):

    -9.7666  -9.5285  -9.2593  -9.0717  -9.0408  17.1502  29.4491  33.2872
    35.2601  47.2081  47.3865  58.0593  65.6856  65.9115

          k = 0.6250-0.1250 0.8750 (   343 PWs)   bands (ev):

    -9.6561  -9.4644  -9.3257  -9.1389  -9.0015  19.7493  26.8639  30.4086
    34.5757  47.6218  53.1099  56.0509  61.1941  65.5001

          k = 0.5000 0.0000 0.7500 (   344 PWs)   bands (ev):

    -9.5697  -9.4488  -9.3694  -9.1807  -9.0818  18.8439  28.1761  29.3249
    36.1491  48.6693  53.9970  56.1826  59.8115  63.2041

          k =-0.2500-1.0000 0.0000 (   342 PWs)   bands (ev):

    -9.7913  -9.6042  -9.0990  -9.0730  -8.9651  20.6976  25.6084  32.3502
    33.2326  46.6979  46.9023  60.5126  64.1212  68.1433

          k =-0.5000-1.0000 0.0000 (   360 PWs)   bands (ev):

    -9.5268  -9.5268  -9.5153  -9.2696  -9.0513  20.8480  28.3771  28.3771
    31.9035  53.0877  53.3852  53.3852  56.3211  69.8600

     the Fermi energy is    47.0151 ev

!    total energy              =   -1045.07511948 Ry
     Harris-Foulkes estimate   =   -1045.07511948 Ry
     estimated scf accuracy    <          3.1E-09 Ry

     total all-electron energy =    -48490.528092 Ry

     The total energy is the sum of the following terms:

     one-electron contribution =       1.74350549 Ry
     hartree contribution      =      27.96535833 Ry
     xc contribution           =     -63.80790264 Ry
     ewald contribution        =    -242.33311992 Ry
     one-center paw contrib.   =    -768.64258321 Ry
     smearing contrib. (-TS)   =      -0.00037753 Ry

     convergence has been achieved in   5 iterations

     Forces acting on atoms (cartesian axes, Ry/au):

     atom    1 type  1   force =     0.00000000    0.00000000    0.00000000

     Total force =     0.000000     Total SCF correction =     0.000000


     Computing stress (Cartesian axis) and pressure

          total   stress  (Ry/bohr**3)                   (kbar)     P= 4668.61
   0.03173659  -0.00000000  -0.00000000       4668.61     -0.00     -0.00
  -0.00000000   0.03173659   0.00000000         -0.00   4668.61      0.00
  -0.00000000   0.00000000   0.03173659         -0.00      0.00   4668.61


     Writing output data file Fr.save/

     init_run     :      0.22s CPU      0.23s WALL (       1 calls)
     electrons    :      1.50s CPU      1.60s WALL (       1 calls)
     forces       :      0.02s CPU      0.02s WALL (       1 calls)
     stress       :      0.06s CPU      0.06s WALL (       1 calls)

     Called by init_run:
     wfcinit      :      0.05s CPU      0.05s WALL (       1 calls)
     potinit      :      0.04s CPU      0.05s WALL (       1 calls)
     hinit0       :      0.12s CPU      0.12s WALL (       1 calls)

     Called by electrons:
     c_bands      :      1.11s CPU      1.18s WALL (       6 calls)
     sum_band     :      0.15s CPU      0.17s WALL (       6 calls)
     v_of_rho     :      0.00s CPU      0.00s WALL (       6 calls)
     newd         :      0.02s CPU      0.02s WALL (       6 calls)
     PAW_pot      :      0.26s CPU      0.26s WALL (       6 calls)
     mix_rho      :      0.00s CPU      0.00s WALL (       6 calls)

     Called by c_bands:
     init_us_2    :      0.02s CPU      0.02s WALL (     435 calls)
     cegterg      :      1.08s CPU      1.15s WALL (     174 calls)

     Called by sum_band:
     sum_band:bec :      0.00s CPU      0.00s WALL (     174 calls)
     addusdens    :      0.02s CPU      0.02s WALL (       6 calls)

     Called by *egterg:
     h_psi        :      0.68s CPU      0.73s WALL (     624 calls)
     s_psi        :      0.02s CPU      0.02s WALL (     624 calls)
     g_psi        :      0.00s CPU      0.00s WALL (     421 calls)
     cdiaghg      :      0.27s CPU      0.28s WALL (     566 calls)

     Called by h_psi:
     h_psi:pot    :      0.67s CPU      0.72s WALL (     624 calls)
     h_psi:calbec :      0.04s CPU      0.04s WALL (     624 calls)
     vloc_psi     :      0.61s CPU      0.66s WALL (     624 calls)
     add_vuspsi   :      0.02s CPU      0.02s WALL (     624 calls)

     General routines
     calbec       :      0.05s CPU      0.06s WALL (     943 calls)
     fft          :      0.00s CPU      0.00s WALL (      34 calls)
     ffts         :      0.00s CPU      0.00s WALL (       6 calls)
     fftw         :      0.67s CPU      0.72s WALL (   15588 calls)

     Parallel routines
     fft_scatt_xy :      0.06s CPU      0.06s WALL (   15628 calls)
     fft_scatt_yz :      0.23s CPU      0.25s WALL (   15628 calls)

     PWSCF        :     2.72s CPU         2.89s WALL


   This run was terminated on:  22:32:57   7Apr2024            

=------------------------------------------------------------------------------=
   JOB DONE.
=------------------------------------------------------------------------------=
