
     Program PWSCF v.6.3MaX starts on  7Apr2024 at 22:34:36 

     This program is part of the open-source Quantum ESPRESSO suite
     for quantum simulation of materials; please cite
         "P. Giannozzi et al., J. Phys.:Condens. Matter 21 395502 (2009);
         "P. Giannozzi et al., J. Phys.:Condens. Matter 29 465901 (2017);
          URL http://www.quantum-espresso.org", 
     in publications or presentations arising from this work. More details at
     http://www.quantum-espresso.org/quote

     Parallel version (MPI), running on     5 processors

     MPI processes distributed on     1 nodes
     R & G space division:  proc/nbgrp/npool/nimage =       5
     Waiting for input...
     Reading input from standard input

     Current dimensions of program PWSCF are:
     Max number of different atomic species (ntypx) = 10
     Max number of k-points (npk) =  40000
     Max angular momentum in pseudopotentials (lmaxx) =  3
               file Fr.pz-spdn-kjpaw_psl.1.0.0.UPF: wavefunction(s)  6P renormalized

     Subspace diagonalization in iterative solution of the eigenvalue problem:
     a serial algorithm will be used


     Parallelization info
     --------------------
     sticks:   dense  smooth     PW     G-vecs:    dense   smooth      PW
     Min          59      59     18                  657      657     121
     Max          59      59     19                  658      658     123
     Sum         295     295     91                 3287     3287     609



     bravais-lattice index     =            2
     lattice parameter (alat)  =       6.8300  a.u.
     unit-cell volume          =      79.6530 (a.u.)^3
     number of atoms/cell      =            1
     number of atomic types    =            1
     number of electrons       =        19.00
     number of Kohn-Sham states=           14
     kinetic-energy cutoff     =      45.0000  Ry
     charge density cutoff     =     180.0000  Ry
     convergence threshold     =      1.0E-08
     mixing beta               =       0.7000
     number of iterations used =            8  plain     mixing
     Exchange-correlation      = SLA PZ NOGX NOGC ( 1  1  0  0 0 0)

     celldm(1)=   6.830000  celldm(2)=   0.000000  celldm(3)=   0.000000
     celldm(4)=   0.000000  celldm(5)=   0.000000  celldm(6)=   0.000000

     crystal axes: (cart. coord. in units of alat)
               a(1) = (  -0.500000   0.000000   0.500000 )  
               a(2) = (   0.000000   0.500000   0.500000 )  
               a(3) = (  -0.500000   0.500000   0.000000 )  

     reciprocal axes: (cart. coord. in units 2 pi/alat)
               b(1) = ( -1.000000 -1.000000  1.000000 )  
               b(2) = (  1.000000  1.000000  1.000000 )  
               b(3) = ( -1.000000  1.000000 -1.000000 )  


     PseudoPot. # 1 for Fr read from file:
     /home/lorenzo/pseudos/Fr/Fr.pz-spdn-kjpaw_psl.1.0.0.UPF
     MD5 check sum: 60dafd115682613df3cc92ec23a62a32
     Pseudo is Projector augmented-wave + core cor, Zval = 19.0
     Generated using "atomic" code by A. Dal Corso v.6.2.2
     Shape of augmentation charge: PSQ
     Using radial grid of 1287 points,  6 beta functions with: 
                l(1) =   0
                l(2) =   0
                l(3) =   1
                l(4) =   1
                l(5) =   2
                l(6) =   2
     Q(r) pseudized with 0 coefficients 


     atomic species   valence    mass     pseudopotential
        Fr            19.00   223.00000     Fr( 1.00)

     48 Sym. Ops., with inversion, found



   Cartesian axes

     site n.     atom                  positions (alat units)
         1           Fr  tau(   1) = (   0.0000000   0.0000000   0.0000000  )

     number of k points=    10  gaussian smearing, width (Ry)=  0.0100
                       cart. coord. in units 2pi/alat
        k(    1) = (   0.0000000   0.0000000   0.0000000), wk =   0.0160000
        k(    2) = (  -0.2000000   0.2000000  -0.2000000), wk =   0.1280000
        k(    3) = (  -0.4000000   0.4000000  -0.4000000), wk =   0.1280000
        k(    4) = (   0.0000000   0.4000000   0.0000000), wk =   0.0960000
        k(    5) = (  -0.2000000   0.6000000  -0.2000000), wk =   0.3840000
        k(    6) = (   0.6000000  -0.2000000   0.6000000), wk =   0.3840000
        k(    7) = (   0.4000000   0.0000000   0.4000000), wk =   0.1920000
        k(    8) = (   0.0000000   0.8000000   0.0000000), wk =   0.0960000
        k(    9) = (   0.8000000   0.0000000   0.8000000), wk =   0.1920000
        k(   10) = (   0.6000000  -0.2000000   1.0000000), wk =   0.3840000

     Dense  grid:     3287 G-vectors     FFT dimensions: (  24,  24,  24)

     Estimated max dynamical RAM per process >       3.87 MB

     Estimated total dynamical RAM >      19.35 MB

     Check: negative/imaginary core charge=   -0.000013    0.000000

     Initial potential from superposition of free atoms

     starting charge   18.97647, renormalised to   19.00000
     Starting wfcs are   10 randomized atomic wfcs +    4 random wfcs
     Checking if some PAW data can be deallocated... 

     total cpu time spent up to now is        1.1 secs

     Self-consistent Calculation

     iteration #  1     ecut=    45.00 Ry     beta= 0.70
     Davidson diagonalization with overlap
     ethr =  1.00E-02,  avg # of iterations =  4.8

     Threshold (ethr) on eigenvalues was too large:
     Diagonalizing with lowered threshold

     Davidson diagonalization with overlap
     ethr =  9.17E-05,  avg # of iterations =  1.9

     total cpu time spent up to now is        1.4 secs

     total energy              =   -1045.23883812 Ry
     Harris-Foulkes estimate   =   -1045.25133650 Ry
     estimated scf accuracy    <       0.01731180 Ry

     iteration #  2     ecut=    45.00 Ry     beta= 0.70
     Davidson diagonalization with overlap
     ethr =  9.11E-05,  avg # of iterations =  2.0

     total cpu time spent up to now is        1.5 secs

     total energy              =   -1045.24263779 Ry
     Harris-Foulkes estimate   =   -1045.24294743 Ry
     estimated scf accuracy    <       0.00067085 Ry

     iteration #  3     ecut=    45.00 Ry     beta= 0.70
     Davidson diagonalization with overlap
     ethr =  3.53E-06,  avg # of iterations =  2.3

     total cpu time spent up to now is        1.6 secs

     total energy              =   -1045.24273646 Ry
     Harris-Foulkes estimate   =   -1045.24273367 Ry
     estimated scf accuracy    <       0.00001826 Ry

     iteration #  4     ecut=    45.00 Ry     beta= 0.70
     Davidson diagonalization with overlap
     ethr =  9.61E-08,  avg # of iterations =  2.0

     total cpu time spent up to now is        1.8 secs

     total energy              =   -1045.24274106 Ry
     Harris-Foulkes estimate   =   -1045.24274054 Ry
     estimated scf accuracy    <       0.00000024 Ry

     iteration #  5     ecut=    45.00 Ry     beta= 0.70
     Davidson diagonalization with overlap
     ethr =  1.26E-09,  avg # of iterations =  2.4

     total cpu time spent up to now is        1.9 secs

     total energy              =   -1045.24274113 Ry
     Harris-Foulkes estimate   =   -1045.24274112 Ry
     estimated scf accuracy    <       0.00000003 Ry

     iteration #  6     ecut=    45.00 Ry     beta= 0.70
     Davidson diagonalization with overlap
     ethr =  1.77E-10,  avg # of iterations =  2.0

     total cpu time spent up to now is        2.0 secs

     End of self-consistent calculation

          k = 0.0000 0.0000 0.0000 (   411 PWs)   bands (ev):

    -9.4439  -9.4439  -9.4439  -9.1110  -9.1110   9.1004  46.8641  46.8641
    46.8641  48.1116  53.8610  53.8610  53.8610  57.4910

          k =-0.2000 0.2000-0.2000 (   402 PWs)   bands (ev):

    -9.4272  -9.3580  -9.3580  -9.0568  -9.0568  10.7037  36.5379  45.0702
    45.0702  48.0276  54.1274  54.9133  54.9133  57.1493

          k =-0.4000 0.4000-0.4000 (   407 PWs)   bands (ev):

    -9.4339  -9.3684  -9.3684  -8.8647  -8.8647  15.2886  25.6586  42.9640
    42.9640  47.9052  51.3654  52.0873  52.0873  63.3695

          k = 0.0000 0.4000 0.0000 (   407 PWs)   bands (ev):

    -9.5572  -9.2159  -9.2050  -9.2050  -9.0108  11.2370  40.5129  40.8075
    40.8075  45.3092  47.5823  60.1038  60.2051  60.2051

          k =-0.2000 0.6000-0.2000 (   404 PWs)   bands (ev):

    -9.5296  -9.3096  -9.1476  -9.0307  -8.8280  14.8930  29.8770  37.5022
    38.8519  44.7956  51.4353  58.0959  58.4438  60.3980

          k = 0.6000-0.2000 0.6000 (   404 PWs)   bands (ev):

    -9.4472  -9.2687  -9.1913  -8.9592  -8.8722  18.0205  24.8992  34.2739
    40.2958  45.4258  55.5097  55.6022  60.5822  62.3040

          k = 0.4000 0.0000 0.4000 (   409 PWs)   bands (ev):

    -9.3910  -9.3517  -9.1869  -9.1507  -8.9327  13.3420  32.8844  34.9024
    44.6945  48.4610  52.5017  54.8095  55.4057  57.8322

          k = 0.0000 0.8000 0.0000 (   404 PWs)   bands (ev):

    -9.7205  -9.4426  -8.8261  -8.8217  -8.8217  17.4982  28.6374  35.8919
    35.8919  42.9418  43.3312  64.2225  67.6740  67.6741

          k = 0.8000 0.0000 0.8000 (   405 PWs)   bands (ev):

    -9.6176  -9.3657  -8.9052  -8.8858  -8.8126  20.6392  25.9097  30.0738
    36.4609  43.3511  50.1175  61.3476  64.2926  66.2238

          k = 0.6000-0.2000 1.0000 (   408 PWs)   bands (ev):

    -9.4200  -9.3573  -9.1345  -8.9377  -8.8288  18.9432  28.2194  30.4893
    34.3560  50.4840  50.9253  54.5719  61.6361  65.7078

     the Fermi energy is    45.4274 ev

!    total energy              =   -1045.24274113 Ry
     Harris-Foulkes estimate   =   -1045.24274113 Ry
     estimated scf accuracy    <          5.9E-11 Ry

     total all-electron energy =    -48490.695714 Ry

     The total energy is the sum of the following terms:

     one-electron contribution =       1.46346083 Ry
     hartree contribution      =      28.22018549 Ry
     xc contribution           =     -63.88868378 Ry
     ewald contribution        =    -242.33311996 Ry
     one-center paw contrib.   =    -768.70337255 Ry
     smearing contrib. (-TS)   =      -0.00121116 Ry

     convergence has been achieved in   6 iterations

     Forces acting on atoms (cartesian axes, Ry/au):

     atom    1 type  1   force =     0.00000000    0.00000000    0.00000000

     Total force =     0.000000     Total SCF correction =     0.000000


     Computing stress (Cartesian axis) and pressure

          total   stress  (Ry/bohr**3)                   (kbar)     P= 6429.87
   0.04370941   0.00000000   0.00000000       6429.87      0.00      0.00
   0.00000000   0.04370941  -0.00000000          0.00   6429.87     -0.00
   0.00000000  -0.00000000   0.04370941          0.00     -0.00   6429.87


     Writing output data file Fr.save/

     init_run     :      0.20s CPU      0.20s WALL (       1 calls)
     electrons    :      0.88s CPU      0.93s WALL (       1 calls)
     forces       :      0.02s CPU      0.02s WALL (       1 calls)
     stress       :      0.04s CPU      0.04s WALL (       1 calls)

     Called by init_run:
     wfcinit      :      0.02s CPU      0.03s WALL (       1 calls)
     potinit      :      0.04s CPU      0.05s WALL (       1 calls)
     hinit0       :      0.13s CPU      0.13s WALL (       1 calls)

     Called by electrons:
     c_bands      :      0.48s CPU      0.52s WALL (       7 calls)
     sum_band     :      0.10s CPU      0.11s WALL (       7 calls)
     v_of_rho     :      0.00s CPU      0.00s WALL (       7 calls)
     newd         :      0.02s CPU      0.02s WALL (       7 calls)
     PAW_pot      :      0.31s CPU      0.31s WALL (       7 calls)
     mix_rho      :      0.00s CPU      0.00s WALL (       7 calls)

     Called by c_bands:
     init_us_2    :      0.01s CPU      0.01s WALL (     170 calls)
     cegterg      :      0.47s CPU      0.51s WALL (      70 calls)

     Called by sum_band:
     sum_band:bec :      0.00s CPU      0.00s WALL (      70 calls)
     addusdens    :      0.02s CPU      0.02s WALL (       7 calls)

     Called by *egterg:
     h_psi        :      0.32s CPU      0.35s WALL (     254 calls)
     s_psi        :      0.01s CPU      0.01s WALL (     254 calls)
     g_psi        :      0.00s CPU      0.00s WALL (     174 calls)
     cdiaghg      :      0.09s CPU      0.10s WALL (     234 calls)

     Called by h_psi:
     h_psi:pot    :      0.32s CPU      0.35s WALL (     254 calls)
     h_psi:calbec :      0.01s CPU      0.01s WALL (     254 calls)
     vloc_psi     :      0.30s CPU      0.32s WALL (     254 calls)
     add_vuspsi   :      0.01s CPU      0.01s WALL (     254 calls)

     General routines
     calbec       :      0.02s CPU      0.03s WALL (     374 calls)
     fft          :      0.01s CPU      0.01s WALL (      38 calls)
     ffts         :      0.00s CPU      0.00s WALL (       7 calls)
     fftw         :      0.33s CPU      0.36s WALL (    6046 calls)

     Parallel routines
     fft_scatt_xy :      0.03s CPU      0.03s WALL (    6091 calls)
     fft_scatt_yz :      0.09s CPU      0.10s WALL (    6091 calls)

     PWSCF        :     2.05s CPU         2.16s WALL


   This run was terminated on:  22:34:38   7Apr2024            

=------------------------------------------------------------------------------=
   JOB DONE.
=------------------------------------------------------------------------------=
