
     Program PWSCF v.6.3MaX starts on  7Apr2024 at 22:54:13 

     This program is part of the open-source Quantum ESPRESSO suite
     for quantum simulation of materials; please cite
         "P. Giannozzi et al., J. Phys.:Condens. Matter 21 395502 (2009);
         "P. Giannozzi et al., J. Phys.:Condens. Matter 29 465901 (2017);
          URL http://www.quantum-espresso.org", 
     in publications or presentations arising from this work. More details at
     http://www.quantum-espresso.org/quote

     Parallel version (MPI), running on     5 processors

     MPI processes distributed on     1 nodes
     R & G space division:  proc/nbgrp/npool/nimage =       5
     Waiting for input...
     Reading input from standard input

     Current dimensions of program PWSCF are:
     Max number of different atomic species (ntypx) = 10
     Max number of k-points (npk) =  40000
     Max angular momentum in pseudopotentials (lmaxx) =  3

     Subspace diagonalization in iterative solution of the eigenvalue problem:
     a serial algorithm will be used


     Parallelization info
     --------------------
     sticks:   dense  smooth     PW     G-vecs:    dense   smooth      PW
     Min         102     102     32                 1545     1545     272
     Max         103     103     33                 1546     1546     273
     Sum         511     511    163                 7727     7727    1363



     bravais-lattice index     =            2
     lattice parameter (alat)  =       6.8300  a.u.
     unit-cell volume          =      79.6530 (a.u.)^3
     number of atoms/cell      =            1
     number of atomic types    =            1
     number of electrons       =        19.00
     number of Kohn-Sham states=           14
     kinetic-energy cutoff     =      80.0000  Ry
     charge density cutoff     =     320.0000  Ry
     convergence threshold     =      1.0E-08
     mixing beta               =       0.7000
     number of iterations used =            8  plain     mixing
     Exchange-correlation      = PBE ( 1  4  3  4 0 0)

     celldm(1)=   6.830000  celldm(2)=   0.000000  celldm(3)=   0.000000
     celldm(4)=   0.000000  celldm(5)=   0.000000  celldm(6)=   0.000000

     crystal axes: (cart. coord. in units of alat)
               a(1) = (  -0.500000   0.000000   0.500000 )  
               a(2) = (   0.000000   0.500000   0.500000 )  
               a(3) = (  -0.500000   0.500000   0.000000 )  

     reciprocal axes: (cart. coord. in units 2 pi/alat)
               b(1) = ( -1.000000 -1.000000  1.000000 )  
               b(2) = (  1.000000  1.000000  1.000000 )  
               b(3) = ( -1.000000  1.000000 -1.000000 )  


     PseudoPot. # 1 for Fr read from file:
     /home/lorenzo/pseudos/Fr/Fr.pbe-spdn-rrkjus_psl.1.0.0.UPF
     MD5 check sum: 07cabfa18982bd6b5b9d8ae5689d9732
     Pseudo is Ultrasoft + core correction, Zval = 19.0
     Generated using "atomic" code by A. Dal Corso v.6.2.2
     Using radial grid of 1287 points,  6 beta functions with: 
                l(1) =   0
                l(2) =   0
                l(3) =   1
                l(4) =   1
                l(5) =   2
                l(6) =   2
     Q(r) pseudized with 0 coefficients 


     atomic species   valence    mass     pseudopotential
        Fr            19.00   223.00000     Fr( 1.00)

     48 Sym. Ops., with inversion, found



   Cartesian axes

     site n.     atom                  positions (alat units)
         1           Fr  tau(   1) = (   0.0000000   0.0000000   0.0000000  )

     number of k points=    10  gaussian smearing, width (Ry)=  0.0100
                       cart. coord. in units 2pi/alat
        k(    1) = (   0.0000000   0.0000000   0.0000000), wk =   0.0160000
        k(    2) = (  -0.2000000   0.2000000  -0.2000000), wk =   0.1280000
        k(    3) = (  -0.4000000   0.4000000  -0.4000000), wk =   0.1280000
        k(    4) = (   0.0000000   0.4000000   0.0000000), wk =   0.0960000
        k(    5) = (  -0.2000000   0.6000000  -0.2000000), wk =   0.3840000
        k(    6) = (   0.6000000  -0.2000000   0.6000000), wk =   0.3840000
        k(    7) = (   0.4000000   0.0000000   0.4000000), wk =   0.1920000
        k(    8) = (   0.0000000   0.8000000   0.0000000), wk =   0.0960000
        k(    9) = (   0.8000000   0.0000000   0.8000000), wk =   0.1920000
        k(   10) = (   0.6000000  -0.2000000   1.0000000), wk =   0.3840000

     Dense  grid:     7727 G-vectors     FFT dimensions: (  27,  27,  27)

     Estimated max dynamical RAM per process >       7.75 MB

     Estimated total dynamical RAM >      38.75 MB

     Initial potential from superposition of free atoms

     starting charge   18.97009, renormalised to   19.00000
     Starting wfcs are   10 randomized atomic wfcs +    4 random wfcs

     total cpu time spent up to now is        1.1 secs

     Self-consistent Calculation

     iteration #  1     ecut=    80.00 Ry     beta= 0.70
     Davidson diagonalization with overlap
     ethr =  1.00E-02,  avg # of iterations =  4.6

     Threshold (ethr) on eigenvalues was too large:
     Diagonalizing with lowered threshold

     Davidson diagonalization with overlap
     ethr =  1.16E-04,  avg # of iterations =  1.7

     total cpu time spent up to now is        1.5 secs

     total energy              =    -282.87150660 Ry
     Harris-Foulkes estimate   =    -282.88477619 Ry
     estimated scf accuracy    <       0.02153758 Ry

     iteration #  2     ecut=    80.00 Ry     beta= 0.70
     Davidson diagonalization with overlap
     ethr =  1.13E-04,  avg # of iterations =  2.0

     total cpu time spent up to now is        1.7 secs

     total energy              =    -282.87572830 Ry
     Harris-Foulkes estimate   =    -282.87669569 Ry
     estimated scf accuracy    <       0.00136227 Ry

     iteration #  3     ecut=    80.00 Ry     beta= 0.70
     Davidson diagonalization with overlap
     ethr =  7.17E-06,  avg # of iterations =  2.1

     total cpu time spent up to now is        1.8 secs

     total energy              =    -282.87602073 Ry
     Harris-Foulkes estimate   =    -282.87603311 Ry
     estimated scf accuracy    <       0.00003316 Ry

     iteration #  4     ecut=    80.00 Ry     beta= 0.70
     Davidson diagonalization with overlap
     ethr =  1.75E-07,  avg # of iterations =  1.8

     total cpu time spent up to now is        2.0 secs

     total energy              =    -282.87602430 Ry
     Harris-Foulkes estimate   =    -282.87602435 Ry
     estimated scf accuracy    <       0.00000048 Ry

     iteration #  5     ecut=    80.00 Ry     beta= 0.70
     Davidson diagonalization with overlap
     ethr =  2.55E-09,  avg # of iterations =  2.0

     total cpu time spent up to now is        2.1 secs

     total energy              =    -282.87602440 Ry
     Harris-Foulkes estimate   =    -282.87602441 Ry
     estimated scf accuracy    <       0.00000003 Ry

     iteration #  6     ecut=    80.00 Ry     beta= 0.70
     Davidson diagonalization with overlap
     ethr =  1.35E-10,  avg # of iterations =  2.0

     total cpu time spent up to now is        2.3 secs

     End of self-consistent calculation

          k = 0.0000 0.0000 0.0000 (   941 PWs)   bands (ev):

    -9.2491  -9.2491  -9.2491  -8.9105  -8.9105   9.4809  47.2909  47.2909
    47.2909  48.3282  53.8768  53.8768  53.8768  57.7903

          k =-0.2000 0.2000-0.2000 (   956 PWs)   bands (ev):

    -9.2384  -9.1663  -9.1663  -8.8775  -8.8775  11.0876  36.8649  45.4502
    45.4502  48.2345  54.3920  55.0603  55.0603  57.2696

          k =-0.4000 0.4000-0.4000 (   951 PWs)   bands (ev):

    -9.2343  -9.1859  -9.1859  -8.6632  -8.6632  15.6937  25.9725  43.3609
    43.3609  48.1141  51.5776  52.1290  52.1290  63.6443

          k = 0.0000 0.4000 0.0000 (   966 PWs)   bands (ev):

    -9.3631  -9.0333  -9.0174  -9.0174  -8.8134  11.6222  40.9649  41.1416
    41.1416  45.4187  47.7245  60.2433  60.4364  60.4364

          k =-0.2000 0.6000-0.2000 (   964 PWs)   bands (ev):

    -9.3481  -9.1145  -8.9668  -8.8367  -8.6381  15.2918  30.2170  37.8312
    39.1923  44.9148  51.6397  58.2416  58.6516  60.6083

          k = 0.6000-0.2000 0.6000 (   963 PWs)   bands (ev):

    -9.2614  -9.0739  -9.0089  -8.7625  -8.6748  18.4603  25.1875  34.5923
    40.6468  45.5749  55.7088  55.7120  60.8519  62.5059

          k = 0.4000 0.0000 0.4000 (   967 PWs)   bands (ev):

    -9.1896  -9.1619  -8.9989  -8.9582  -8.7295  13.7341  33.2536  35.1772
    45.0849  48.6491  52.7503  54.9897  55.4825  58.0321

          k = 0.0000 0.8000 0.0000 (   962 PWs)   bands (ev):

    -9.5452  -9.2620  -8.6541  -8.6241  -8.6241  17.9104  29.0066  36.2334
    36.2334  43.0954  43.3615  64.4771  67.9618  67.9618

          k = 0.8000 0.0000 0.8000 (   959 PWs)   bands (ev):

    -9.4361  -9.1827  -8.7112  -8.6949  -8.6169  21.1284  26.2002  30.3423
    36.8033  43.4603  50.2890  61.5708  64.5293  66.5299

          k = 0.6000-0.2000 1.0000 (   974 PWs)   bands (ev):

    -9.2256  -9.1610  -8.9464  -8.7384  -8.6300  19.3858  28.5609  30.7725
    34.6213  50.7613  51.0695  54.7211  61.9057  65.9548

     the Fermi energy is    45.5853 ev

!    total energy              =    -282.87602440 Ry
     Harris-Foulkes estimate   =    -282.87602440 Ry
     estimated scf accuracy    <          2.2E-10 Ry

     The total energy is the sum of the following terms:

     one-electron contribution =      -4.14979964 Ry
     hartree contribution      =      28.20399882 Ry
     xc contribution           =     -64.59569713 Ry
     ewald contribution        =    -242.33311988 Ry
     smearing contrib. (-TS)   =      -0.00140658 Ry

     convergence has been achieved in   6 iterations

     Forces acting on atoms (cartesian axes, Ry/au):

     atom    1 type  1   force =     0.00000000    0.00000000    0.00000000

     Total force =     0.000000     Total SCF correction =     0.000000


     Computing stress (Cartesian axis) and pressure

          total   stress  (Ry/bohr**3)                   (kbar)     P= 7240.82
   0.04922212   0.00000000   0.00000000       7240.82      0.00      0.00
  -0.00000000   0.04922212  -0.00000000         -0.00   7240.82     -0.00
   0.00000000  -0.00000000   0.04922212          0.00     -0.00   7240.82


     Writing output data file Fr.save/

     init_run     :      0.23s CPU      0.24s WALL (       1 calls)
     electrons    :      1.12s CPU      1.18s WALL (       1 calls)
     forces       :      0.03s CPU      0.03s WALL (       1 calls)
     stress       :      0.09s CPU      0.09s WALL (       1 calls)

     Called by init_run:
     wfcinit      :      0.04s CPU      0.04s WALL (       1 calls)
     potinit      :      0.01s CPU      0.01s WALL (       1 calls)
     hinit0       :      0.17s CPU      0.17s WALL (       1 calls)

     Called by electrons:
     c_bands      :      0.87s CPU      0.91s WALL (       7 calls)
     sum_band     :      0.18s CPU      0.19s WALL (       7 calls)
     v_of_rho     :      0.03s CPU      0.03s WALL (       7 calls)
     newd         :      0.05s CPU      0.05s WALL (       7 calls)
     mix_rho      :      0.00s CPU      0.00s WALL (       7 calls)

     Called by c_bands:
     init_us_2    :      0.02s CPU      0.02s WALL (     170 calls)
     cegterg      :      0.84s CPU      0.88s WALL (      70 calls)

     Called by sum_band:
     sum_band:bec :      0.00s CPU      0.00s WALL (      70 calls)
     addusdens    :      0.05s CPU      0.05s WALL (       7 calls)

     Called by *egterg:
     h_psi        :      0.62s CPU      0.65s WALL (     242 calls)
     s_psi        :      0.02s CPU      0.02s WALL (     242 calls)
     g_psi        :      0.00s CPU      0.00s WALL (     162 calls)
     cdiaghg      :      0.10s CPU      0.11s WALL (     222 calls)

     Called by h_psi:
     h_psi:pot    :      0.62s CPU      0.65s WALL (     242 calls)
     h_psi:calbec :      0.03s CPU      0.03s WALL (     242 calls)
     vloc_psi     :      0.57s CPU      0.59s WALL (     242 calls)
     add_vuspsi   :      0.02s CPU      0.02s WALL (     242 calls)

     General routines
     calbec       :      0.04s CPU      0.05s WALL (     362 calls)
     fft          :      0.02s CPU      0.02s WALL (     104 calls)
     ffts         :      0.00s CPU      0.00s WALL (       7 calls)
     fftw         :      0.63s CPU      0.65s WALL (    6100 calls)

     Parallel routines
     fft_scatt_xy :      0.06s CPU      0.06s WALL (    6211 calls)
     fft_scatt_yz :      0.13s CPU      0.14s WALL (    6211 calls)

     PWSCF        :     2.35s CPU         2.46s WALL


   This run was terminated on:  22:54:16   7Apr2024            

=------------------------------------------------------------------------------=
   JOB DONE.
=------------------------------------------------------------------------------=
