
     Program PWSCF v.6.3MaX starts on  7Apr2024 at 22:57:48 

     This program is part of the open-source Quantum ESPRESSO suite
     for quantum simulation of materials; please cite
         "P. Giannozzi et al., J. Phys.:Condens. Matter 21 395502 (2009);
         "P. Giannozzi et al., J. Phys.:Condens. Matter 29 465901 (2017);
          URL http://www.quantum-espresso.org", 
     in publications or presentations arising from this work. More details at
     http://www.quantum-espresso.org/quote

     Parallel version (MPI), running on     5 processors

     MPI processes distributed on     1 nodes
     R & G space division:  proc/nbgrp/npool/nimage =       5
     Waiting for input...
     Reading input from standard input

     Current dimensions of program PWSCF are:
     Max number of different atomic species (ntypx) = 10
     Max number of k-points (npk) =  40000
     Max angular momentum in pseudopotentials (lmaxx) =  3

     Subspace diagonalization in iterative solution of the eigenvalue problem:
     a serial algorithm will be used


     Parallelization info
     --------------------
     sticks:   dense  smooth     PW     G-vecs:    dense   smooth      PW
     Min         109     109     32                 1678     1678     290
     Max         110     110     33                 1680     1680     293
     Sum         547     547    163                 8393     8393    1459



     bravais-lattice index     =            2
     lattice parameter (alat)  =       6.8300  a.u.
     unit-cell volume          =      79.6530 (a.u.)^3
     number of atoms/cell      =            1
     number of atomic types    =            1
     number of electrons       =        19.00
     number of Kohn-Sham states=           14
     kinetic-energy cutoff     =      85.0000  Ry
     charge density cutoff     =     340.0000  Ry
     convergence threshold     =      1.0E-08
     mixing beta               =       0.7000
     number of iterations used =            8  plain     mixing
     Exchange-correlation      = PBE ( 1  4  3  4 0 0)

     celldm(1)=   6.830000  celldm(2)=   0.000000  celldm(3)=   0.000000
     celldm(4)=   0.000000  celldm(5)=   0.000000  celldm(6)=   0.000000

     crystal axes: (cart. coord. in units of alat)
               a(1) = (  -0.500000   0.000000   0.500000 )  
               a(2) = (   0.000000   0.500000   0.500000 )  
               a(3) = (  -0.500000   0.500000   0.000000 )  

     reciprocal axes: (cart. coord. in units 2 pi/alat)
               b(1) = ( -1.000000 -1.000000  1.000000 )  
               b(2) = (  1.000000  1.000000  1.000000 )  
               b(3) = ( -1.000000  1.000000 -1.000000 )  


     PseudoPot. # 1 for Fr read from file:
     /home/lorenzo/pseudos/Fr/Fr.pbe-spdn-rrkjus_psl.1.0.0.UPF
     MD5 check sum: 07cabfa18982bd6b5b9d8ae5689d9732
     Pseudo is Ultrasoft + core correction, Zval = 19.0
     Generated using "atomic" code by A. Dal Corso v.6.2.2
     Using radial grid of 1287 points,  6 beta functions with: 
                l(1) =   0
                l(2) =   0
                l(3) =   1
                l(4) =   1
                l(5) =   2
                l(6) =   2
     Q(r) pseudized with 0 coefficients 


     atomic species   valence    mass     pseudopotential
        Fr            19.00   223.00000     Fr( 1.00)

     48 Sym. Ops., with inversion, found



   Cartesian axes

     site n.     atom                  positions (alat units)
         1           Fr  tau(   1) = (   0.0000000   0.0000000   0.0000000  )

     number of k points=    16  gaussian smearing, width (Ry)=  0.0100
                       cart. coord. in units 2pi/alat
        k(    1) = (   0.0000000   0.0000000   0.0000000), wk =   0.0092593
        k(    2) = (  -0.1666667   0.1666667  -0.1666667), wk =   0.0740741
        k(    3) = (  -0.3333333   0.3333333  -0.3333333), wk =   0.0740741
        k(    4) = (   0.5000000  -0.5000000   0.5000000), wk =   0.0370370
        k(    5) = (   0.0000000   0.3333333   0.0000000), wk =   0.0555556
        k(    6) = (  -0.1666667   0.5000000  -0.1666667), wk =   0.2222222
        k(    7) = (   0.6666667  -0.3333333   0.6666667), wk =   0.2222222
        k(    8) = (   0.5000000  -0.1666667   0.5000000), wk =   0.2222222
        k(    9) = (   0.3333333   0.0000000   0.3333333), wk =   0.1111111
        k(   10) = (   0.0000000   0.6666667   0.0000000), wk =   0.0555556
        k(   11) = (   0.8333333  -0.1666667   0.8333333), wk =   0.2222222
        k(   12) = (   0.6666667  -0.0000000   0.6666667), wk =   0.1111111
        k(   13) = (   0.0000000  -1.0000000   0.0000000), wk =   0.0277778
        k(   14) = (   0.6666667  -0.3333333   1.0000000), wk =   0.2222222
        k(   15) = (   0.5000000  -0.1666667   0.8333333), wk =   0.2222222
        k(   16) = (  -0.3333333  -1.0000000   0.0000000), wk =   0.1111111

     Dense  grid:     8393 G-vectors     FFT dimensions: (  30,  30,  30)

     Estimated max dynamical RAM per process >       8.64 MB

     Estimated total dynamical RAM >      43.22 MB

     Initial potential from superposition of free atoms

     starting charge   18.97009, renormalised to   19.00000
     Starting wfcs are   10 randomized atomic wfcs +    4 random wfcs

     total cpu time spent up to now is        1.1 secs

     Self-consistent Calculation

     iteration #  1     ecut=    85.00 Ry     beta= 0.70
     Davidson diagonalization with overlap
     ethr =  1.00E-02,  avg # of iterations =  4.6

     Threshold (ethr) on eigenvalues was too large:
     Diagonalizing with lowered threshold

     Davidson diagonalization with overlap
     ethr =  1.13E-04,  avg # of iterations =  1.9

     total cpu time spent up to now is        1.8 secs

     total energy              =    -282.86791977 Ry
     Harris-Foulkes estimate   =    -282.88125822 Ry
     estimated scf accuracy    <       0.02123504 Ry

     iteration #  2     ecut=    85.00 Ry     beta= 0.70
     Davidson diagonalization with overlap
     ethr =  1.12E-04,  avg # of iterations =  2.0

     total cpu time spent up to now is        2.1 secs

     total energy              =    -282.87211036 Ry
     Harris-Foulkes estimate   =    -282.87291647 Ry
     estimated scf accuracy    <       0.00109969 Ry

     iteration #  3     ecut=    85.00 Ry     beta= 0.70
     Davidson diagonalization with overlap
     ethr =  5.79E-06,  avg # of iterations =  2.8

     total cpu time spent up to now is        2.4 secs

     total energy              =    -282.87233349 Ry
     Harris-Foulkes estimate   =    -282.87234574 Ry
     estimated scf accuracy    <       0.00002973 Ry

     iteration #  4     ecut=    85.00 Ry     beta= 0.70
     Davidson diagonalization with overlap
     ethr =  1.56E-07,  avg # of iterations =  2.0

     total cpu time spent up to now is        2.6 secs

     total energy              =    -282.87233606 Ry
     Harris-Foulkes estimate   =    -282.87233630 Ry
     estimated scf accuracy    <       0.00000050 Ry

     iteration #  5     ecut=    85.00 Ry     beta= 0.70
     Davidson diagonalization with overlap
     ethr =  2.61E-09,  avg # of iterations =  2.1

     total cpu time spent up to now is        2.9 secs

     total energy              =    -282.87233620 Ry
     Harris-Foulkes estimate   =    -282.87233621 Ry
     estimated scf accuracy    <       0.00000002 Ry

     iteration #  6     ecut=    85.00 Ry     beta= 0.70
     Davidson diagonalization with overlap
     ethr =  1.13E-10,  avg # of iterations =  2.0

     total cpu time spent up to now is        3.1 secs

     End of self-consistent calculation

          k = 0.0000 0.0000 0.0000 (  1067 PWs)   bands (ev):

    -9.2746  -9.2746  -9.2746  -8.9328  -8.9328   9.4744  47.2869  47.2869
    47.2869  48.3171  53.8709  53.8709  53.8709  57.8068

          k =-0.1667 0.1667-0.1667 (  1043 PWs)   bands (ev):

    -9.2659  -9.2056  -9.2056  -8.9184  -8.9184  10.5896  38.9315  45.8749
    45.8749  48.2196  55.0611  55.8187  55.8187  56.3645

          k =-0.3333 0.3333-0.3333 (  1059 PWs)   bands (ev):

    -9.2593  -9.1942  -9.1942  -8.7580  -8.7580  13.8942  29.1910  43.8832
    43.8832  48.1856  52.1798  52.7715  52.7715  61.4805

          k = 0.5000-0.5000 0.5000 (  1056 PWs)   bands (ev):

    -9.2609  -9.2213  -9.2213  -8.6422  -8.6422  17.5630  23.2795  43.0343
    43.0343  48.0553  51.2437  51.7756  51.7756  65.4837

          k = 0.0000 0.3333 0.0000 (  1042 PWs)   bands (ev):

    -9.3570  -9.1077  -9.1077  -9.0200  -8.8626  10.9607  42.3145  42.3145
    42.6118  45.9512  49.4130  58.6469  59.3012  59.3012

          k =-0.1667 0.5000-0.1667 (  1058 PWs)   bands (ev):

    -9.3597  -9.1216  -9.0351  -8.9200  -8.7275  13.5471  32.8829  40.1944
    40.5031  45.7723  50.6985  58.1214  58.1860  59.0465

          k = 0.6667-0.3333 0.6667 (  1051 PWs)   bands (ev):

    -9.3013  -9.1350  -9.0741  -8.7903  -8.6348  17.7025  25.2409  37.3324
    40.2486  45.4552  55.5205  55.5399  58.4608  58.9958

          k = 0.5000-0.1667 0.5000 (  1051 PWs)   bands (ev):

    -9.2335  -9.1666  -9.0795  -8.7882  -8.7273  16.2899  27.4181  35.9045
    42.6775  46.8961  53.7817  54.2619  60.2544  60.6122

          k = 0.3333 0.0000 0.3333 (  1053 PWs)   bands (ev):

    -9.2492  -9.1674  -9.0925  -8.9826  -8.7906  12.4427  35.5141  37.3022
    46.5921  50.1604  51.3640  53.9567  54.9476  57.3665

          k = 0.0000 0.6667 0.0000 (  1030 PWs)   bands (ev):

    -9.5202  -9.2173  -8.7611  -8.7611  -8.7209  15.3938  32.9764  37.3767
    37.3767  43.8024  43.9149  64.6207  65.1615  65.1615

          k = 0.8333-0.1667 0.8333 (  1056 PWs)   bands (ev):

    -9.4764  -9.2236  -8.7762  -8.7184  -8.6163  19.0576  27.9154  32.3515
    36.8623  43.5137  48.8373  61.4855  63.3287  68.7533

          k = 0.6667-0.0000 0.6667 (  1063 PWs)   bands (ev):

    -9.3448  -8.9807  -8.9109  -8.8434  -8.7454  19.8250  28.3203  28.3395
    38.8803  44.5202  57.4413  59.0059  60.0215  62.6451

          k = 0.0000-1.0000 0.0000 (  1034 PWs)   bands (ev):

    -9.6011  -9.3258  -8.6496  -8.5808  -8.5808  21.1040  24.9360  35.5686
    35.5686  42.6936  43.1022  64.3799  70.3547  71.3270

          k = 0.6667-0.3333 1.0000 (  1052 PWs)   bands (ev):

    -9.3095  -9.1723  -8.9739  -8.7709  -8.7089  16.7150  30.4905  32.8719
    37.5599  49.5640  49.9013  54.8405  62.6426  65.1296

          k = 0.5000-0.1667 0.8333 (  1066 PWs)   bands (ev):

    -9.2259  -9.1518  -8.9413  -8.8558  -8.6505  19.9085  26.3391  31.8345
    35.4755  49.4100  52.6706  58.4320  58.4717  64.2252

          k =-0.3333-1.0000 0.0000 (  1064 PWs)   bands (ev):

    -9.3606  -9.2099  -8.8513  -8.7573  -8.5808  21.3408  26.6603  31.2521
    32.7650  48.9355  49.2002  58.3138  61.2572  68.7437

     the Fermi energy is    46.7899 ev

!    total energy              =    -282.87233621 Ry
     Harris-Foulkes estimate   =    -282.87233621 Ry
     estimated scf accuracy    <          1.3E-09 Ry

     The total energy is the sum of the following terms:

     one-electron contribution =      -4.12929619 Ry
     hartree contribution      =      28.18240483 Ry
     xc contribution           =     -64.59194605 Ry
     ewald contribution        =    -242.33311988 Ry
     smearing contrib. (-TS)   =      -0.00037891 Ry

     convergence has been achieved in   6 iterations

     Forces acting on atoms (cartesian axes, Ry/au):

     atom    1 type  1   force =     0.00000000    0.00000000    0.00000000

     Total force =     0.000000     Total SCF correction =     0.000000


     Computing stress (Cartesian axis) and pressure

          total   stress  (Ry/bohr**3)                   (kbar)     P= 7220.03
   0.04908081  -0.00000000   0.00000000       7220.03     -0.00      0.00
  -0.00000000   0.04908081   0.00000000         -0.00   7220.03      0.00
  -0.00000000   0.00000000   0.04908081         -0.00      0.00   7220.03


     Writing output data file Fr.save/

     init_run     :      0.27s CPU      0.28s WALL (       1 calls)
     electrons    :      1.92s CPU      2.01s WALL (       1 calls)
     forces       :      0.05s CPU      0.05s WALL (       1 calls)
     stress       :      0.12s CPU      0.12s WALL (       1 calls)

     Called by init_run:
     wfcinit      :      0.07s CPU      0.07s WALL (       1 calls)
     potinit      :      0.01s CPU      0.01s WALL (       1 calls)
     hinit0       :      0.18s CPU      0.18s WALL (       1 calls)

     Called by electrons:
     c_bands      :      1.54s CPU      1.61s WALL (       7 calls)
     sum_band     :      0.30s CPU      0.31s WALL (       7 calls)
     v_of_rho     :      0.03s CPU      0.04s WALL (       7 calls)
     newd         :      0.06s CPU      0.06s WALL (       7 calls)
     mix_rho      :      0.00s CPU      0.00s WALL (       7 calls)

     Called by c_bands:
     init_us_2    :      0.04s CPU      0.04s WALL (     272 calls)
     cegterg      :      1.48s CPU      1.55s WALL (     112 calls)

     Called by sum_band:
     sum_band:bec :      0.00s CPU      0.00s WALL (     112 calls)
     addusdens    :      0.06s CPU      0.06s WALL (       7 calls)

     Called by *egterg:
     h_psi        :      1.10s CPU      1.16s WALL (     408 calls)
     s_psi        :      0.03s CPU      0.04s WALL (     408 calls)
     g_psi        :      0.00s CPU      0.00s WALL (     280 calls)
     cdiaghg      :      0.17s CPU      0.18s WALL (     376 calls)

     Called by h_psi:
     h_psi:pot    :      1.10s CPU      1.15s WALL (     408 calls)
     h_psi:calbec :      0.05s CPU      0.05s WALL (     408 calls)
     vloc_psi     :      1.01s CPU      1.06s WALL (     408 calls)
     add_vuspsi   :      0.04s CPU      0.04s WALL (     408 calls)

     General routines
     calbec       :      0.08s CPU      0.08s WALL (     600 calls)
     fft          :      0.02s CPU      0.02s WALL (     104 calls)
     ffts         :      0.00s CPU      0.00s WALL (       7 calls)
     fftw         :      1.12s CPU      1.18s WALL (    9936 calls)

     Parallel routines
     fft_scatt_xy :      0.10s CPU      0.10s WALL (   10047 calls)
     fft_scatt_yz :      0.30s CPU      0.31s WALL (   10047 calls)

     PWSCF        :     3.23s CPU         3.37s WALL


   This run was terminated on:  22:57:51   7Apr2024            

=------------------------------------------------------------------------------=
   JOB DONE.
=------------------------------------------------------------------------------=
