
     Program PWSCF v.6.3MaX starts on  7Apr2024 at 22:44: 3 

     This program is part of the open-source Quantum ESPRESSO suite
     for quantum simulation of materials; please cite
         "P. Giannozzi et al., J. Phys.:Condens. Matter 21 395502 (2009);
         "P. Giannozzi et al., J. Phys.:Condens. Matter 29 465901 (2017);
          URL http://www.quantum-espresso.org", 
     in publications or presentations arising from this work. More details at
     http://www.quantum-espresso.org/quote

     Parallel version (MPI), running on     5 processors

     MPI processes distributed on     1 nodes
     R & G space division:  proc/nbgrp/npool/nimage =       5
     Waiting for input...
     Reading input from standard input

     Current dimensions of program PWSCF are:
     Max number of different atomic species (ntypx) = 10
     Max number of k-points (npk) =  40000
     Max angular momentum in pseudopotentials (lmaxx) =  3

     Subspace diagonalization in iterative solution of the eigenvalue problem:
     a serial algorithm will be used


     Parallelization info
     --------------------
     sticks:   dense  smooth     PW     G-vecs:    dense   smooth      PW
     Min          84      84     27                 1134     1134     213
     Max          85      85     28                 1137     1137     214
     Sum         421     421    139                 5673     5673    1067



     bravais-lattice index     =            2
     lattice parameter (alat)  =       6.8300  a.u.
     unit-cell volume          =      79.6530 (a.u.)^3
     number of atoms/cell      =            1
     number of atomic types    =            1
     number of electrons       =        19.00
     number of Kohn-Sham states=           14
     kinetic-energy cutoff     =      65.0000  Ry
     charge density cutoff     =     260.0000  Ry
     convergence threshold     =      1.0E-08
     mixing beta               =       0.7000
     number of iterations used =            8  plain     mixing
     Exchange-correlation      = LDA ( 1  1  0  0 0 0)

     celldm(1)=   6.830000  celldm(2)=   0.000000  celldm(3)=   0.000000
     celldm(4)=   0.000000  celldm(5)=   0.000000  celldm(6)=   0.000000

     crystal axes: (cart. coord. in units of alat)
               a(1) = (  -0.500000   0.000000   0.500000 )  
               a(2) = (   0.000000   0.500000   0.500000 )  
               a(3) = (  -0.500000   0.500000   0.000000 )  

     reciprocal axes: (cart. coord. in units 2 pi/alat)
               b(1) = ( -1.000000 -1.000000  1.000000 )  
               b(2) = (  1.000000  1.000000  1.000000 )  
               b(3) = ( -1.000000  1.000000 -1.000000 )  


     PseudoPot. # 1 for Fr read from file:
     /home/lorenzo/pseudos/Fr/Fr.pz-spdn-rrkjus_psl.1.0.0.UPF
     MD5 check sum: 5665a43a3d1ea02b0b7dc7a0ae9ace04
     Pseudo is Ultrasoft + core correction, Zval = 19.0
     Generated using "atomic" code by A. Dal Corso v.6.2.2
     Using radial grid of 1287 points,  6 beta functions with: 
                l(1) =   0
                l(2) =   0
                l(3) =   1
                l(4) =   1
                l(5) =   2
                l(6) =   2
     Q(r) pseudized with 0 coefficients 


     atomic species   valence    mass     pseudopotential
        Fr            19.00   223.00000     Fr( 1.00)

     48 Sym. Ops., with inversion, found



   Cartesian axes

     site n.     atom                  positions (alat units)
         1           Fr  tau(   1) = (   0.0000000   0.0000000   0.0000000  )

     number of k points=    56  gaussian smearing, width (Ry)=  0.0100
                       cart. coord. in units 2pi/alat
        k(    1) = (   0.0000000   0.0000000   0.0000000), wk =   0.0015026
        k(    2) = (  -0.0909091   0.0909091  -0.0909091), wk =   0.0120210
        k(    3) = (  -0.1818182   0.1818182  -0.1818182), wk =   0.0120210
        k(    4) = (  -0.2727273   0.2727273  -0.2727273), wk =   0.0120210
        k(    5) = (  -0.3636364   0.3636364  -0.3636364), wk =   0.0120210
        k(    6) = (  -0.4545455   0.4545455  -0.4545455), wk =   0.0120210
        k(    7) = (   0.0000000   0.1818182   0.0000000), wk =   0.0090158
        k(    8) = (  -0.0909091   0.2727273  -0.0909091), wk =   0.0360631
        k(    9) = (  -0.1818182   0.3636364  -0.1818182), wk =   0.0360631
        k(   10) = (  -0.2727273   0.4545455  -0.2727273), wk =   0.0360631
        k(   11) = (  -0.3636364   0.5454545  -0.3636364), wk =   0.0360631
        k(   12) = (   0.5454545  -0.3636364   0.5454545), wk =   0.0360631
        k(   13) = (   0.4545455  -0.2727273   0.4545455), wk =   0.0360631
        k(   14) = (   0.3636364  -0.1818182   0.3636364), wk =   0.0360631
        k(   15) = (   0.2727273  -0.0909091   0.2727273), wk =   0.0360631
        k(   16) = (   0.1818182  -0.0000000   0.1818182), wk =   0.0180316
        k(   17) = (   0.0000000   0.3636364   0.0000000), wk =   0.0090158
        k(   18) = (  -0.0909091   0.4545455  -0.0909091), wk =   0.0360631
        k(   19) = (  -0.1818182   0.5454545  -0.1818182), wk =   0.0360631
        k(   20) = (  -0.2727273   0.6363636  -0.2727273), wk =   0.0360631
        k(   21) = (   0.6363636  -0.2727273   0.6363636), wk =   0.0360631
        k(   22) = (   0.5454545  -0.1818182   0.5454545), wk =   0.0360631
        k(   23) = (   0.4545455  -0.0909091   0.4545455), wk =   0.0360631
        k(   24) = (   0.3636364   0.0000000   0.3636364), wk =   0.0180316
        k(   25) = (   0.0000000   0.5454545   0.0000000), wk =   0.0090158
        k(   26) = (  -0.0909091   0.6363636  -0.0909091), wk =   0.0360631
        k(   27) = (  -0.1818182   0.7272727  -0.1818182), wk =   0.0360631
        k(   28) = (   0.7272727  -0.1818182   0.7272727), wk =   0.0360631
        k(   29) = (   0.6363636  -0.0909091   0.6363636), wk =   0.0360631
        k(   30) = (   0.5454545   0.0000000   0.5454545), wk =   0.0180316
        k(   31) = (   0.0000000   0.7272727   0.0000000), wk =   0.0090158
        k(   32) = (  -0.0909091   0.8181818  -0.0909091), wk =   0.0360631
        k(   33) = (   0.8181818  -0.0909091   0.8181818), wk =   0.0360631
        k(   34) = (   0.7272727   0.0000000   0.7272727), wk =   0.0180316
        k(   35) = (   0.0000000   0.9090909   0.0000000), wk =   0.0090158
        k(   36) = (   0.9090909  -0.0000000   0.9090909), wk =   0.0180316
        k(   37) = (  -0.1818182   0.3636364   0.0000000), wk =   0.0360631
        k(   38) = (  -0.2727273   0.4545455  -0.0909091), wk =   0.0721262
        k(   39) = (  -0.3636364   0.5454545  -0.1818182), wk =   0.0721262
        k(   40) = (   0.5454545  -0.3636364   0.7272727), wk =   0.0721262
        k(   41) = (  -0.1818182   0.5454545   0.0000000), wk =   0.0360631
        k(   42) = (  -0.2727273   0.6363636  -0.0909091), wk =   0.0721262
        k(   43) = (   0.6363636  -0.2727273   0.8181818), wk =   0.0721262
        k(   44) = (   0.5454545  -0.1818182   0.7272727), wk =   0.0721262
        k(   45) = (   0.4545455  -0.0909091   0.6363636), wk =   0.0721262
        k(   46) = (   0.3636364   0.0000000   0.5454545), wk =   0.0360631
        k(   47) = (  -0.1818182   0.7272727   0.0000000), wk =   0.0360631
        k(   48) = (   0.7272727  -0.1818182   0.9090909), wk =   0.0721262
        k(   49) = (   0.6363636  -0.0909091   0.8181818), wk =   0.0721262
        k(   50) = (   0.5454545   0.0000000   0.7272727), wk =   0.0360631
        k(   51) = (   0.8181818  -0.0909091   1.0000000), wk =   0.0360631
        k(   52) = (   0.7272727   0.0000000   0.9090909), wk =   0.0360631
        k(   53) = (   0.6363636  -0.2727273   1.0000000), wk =   0.0360631
        k(   54) = (   0.5454545  -0.1818182   0.9090909), wk =   0.0721262
        k(   55) = (   0.6363636  -0.0909091   1.0000000), wk =   0.0360631
        k(   56) = (   0.5454545   0.0000000   0.9090909), wk =   0.0360631

     Dense  grid:     5673 G-vectors     FFT dimensions: (  25,  25,  25)

     Estimated max dynamical RAM per process >       7.34 MB

     Estimated total dynamical RAM >      36.68 MB

     Check: negative/imaginary core charge=   -0.000003    0.000000

     Initial potential from superposition of free atoms

     starting charge   18.97647, renormalised to   19.00000
     Starting wfcs are   10 randomized atomic wfcs +    4 random wfcs

     total cpu time spent up to now is        1.3 secs

     Self-consistent Calculation

     iteration #  1     ecut=    65.00 Ry     beta= 0.70
     Davidson diagonalization with overlap
     ethr =  1.00E-02,  avg # of iterations =  4.8

     Threshold (ethr) on eigenvalues was too large:
     Diagonalizing with lowered threshold

     Davidson diagonalization with overlap
     ethr =  9.20E-05,  avg # of iterations =  1.9

     total cpu time spent up to now is        2.8 secs

     total energy              =    -282.48298516 Ry
     Harris-Foulkes estimate   =    -282.49485044 Ry
     estimated scf accuracy    <       0.01731873 Ry

     iteration #  2     ecut=    65.00 Ry     beta= 0.70
     Davidson diagonalization with overlap
     ethr =  9.12E-05,  avg # of iterations =  2.0

     total cpu time spent up to now is        3.8 secs

     total energy              =    -282.48588792 Ry
     Harris-Foulkes estimate   =    -282.48638715 Ry
     estimated scf accuracy    <       0.00065895 Ry

     iteration #  3     ecut=    65.00 Ry     beta= 0.70
     Davidson diagonalization with overlap
     ethr =  3.47E-06,  avg # of iterations =  2.4

     total cpu time spent up to now is        4.6 secs

     total energy              =    -282.48601053 Ry
     Harris-Foulkes estimate   =    -282.48603026 Ry
     estimated scf accuracy    <       0.00003286 Ry

     iteration #  4     ecut=    65.00 Ry     beta= 0.70
     Davidson diagonalization with overlap
     ethr =  1.73E-07,  avg # of iterations =  2.0

     total cpu time spent up to now is        5.2 secs

     total energy              =    -282.48601498 Ry
     Harris-Foulkes estimate   =    -282.48601501 Ry
     estimated scf accuracy    <       0.00000012 Ry

     iteration #  5     ecut=    65.00 Ry     beta= 0.70
     Davidson diagonalization with overlap
     ethr =  6.53E-10,  avg # of iterations =  2.2

     total cpu time spent up to now is        5.9 secs

     End of self-consistent calculation

          k = 0.0000 0.0000 0.0000 (   725 PWs)   bands (ev):

    -9.4754  -9.4754  -9.4754  -9.1269  -9.1269   9.1000  46.8955  46.8955
    46.8955  48.0935  53.6770  53.6770  53.6770  57.5347

          k =-0.0909 0.0909-0.0909 (   706 PWs)   bands (ev):

    -9.4698  -9.4475  -9.4475  -9.1257  -9.1257   9.4308  43.3048  46.3925
    46.3925  47.9610  54.4977  54.4977  55.5713  57.3782

          k =-0.1818 0.1818-0.1818 (   703 PWs)   bands (ev):

    -9.4629  -9.3962  -9.3962  -9.1047  -9.1047  10.4253  37.6577  45.3103
    45.3103  47.9875  54.4979  55.2218  55.2218  56.5234

          k =-0.2727 0.2727-0.2727 (   703 PWs)   bands (ev):

    -9.4599  -9.3799  -9.3799  -9.0243  -9.0243  12.0751  32.2009  44.1663
    44.1663  47.9949  52.7686  53.4300  53.4300  59.2131

          k =-0.3636 0.3636-0.3636 (   697 PWs)   bands (ev):

    -9.4587  -9.3976  -9.3976  -8.9156  -8.9156  14.3025  27.3434  43.2426
    43.2426  47.9355  51.5845  52.2391  52.2391  62.1909

          k =-0.4545 0.4545-0.4545 (   709 PWs)   bands (ev):

    -9.4599  -9.4159  -9.4159  -8.8453  -8.8453  16.6293  23.6787  42.7272
    42.7272  47.8543  51.0317  51.6581  51.6581  64.6977

          k = 0.0000 0.1818 0.0000 (   697 PWs)   bands (ev):

    -9.5009  -9.4186  -9.4186  -9.1529  -9.1029   9.5410  44.7713  44.7713
    45.1986  47.0860  53.9556  55.4049  56.0562  56.0562

          k =-0.0909 0.2727-0.0909 (   701 PWs)   bands (ev):

    -9.5091  -9.3650  -9.3602  -9.1698  -9.0723  10.3142  39.6890  43.2591
    44.8105  47.9726  51.3292  55.2808  57.7363  58.0083

          k =-0.1818 0.3636-0.1818 (   706 PWs)   bands (ev):

    -9.4971  -9.3469  -9.3289  -9.1270  -8.9978  11.7472  34.1649  42.1115
    43.6268  47.8835  51.6132  55.2239  56.3165  56.6463

          k =-0.2727 0.4545-0.2727 (   707 PWs)   bands (ev):

    -9.4784  -9.3697  -9.3412  -9.0239  -8.9000  13.7940  29.1168  41.4592
    42.1954  46.8859  53.0619  54.5051  54.6334  57.4795

          k =-0.3636 0.5455-0.3636 (   709 PWs)   bands (ev):

    -9.4641  -9.3939  -9.3638  -8.9228  -8.8385  16.1923  24.9685  40.8575
    41.3982  46.5227  53.1089  53.3763  54.0779  60.7236

          k = 0.5455-0.3636 0.5455 (   715 PWs)   bands (ev):

    -9.4477  -9.4082  -9.3760  -8.8695  -8.8486  17.3129  23.4102  39.9422
    41.9854  46.7527  52.2798  52.5853  54.8674  63.9562

          k = 0.4545-0.2727 0.4545 (   702 PWs)   bands (ev):

    -9.4356  -9.4049  -9.3664  -8.9309  -8.8787  15.3934  26.2161  39.5943
    43.2046  47.5182  51.6728  52.2600  56.0148  61.3560

          k = 0.3636-0.1818 0.3636 (   703 PWs)   bands (ev):

    -9.4467  -9.3777  -9.3480  -9.0549  -8.9449  13.0493  30.7390  39.8324
    44.9079  48.7035  51.3149  52.4289  57.5073  58.0798

          k = 0.2727-0.0909 0.2727 (   702 PWs)   bands (ev):

    -9.4638  -9.3661  -9.3566  -9.1452  -9.0303  11.1972  35.9615  40.6245
    46.6518  49.4429  51.8366  53.2131  55.3566  57.0968

          k = 0.1818-0.0000 0.1818 (   699 PWs)   bands (ev):

    -9.4735  -9.4141  -9.3954  -9.1500  -9.0930   9.9829  41.1544  42.2635
    47.3717  48.7880  53.8191  53.9719  54.9025  56.1697

          k = 0.0000 0.3636 0.0000 (   697 PWs)   bands (ev):

    -9.5704  -9.2747  -9.2747  -9.2303  -9.0427  10.8662  41.4369  41.4369
    41.4660  45.5037  48.4029  59.1247  59.5842  59.5842

          k =-0.0909 0.4545-0.0909 (   704 PWs)   bands (ev):

    -9.5891  -9.2914  -9.2117  -9.1712  -8.9822  12.0786  36.3131  40.0969
    40.8598  45.7460  47.7167  59.0658  59.6349  60.3711

          k =-0.1818 0.5455-0.1818 (   707 PWs)   bands (ev):

    -9.5660  -9.3260  -9.2104  -9.0871  -8.8887  13.9191  31.2896  38.9574
    39.3607  45.1313  50.8337  57.9484  58.1921  59.3394

          k =-0.2727 0.6364-0.2727 (   703 PWs)   bands (ev):

    -9.5290  -9.3258  -9.2327  -9.0264  -8.8292  16.2225  26.9480  37.1043
    39.3090  44.9277  54.8301  56.4304  56.8308  59.3387

          k = 0.6364-0.2727 0.6364 (   702 PWs)   bands (ev):

    -9.4945  -9.3149  -9.2523  -8.9790  -8.8451  18.0414  24.3323  35.7010
    39.9826  45.2292  55.3232  55.3465  59.4019  60.0935

          k = 0.5455-0.1818 0.5455 (   701 PWs)   bands (ev):

    -9.4539  -9.3320  -9.2562  -8.9412  -8.9388  16.9538  25.8808  34.9109
    41.3640  46.0330  54.3637  54.6445  60.6933  61.2358

          k = 0.4545-0.0909 0.4545 (   708 PWs)   bands (ev):

    -9.4088  -9.3799  -9.2426  -9.0802  -8.9315  14.6299  29.8632  34.8310
    43.3401  47.3639  53.3073  54.3772  57.5826  59.0729

          k = 0.3636 0.0000 0.3636 (   710 PWs)   bands (ev):

    -9.4339  -9.3722  -9.2590  -9.1780  -8.9642  12.6185  34.0930  36.0306
    45.5510  49.2210  51.7028  54.1057  54.9597  57.3782

          k = 0.0000 0.5455 0.0000 (   709 PWs)   bands (ev):

    -9.6628  -9.3393  -9.0832  -9.0832  -8.9640  13.0696  36.3322  38.5404
    38.5404  44.2311  44.9739  62.6096  62.6096  63.8786

          k =-0.0909 0.6364-0.0909 (   708 PWs)   bands (ev):

    -9.6754  -9.3825  -9.0456  -9.0030  -8.8859  14.6939  32.7066  36.4712
    37.6116  43.9829  46.0580  61.5509  62.3688  64.7849

          k =-0.1818 0.7273-0.1818 (   702 PWs)   bands (ev):

    -9.6330  -9.3749  -9.0633  -8.9811  -8.8206  16.8285  28.9016  33.9276
    37.4035  43.7924  49.7545  59.8394  60.8054  64.8509

          k = 0.7273-0.1818 0.7273 (   708 PWs)   bands (ev):

    -9.5747  -9.2948  -9.0885  -9.0228  -8.8363  18.8800  26.0725  31.9132
    37.9538  44.0293  54.1767  58.5278  59.3233  65.2187

          k = 0.6364-0.0909 0.6364 (   707 PWs)   bands (ev):

    -9.5176  -9.2006  -9.1062  -9.0770  -8.9316  18.7482  26.4531  30.6363
    39.2351  44.6992  57.6244  58.0126  58.8149  62.0550

          k = 0.5455 0.0000 0.5455 (   700 PWs)   bands (ev):

    -9.4590  -9.2746  -9.1231  -9.0622  -8.9951  16.6933  29.1836  30.7890
    41.1309  45.8195  56.1342  56.8761  58.4719  59.6937

          k = 0.0000 0.7273 0.0000 (   701 PWs)   bands (ev):

    -9.7451  -9.4455  -8.9003  -8.9003  -8.8910  16.0983  30.7577  36.4630
    36.4630  43.2695  43.3918  64.2581  66.1187  66.1187

          k =-0.0909 0.8182-0.0909 (   702 PWs)   bands (ev):

    -9.7405  -9.4672  -8.9122  -8.8601  -8.8130  18.0183  28.1377  34.1300
    36.0392  43.0768  45.1842  62.9010  65.4644  68.8236

          k = 0.8182-0.0909 0.8182 (   703 PWs)   bands (ev):

    -9.6728  -9.4184  -8.9384  -8.9040  -8.8178  19.9408  26.3843  30.9338
    36.3902  43.2265  49.1826  61.3938  63.8260  67.6306

          k = 0.7273 0.0000 0.7273 (   710 PWs)   bands (ev):

    -9.5923  -9.2865  -9.0176  -8.9852  -8.8885  20.2170  26.9629  28.5032
    37.4923  43.7611  53.8953  59.8669  61.7491  64.1251

          k = 0.0000 0.9091 0.0000 (   708 PWs)   bands (ev):

    -9.7947  -9.5143  -8.8472  -8.7899  -8.7899  19.6227  25.8420  35.3816
    35.3816  42.5547  42.9800  64.0973  69.9347  69.9363

          k = 0.9091-0.0000 0.9091 (   712 PWs)   bands (ev):

    -9.7655  -9.5015  -8.8605  -8.8068  -8.7883  20.6715  24.9163  33.4631
    35.5016  42.7961  44.9062  63.3116  68.0823  69.4965

          k =-0.1818 0.3636 0.0000 (   693 PWs)   bands (ev):

    -9.5206  -9.3263  -9.2823  -9.1932  -9.0170  11.3074  37.5308  39.1365
    44.8613  48.1775  49.4592  55.9501  56.5349  58.9030

          k =-0.2727 0.4545-0.0909 (   710 PWs)   bands (ev):

    -9.4985  -9.3447  -9.2495  -9.1381  -8.9413  12.9460  32.7880  37.6311
    43.0503  47.9714  51.1833  54.3965  56.7653  60.6428

          k =-0.3636 0.5455-0.1818 (   707 PWs)   bands (ev):

    -9.4622  -9.3786  -9.2622  -9.0301  -8.8790  15.1379  28.1152  37.1451
    41.1359  47.3709  52.1539  55.6001  57.2042  59.3131

          k = 0.5455-0.3636 0.7273 (   703 PWs)   bands (ev):

    -9.4357  -9.4073  -9.2669  -8.9548  -8.8516  17.3823  24.5955  37.1034
    39.9001  47.0579  51.7514  56.9757  58.0235  60.2491

          k =-0.1818 0.5455 0.0000 (   706 PWs)   bands (ev):

    -9.6022  -9.3308  -9.1576  -9.0889  -8.9226  13.4974  34.1592  36.4940
    39.7171  46.7496  46.9624  57.7381  61.0338  63.8937

          k =-0.2727 0.6364-0.0909 (   697 PWs)   bands (ev):

    -9.5613  -9.3513  -9.1597  -9.0154  -8.8684  15.4947  30.2167  34.9199
    37.9508  46.5018  50.2811  55.9411  61.5718  63.0983

          k = 0.6364-0.2727 0.8182 (   708 PWs)   bands (ev):

    -9.5096  -9.3354  -9.1579  -9.0187  -8.8427  17.7595  26.5413  33.9257
    37.1376  46.5647  53.6551  55.3924  61.2271  62.4065

          k = 0.5455-0.1818 0.7273 (   704 PWs)   bands (ev):

    -9.4671  -9.3261  -9.1246  -9.0566  -8.8672  18.7245  25.2659  33.0014
    37.6099  47.0701  53.2676  59.1745  60.2210  60.6751

          k = 0.4545-0.0909 0.6364 (   702 PWs)   bands (ev):

    -9.4237  -9.3670  -9.1600  -9.0224  -8.9270  16.9722  27.8273  32.5564
    38.9970  48.0180  52.6045  56.3890  59.4461  62.7104

          k = 0.3636 0.0000 0.5455 (   704 PWs)   bands (ev):

    -9.4436  -9.3781  -9.1815  -9.0965  -8.9227  14.7474  31.3277  33.4247
    40.9785  49.1445  51.2633  54.0739  58.5437  61.3979

          k =-0.1818 0.7273 0.0000 (   706 PWs)   bands (ev):

    -9.6766  -9.4158  -9.0261  -8.9029  -8.8559  16.4755  30.3341  34.5895
    35.7927  45.5983  45.7243  59.8722  65.8448  66.0644

          k = 0.7273-0.1818 0.9091 (   704 PWs)   bands (ev):

    -9.6138  -9.3954  -9.0504  -8.9114  -8.8256  18.5997  27.8442  31.9909
    35.1344  45.6870  49.5191  58.1616  64.2784  66.2938

          k = 0.6364-0.0909 0.8182 (   708 PWs)   bands (ev):

    -9.5415  -9.2958  -9.1029  -8.9962  -8.8399  19.9918  26.6300  29.7852
    35.7077  46.1475  54.0793  56.8093  61.1133  63.8816

          k = 0.5455 0.0000 0.7273 (   704 PWs)   bands (ev):

    -9.4795  -9.2314  -9.1606  -9.0298  -8.9126  18.9797  28.1275  28.8965
    37.0646  47.0235  55.2597  57.6486  58.9750  62.0276

          k = 0.8182-0.0909 1.0000 (   712 PWs)   bands (ev):

    -9.7211  -9.4753  -8.9105  -8.8473  -8.7902  19.8303  26.1861  33.5917
    34.1142  44.9707  45.2139  61.7659  66.3873  68.7627

          k = 0.7273 0.0000 0.9091 (   707 PWs)   bands (ev):

    -9.6338  -9.4177  -8.9659  -8.9269  -8.7927  20.7488  25.9482  30.7277
    34.4370  45.4245  49.2530  59.8475  63.3140  66.7098

          k = 0.6364-0.2727 1.0000 (   701 PWs)   bands (ev):

    -9.4850  -9.3759  -9.1629  -8.9200  -8.9085  17.5308  29.1232  31.5633
    35.8643  49.7535  50.1611  54.5070  63.8372  63.8802

          k = 0.5455-0.1818 0.9091 (   708 PWs)   bands (ev):

    -9.4171  -9.3548  -9.1744  -9.0072  -8.8404  19.4653  27.0334  30.6445
    34.5359  49.7800  52.5209  55.4211  59.6596  65.0780

          k = 0.6364-0.0909 1.0000 (   706 PWs)   bands (ev):

    -9.5137  -9.3879  -9.1064  -8.9542  -8.7909  20.3065  27.1553  30.5923
    32.7040  49.5799  49.8270  56.4788  60.7429  68.6088

          k = 0.5455 0.0000 0.9091 (   704 PWs)   bands (ev):

    -9.4228  -9.3023  -9.2339  -9.0008  -8.7917  20.6863  27.9078  28.6301
    32.8436  50.2335  54.3116  54.6270  57.0144  67.6781

     the Fermi energy is    46.5749 ev

!    total energy              =    -282.48601502 Ry
     Harris-Foulkes estimate   =    -282.48601502 Ry
     estimated scf accuracy    <          3.9E-09 Ry

     The total energy is the sum of the following terms:

     one-electron contribution =      -4.48372989 Ry
     hartree contribution      =      28.23520085 Ry
     xc contribution           =     -63.90379975 Ry
     ewald contribution        =    -242.33311988 Ry
     smearing contrib. (-TS)   =      -0.00056633 Ry

     convergence has been achieved in   5 iterations

     Forces acting on atoms (cartesian axes, Ry/au):

     atom    1 type  1   force =     0.00000000    0.00000000    0.00000000

     Total force =     0.000000     Total SCF correction =     0.000000


     Computing stress (Cartesian axis) and pressure

          total   stress  (Ry/bohr**3)                   (kbar)     P= 7012.13
   0.04766753   0.00000000   0.00000000       7012.13      0.00      0.00
   0.00000000   0.04766753  -0.00000000          0.00   7012.13     -0.00
   0.00000000   0.00000000   0.04766753          0.00      0.00   7012.13


     Writing output data file Fr.save/

     init_run     :      0.34s CPU      0.36s WALL (       1 calls)
     electrons    :      4.44s CPU      4.66s WALL (       1 calls)
     forces       :      0.04s CPU      0.04s WALL (       1 calls)
     stress       :      0.16s CPU      0.16s WALL (       1 calls)

     Called by init_run:
     wfcinit      :      0.18s CPU      0.19s WALL (       1 calls)
     potinit      :      0.00s CPU      0.00s WALL (       1 calls)
     hinit0       :      0.15s CPU      0.15s WALL (       1 calls)

     Called by electrons:
     c_bands      :      3.79s CPU      3.97s WALL (       6 calls)
     sum_band     :      0.61s CPU      0.65s WALL (       6 calls)
     v_of_rho     :      0.00s CPU      0.00s WALL (       6 calls)
     newd         :      0.03s CPU      0.04s WALL (       6 calls)
     mix_rho      :      0.00s CPU      0.00s WALL (       6 calls)

     Called by c_bands:
     init_us_2    :      0.08s CPU      0.08s WALL (     840 calls)
     cegterg      :      3.68s CPU      3.85s WALL (     336 calls)

     Called by sum_band:
     sum_band:bec :      0.00s CPU      0.01s WALL (     336 calls)
     addusdens    :      0.03s CPU      0.04s WALL (       6 calls)

     Called by *egterg:
     h_psi        :      2.66s CPU      2.80s WALL (    1252 calls)
     s_psi        :      0.08s CPU      0.09s WALL (    1252 calls)
     g_psi        :      0.01s CPU      0.01s WALL (     860 calls)
     cdiaghg      :      0.56s CPU      0.58s WALL (    1140 calls)

     Called by h_psi:
     h_psi:pot    :      2.65s CPU      2.79s WALL (    1252 calls)
     h_psi:calbec :      0.12s CPU      0.12s WALL (    1252 calls)
     vloc_psi     :      2.44s CPU      2.57s WALL (    1252 calls)
     add_vuspsi   :      0.08s CPU      0.09s WALL (    1252 calls)

     General routines
     calbec       :      0.19s CPU      0.20s WALL (    1868 calls)
     fft          :      0.01s CPU      0.01s WALL (      34 calls)
     ffts         :      0.00s CPU      0.00s WALL (       6 calls)
     fftw         :      2.74s CPU      2.89s WALL (   30174 calls)

     Parallel routines
     fft_scatt_xy :      0.22s CPU      0.23s WALL (   30214 calls)
     fft_scatt_yz :      0.73s CPU      0.77s WALL (   30214 calls)

     PWSCF        :     5.94s CPU         6.27s WALL


   This run was terminated on:  22:44:10   7Apr2024            

=------------------------------------------------------------------------------=
   JOB DONE.
=------------------------------------------------------------------------------=
