
     Program PWSCF v.6.3MaX starts on  7Apr2024 at 23: 1:39 

     This program is part of the open-source Quantum ESPRESSO suite
     for quantum simulation of materials; please cite
         "P. Giannozzi et al., J. Phys.:Condens. Matter 21 395502 (2009);
         "P. Giannozzi et al., J. Phys.:Condens. Matter 29 465901 (2017);
          URL http://www.quantum-espresso.org", 
     in publications or presentations arising from this work. More details at
     http://www.quantum-espresso.org/quote

     Parallel version (MPI), running on     5 processors

     MPI processes distributed on     1 nodes
     R & G space division:  proc/nbgrp/npool/nimage =       5
     Waiting for input...
     Reading input from standard input

     Current dimensions of program PWSCF are:
     Max number of different atomic species (ntypx) = 10
     Max number of k-points (npk) =  40000
     Max angular momentum in pseudopotentials (lmaxx) =  3

     Subspace diagonalization in iterative solution of the eigenvalue problem:
     a serial algorithm will be used


     Parallelization info
     --------------------
     sticks:   dense  smooth     PW     G-vecs:    dense   smooth      PW
     Min         116     116     37                 1850     1850     327
     Max         117     117     38                 1853     1853     329
     Sum         583     583    187                 9257     9257    1639



     bravais-lattice index     =            2
     lattice parameter (alat)  =       6.8300  a.u.
     unit-cell volume          =      79.6530 (a.u.)^3
     number of atoms/cell      =            1
     number of atomic types    =            1
     number of electrons       =        19.00
     number of Kohn-Sham states=           14
     kinetic-energy cutoff     =      90.0000  Ry
     charge density cutoff     =     360.0000  Ry
     convergence threshold     =      1.0E-08
     mixing beta               =       0.7000
     number of iterations used =            8  plain     mixing
     Exchange-correlation      = PBE ( 1  4  3  4 0 0)

     celldm(1)=   6.830000  celldm(2)=   0.000000  celldm(3)=   0.000000
     celldm(4)=   0.000000  celldm(5)=   0.000000  celldm(6)=   0.000000

     crystal axes: (cart. coord. in units of alat)
               a(1) = (  -0.500000   0.000000   0.500000 )  
               a(2) = (   0.000000   0.500000   0.500000 )  
               a(3) = (  -0.500000   0.500000   0.000000 )  

     reciprocal axes: (cart. coord. in units 2 pi/alat)
               b(1) = ( -1.000000 -1.000000  1.000000 )  
               b(2) = (  1.000000  1.000000  1.000000 )  
               b(3) = ( -1.000000  1.000000 -1.000000 )  


     PseudoPot. # 1 for Fr read from file:
     /home/lorenzo/pseudos/Fr/Fr.pbe-spdn-rrkjus_psl.1.0.0.UPF
     MD5 check sum: 07cabfa18982bd6b5b9d8ae5689d9732
     Pseudo is Ultrasoft + core correction, Zval = 19.0
     Generated using "atomic" code by A. Dal Corso v.6.2.2
     Using radial grid of 1287 points,  6 beta functions with: 
                l(1) =   0
                l(2) =   0
                l(3) =   1
                l(4) =   1
                l(5) =   2
                l(6) =   2
     Q(r) pseudized with 0 coefficients 


     atomic species   valence    mass     pseudopotential
        Fr            19.00   223.00000     Fr( 1.00)

     48 Sym. Ops., with inversion, found



   Cartesian axes

     site n.     atom                  positions (alat units)
         1           Fr  tau(   1) = (   0.0000000   0.0000000   0.0000000  )

     number of k points=    20  gaussian smearing, width (Ry)=  0.0100
                       cart. coord. in units 2pi/alat
        k(    1) = (   0.0000000   0.0000000   0.0000000), wk =   0.0058309
        k(    2) = (  -0.1428571   0.1428571  -0.1428571), wk =   0.0466472
        k(    3) = (  -0.2857143   0.2857143  -0.2857143), wk =   0.0466472
        k(    4) = (  -0.4285714   0.4285714  -0.4285714), wk =   0.0466472
        k(    5) = (   0.0000000   0.2857143   0.0000000), wk =   0.0349854
        k(    6) = (  -0.1428571   0.4285714  -0.1428571), wk =   0.1399417
        k(    7) = (  -0.2857143   0.5714286  -0.2857143), wk =   0.1399417
        k(    8) = (   0.5714286  -0.2857143   0.5714286), wk =   0.1399417
        k(    9) = (   0.4285714  -0.1428571   0.4285714), wk =   0.1399417
        k(   10) = (   0.2857143  -0.0000000   0.2857143), wk =   0.0699708
        k(   11) = (   0.0000000   0.5714286   0.0000000), wk =   0.0349854
        k(   12) = (  -0.1428571   0.7142857  -0.1428571), wk =   0.1399417
        k(   13) = (   0.7142857  -0.1428571   0.7142857), wk =   0.1399417
        k(   14) = (   0.5714286   0.0000000   0.5714286), wk =   0.0699708
        k(   15) = (   0.0000000   0.8571429   0.0000000), wk =   0.0349854
        k(   16) = (   0.8571429  -0.0000000   0.8571429), wk =   0.0699708
        k(   17) = (  -0.2857143   0.5714286   0.0000000), wk =   0.1399417
        k(   18) = (   0.5714286  -0.2857143   0.8571429), wk =   0.2798834
        k(   19) = (   0.7142857  -0.1428571   1.0000000), wk =   0.1399417
        k(   20) = (   0.5714286   0.0000000   0.8571429), wk =   0.1399417

     Dense  grid:     9257 G-vectors     FFT dimensions: (  30,  30,  30)

     Estimated max dynamical RAM per process >       9.56 MB

     Estimated total dynamical RAM >      47.81 MB

     Initial potential from superposition of free atoms

     starting charge   18.97009, renormalised to   19.00000
     Starting wfcs are   10 randomized atomic wfcs +    4 random wfcs

     total cpu time spent up to now is        1.2 secs

     Self-consistent Calculation

     iteration #  1     ecut=    90.00 Ry     beta= 0.70
     Davidson diagonalization with overlap
     ethr =  1.00E-02,  avg # of iterations =  4.6

     Threshold (ethr) on eigenvalues was too large:
     Diagonalizing with lowered threshold

     Davidson diagonalization with overlap
     ethr =  1.10E-04,  avg # of iterations =  1.7

     total cpu time spent up to now is        2.0 secs

     total energy              =    -282.85430317 Ry
     Harris-Foulkes estimate   =    -282.86747116 Ry
     estimated scf accuracy    <       0.02086795 Ry

     iteration #  2     ecut=    90.00 Ry     beta= 0.70
     Davidson diagonalization with overlap
     ethr =  1.10E-04,  avg # of iterations =  2.0

     total cpu time spent up to now is        2.5 secs

     total energy              =    -282.85773225 Ry
     Harris-Foulkes estimate   =    -282.85830152 Ry
     estimated scf accuracy    <       0.00077724 Ry

     iteration #  3     ecut=    90.00 Ry     beta= 0.70
     Davidson diagonalization with overlap
     ethr =  4.09E-06,  avg # of iterations =  3.0

     total cpu time spent up to now is        2.9 secs

     total energy              =    -282.85787965 Ry
     Harris-Foulkes estimate   =    -282.85789964 Ry
     estimated scf accuracy    <       0.00004117 Ry

     iteration #  4     ecut=    90.00 Ry     beta= 0.70
     Davidson diagonalization with overlap
     ethr =  2.17E-07,  avg # of iterations =  1.5

     total cpu time spent up to now is        3.2 secs

     total energy              =    -282.85788373 Ry
     Harris-Foulkes estimate   =    -282.85788375 Ry
     estimated scf accuracy    <       0.00000011 Ry

     iteration #  5     ecut=    90.00 Ry     beta= 0.70
     Davidson diagonalization with overlap
     ethr =  5.79E-10,  avg # of iterations =  2.8

     total cpu time spent up to now is        3.6 secs

     End of self-consistent calculation

          k = 0.0000 0.0000 0.0000 (  1139 PWs)   bands (ev):

    -9.3243  -9.3243  -9.3243  -8.9812  -8.9812   9.4641  47.2760  47.2760
    47.2760  48.3117  53.8640  53.8640  53.8640  57.8206

          k =-0.1429 0.1429-0.1429 (  1161 PWs)   bands (ev):

    -9.3174  -9.2684  -9.2684  -8.9745  -8.9745  10.2829  40.4170  46.1645
    46.1645  48.2067  55.5006  55.7706  55.7706  56.3892

          k =-0.2857 0.2857-0.2857 (  1155 PWs)   bands (ev):

    -9.3093  -9.2340  -9.2340  -8.8649  -8.8649  12.7316  31.7759  44.3704
    44.3704  48.2186  52.8256  53.4354  53.4354  59.8952

          k =-0.4286 0.4286-0.4286 (  1155 PWs)   bands (ev):

    -9.3098  -9.2639  -9.2639  -8.7159  -8.7159  16.4289  24.8090  43.1838
    43.1838  48.0975  51.3930  51.9554  51.9554  64.4403

          k = 0.0000 0.2857 0.0000 (  1155 PWs)   bands (ev):

    -9.3862  -9.1993  -9.1993  -9.0459  -8.9284  10.5554  43.1814  43.1814
    43.6499  46.3581  50.8088  57.5918  58.4091  58.4091

          k =-0.1429 0.4286-0.1429 (  1139 PWs)   bands (ev):

    -9.3955  -9.1612  -9.1196  -9.0110  -8.8309  12.4639  34.9865  41.1092
    42.2559  46.6968  50.2249  57.2662  58.2036  58.6737

          k =-0.2857 0.5714-0.2857 (  1143 PWs)   bands (ev):

    -9.3532  -9.1997  -9.1428  -8.8684  -8.7000  15.8397  27.4584  39.5106
    40.4814  45.7740  55.2308  55.6354  56.3527  57.7557

          k = 0.5714-0.2857 0.5714 (  1152 PWs)   bands (ev):

    -9.3106  -9.2162  -9.1674  -8.7706  -8.7228  17.9953  24.2646  37.6041
    41.5533  46.2551  53.8923  54.0420  58.2514  62.9861

          k = 0.4286-0.1429 0.4286 (  1146 PWs)   bands (ev):

    -9.2649  -9.2457  -9.1501  -8.9067  -8.7770  14.5809  29.8148  37.1994
    44.2494  48.0773  52.5707  53.4974  58.4458  59.7529

          k = 0.2857-0.0000 0.2857 (  1153 PWs)   bands (ev):

    -9.3137  -9.2138  -9.1870  -9.0258  -8.8773  11.6474  37.2864  38.8961
    47.3644  50.5006  51.3523  53.7299  54.6370  56.9738

          k = 0.0000 0.5714 0.0000 (  1146 PWs)   bands (ev):

    -9.5244  -9.2074  -8.9096  -8.9096  -8.8092  13.8258  35.9169  38.5058
    38.5058  44.2598  44.8629  63.3465  63.3466  64.7463

          k =-0.1429 0.7143-0.1429 (  1144 PWs)   bands (ev):

    -9.5143  -9.2495  -8.8885  -8.8187  -8.6886  16.7100  30.3746  34.7066
    37.4788  43.8794  48.1457  61.0404  62.1763  65.8623

          k = 0.7143-0.1429 0.7143 (  1147 PWs)   bands (ev):

    -9.4205  -9.1264  -8.9265  -8.8880  -8.7107  19.7658  26.2492  31.3031
    38.3039  44.2385  55.0341  58.9113  59.8102  65.3614

          k = 0.5714 0.0000 0.5714 (  1137 PWs)   bands (ev):

    -9.3265  -9.0954  -8.9627  -8.8900  -8.8805  17.7197  29.0698  30.4201
    40.8611  45.6639  57.1244  57.4690  59.5458  60.3191

          k = 0.0000 0.8571 0.0000 (  1146 PWs)   bands (ev):

    -9.6342  -9.3511  -8.7127  -8.6680  -8.6680  19.0325  27.4219  35.8988
    35.8988  42.9097  43.2211  64.4220  69.1954  69.1954

          k = 0.8571-0.0000 0.8571 (  1150 PWs)   bands (ev):

    -9.5677  -9.3157  -8.7437  -8.7067  -8.6640  21.1507  25.5758  32.0704
    36.1932  43.1798  47.4312  62.6910  66.5552  68.2897

          k =-0.2857 0.5714 0.0000 (  1142 PWs)   bands (ev):

    -9.3794  -9.2001  -9.0376  -8.9204  -8.7616  14.8658  32.4424  34.6813
    39.9774  49.0760  49.2666  55.1106  60.5200  63.5865

          k = 0.5714-0.2857 0.8571 (  1146 PWs)   bands (ev):

    -9.2910  -9.2257  -9.0052  -8.8794  -8.7269  18.3390  26.8839  33.4452
    37.3071  48.6109  52.4404  56.4250  61.7249  62.5682

          k = 0.7143-0.1429 1.0000 (  1150 PWs)   bands (ev):

    -9.4584  -9.2681  -8.8938  -8.7511  -8.6696  19.6985  27.8157  32.3434
    33.8756  47.8981  47.9752  58.4297  64.3261  68.6935

          k = 0.5714 0.0000 0.8571 (  1148 PWs)   bands (ev):

    -9.3237  -9.1302  -9.0458  -8.8586  -8.6730  20.8651  28.0364  28.7551
    34.3593  48.7547  55.1829  55.7301  58.1801  66.2030

     the Fermi energy is    47.3757 ev

!    total energy              =    -282.85788379 Ry
     Harris-Foulkes estimate   =    -282.85788379 Ry
     estimated scf accuracy    <          5.3E-09 Ry

     The total energy is the sum of the following terms:

     one-electron contribution =      -4.07956067 Ry
     hartree contribution      =      28.13934025 Ry
     xc contribution           =     -64.58415144 Ry
     ewald contribution        =    -242.33311988 Ry
     smearing contrib. (-TS)   =      -0.00039205 Ry

     convergence has been achieved in   5 iterations

     Forces acting on atoms (cartesian axes, Ry/au):

     atom    1 type  1   force =     0.00000000    0.00000000    0.00000000

     Total force =     0.000000     Total SCF correction =     0.000000


     Computing stress (Cartesian axis) and pressure

          total   stress  (Ry/bohr**3)                   (kbar)     P= 7153.07
   0.04862561  -0.00000000  -0.00000000       7153.07     -0.00     -0.00
  -0.00000000   0.04862561  -0.00000000         -0.00   7153.07     -0.00
  -0.00000000   0.00000000   0.04862561         -0.00      0.00   7153.07


     Writing output data file Fr.save/

     init_run     :      0.30s CPU      0.31s WALL (       1 calls)
     electrons    :      2.36s CPU      2.45s WALL (       1 calls)
     forces       :      0.06s CPU      0.06s WALL (       1 calls)
     stress       :      0.18s CPU      0.18s WALL (       1 calls)

     Called by init_run:
     wfcinit      :      0.09s CPU      0.10s WALL (       1 calls)
     potinit      :      0.01s CPU      0.01s WALL (       1 calls)
     hinit0       :      0.19s CPU      0.19s WALL (       1 calls)

     Called by electrons:
     c_bands      :      1.91s CPU      1.98s WALL (       6 calls)
     sum_band     :      0.37s CPU      0.39s WALL (       6 calls)
     v_of_rho     :      0.04s CPU      0.04s WALL (       6 calls)
     newd         :      0.06s CPU      0.06s WALL (       6 calls)
     mix_rho      :      0.00s CPU      0.00s WALL (       6 calls)

     Called by c_bands:
     init_us_2    :      0.05s CPU      0.05s WALL (     300 calls)
     cegterg      :      1.84s CPU      1.91s WALL (     120 calls)

     Called by sum_band:
     sum_band:bec :      0.00s CPU      0.00s WALL (     120 calls)
     addusdens    :      0.06s CPU      0.06s WALL (       6 calls)

     Called by *egterg:
     h_psi        :      1.37s CPU      1.42s WALL (     452 calls)
     s_psi        :      0.04s CPU      0.04s WALL (     452 calls)
     g_psi        :      0.00s CPU      0.00s WALL (     312 calls)
     cdiaghg      :      0.21s CPU      0.22s WALL (     412 calls)

     Called by h_psi:
     h_psi:pot    :      1.36s CPU      1.42s WALL (     452 calls)
     h_psi:calbec :      0.06s CPU      0.07s WALL (     452 calls)
     vloc_psi     :      1.25s CPU      1.30s WALL (     452 calls)
     add_vuspsi   :      0.05s CPU      0.05s WALL (     452 calls)

     General routines
     calbec       :      0.12s CPU      0.12s WALL (     672 calls)
     fft          :      0.03s CPU      0.03s WALL (      93 calls)
     ffts         :      0.00s CPU      0.00s WALL (       6 calls)
     fftw         :      1.40s CPU      1.46s WALL (   10754 calls)

     Parallel routines
     fft_scatt_xy :      0.12s CPU      0.13s WALL (   10853 calls)
     fft_scatt_yz :      0.37s CPU      0.38s WALL (   10853 calls)

     PWSCF        :     3.83s CPU         4.01s WALL


   This run was terminated on:  23: 1:43   7Apr2024            

=------------------------------------------------------------------------------=
   JOB DONE.
=------------------------------------------------------------------------------=
