
     Program PWSCF v.6.3MaX starts on  7Apr2024 at 22:47:29 

     This program is part of the open-source Quantum ESPRESSO suite
     for quantum simulation of materials; please cite
         "P. Giannozzi et al., J. Phys.:Condens. Matter 21 395502 (2009);
         "P. Giannozzi et al., J. Phys.:Condens. Matter 29 465901 (2017);
          URL http://www.quantum-espresso.org", 
     in publications or presentations arising from this work. More details at
     http://www.quantum-espresso.org/quote

     Parallel version (MPI), running on     5 processors

     MPI processes distributed on     1 nodes
     R & G space division:  proc/nbgrp/npool/nimage =       5
     Waiting for input...
     Reading input from standard input

     Current dimensions of program PWSCF are:
     Max number of different atomic species (ntypx) = 10
     Max number of k-points (npk) =  40000
     Max angular momentum in pseudopotentials (lmaxx) =  3
               file Fr.pz-spdn-kjpaw_psl.1.0.0.UPF: wavefunction(s)  6P renormalized

     Subspace diagonalization in iterative solution of the eigenvalue problem:
     a serial algorithm will be used


     Parallelization info
     --------------------
     sticks:   dense  smooth     PW     G-vecs:    dense   smooth      PW
     Min          87      87     27                 1245     1245     213
     Max          88      88     28                 1247     1247     214
     Sum         439     439    139                 6231     6231    1067



     bravais-lattice index     =            2
     lattice parameter (alat)  =       6.8300  a.u.
     unit-cell volume          =      79.6530 (a.u.)^3
     number of atoms/cell      =            1
     number of atomic types    =            1
     number of electrons       =        19.00
     number of Kohn-Sham states=           14
     kinetic-energy cutoff     =      70.0000  Ry
     charge density cutoff     =     280.0000  Ry
     convergence threshold     =      1.0E-08
     mixing beta               =       0.7000
     number of iterations used =            8  plain     mixing
     Exchange-correlation      = SLA PZ NOGX NOGC ( 1  1  0  0 0 0)

     celldm(1)=   6.830000  celldm(2)=   0.000000  celldm(3)=   0.000000
     celldm(4)=   0.000000  celldm(5)=   0.000000  celldm(6)=   0.000000

     crystal axes: (cart. coord. in units of alat)
               a(1) = (  -0.500000   0.000000   0.500000 )  
               a(2) = (   0.000000   0.500000   0.500000 )  
               a(3) = (  -0.500000   0.500000   0.000000 )  

     reciprocal axes: (cart. coord. in units 2 pi/alat)
               b(1) = ( -1.000000 -1.000000  1.000000 )  
               b(2) = (  1.000000  1.000000  1.000000 )  
               b(3) = ( -1.000000  1.000000 -1.000000 )  


     PseudoPot. # 1 for Fr read from file:
     /home/lorenzo/pseudos/Fr/Fr.pz-spdn-kjpaw_psl.1.0.0.UPF
     MD5 check sum: 60dafd115682613df3cc92ec23a62a32
     Pseudo is Projector augmented-wave + core cor, Zval = 19.0
     Generated using "atomic" code by A. Dal Corso v.6.2.2
     Shape of augmentation charge: PSQ
     Using radial grid of 1287 points,  6 beta functions with: 
                l(1) =   0
                l(2) =   0
                l(3) =   1
                l(4) =   1
                l(5) =   2
                l(6) =   2
     Q(r) pseudized with 0 coefficients 


     atomic species   valence    mass     pseudopotential
        Fr            19.00   223.00000     Fr( 1.00)

     48 Sym. Ops., with inversion, found



   Cartesian axes

     site n.     atom                  positions (alat units)
         1           Fr  tau(   1) = (   0.0000000   0.0000000   0.0000000  )

     number of k points=     4  gaussian smearing, width (Ry)=  0.0100
                       cart. coord. in units 2pi/alat
        k(    1) = (   0.0000000   0.0000000   0.0000000), wk =   0.0740741
        k(    2) = (  -0.3333333   0.3333333  -0.3333333), wk =   0.5925926
        k(    3) = (   0.0000000   0.6666667   0.0000000), wk =   0.4444444
        k(    4) = (   0.6666667  -0.0000000   0.6666667), wk =   0.8888889

     Dense  grid:     6231 G-vectors     FFT dimensions: (  25,  25,  25)

     Estimated max dynamical RAM per process >       6.22 MB

     Estimated total dynamical RAM >      31.11 MB

     Check: negative/imaginary core charge=   -0.000002    0.000000

     Initial potential from superposition of free atoms

     starting charge   18.97647, renormalised to   19.00000
     Starting wfcs are   10 randomized atomic wfcs +    4 random wfcs
     Checking if some PAW data can be deallocated... 

     total cpu time spent up to now is        1.2 secs

     Self-consistent Calculation

     iteration #  1     ecut=    70.00 Ry     beta= 0.70
     Davidson diagonalization with overlap
     ethr =  1.00E-02,  avg # of iterations =  4.5

     Threshold (ethr) on eigenvalues was too large:
     Diagonalizing with lowered threshold

     Davidson diagonalization with overlap
     ethr =  6.47E-05,  avg # of iterations =  1.8

     total cpu time spent up to now is        1.4 secs

     total energy              =   -1045.19034171 Ry
     Harris-Foulkes estimate   =   -1045.19896373 Ry
     estimated scf accuracy    <       0.01214313 Ry

     iteration #  2     ecut=    70.00 Ry     beta= 0.70
     Davidson diagonalization with overlap
     ethr =  6.39E-05,  avg # of iterations =  2.0

     total cpu time spent up to now is        1.6 secs

     total energy              =   -1045.19221766 Ry
     Harris-Foulkes estimate   =   -1045.19241145 Ry
     estimated scf accuracy    <       0.00041833 Ry

     iteration #  3     ecut=    70.00 Ry     beta= 0.70
     Davidson diagonalization with overlap
     ethr =  2.20E-06,  avg # of iterations =  2.5

     total cpu time spent up to now is        1.7 secs

     total energy              =   -1045.19225578 Ry
     Harris-Foulkes estimate   =   -1045.19225959 Ry
     estimated scf accuracy    <       0.00001739 Ry

     iteration #  4     ecut=    70.00 Ry     beta= 0.70
     Davidson diagonalization with overlap
     ethr =  9.15E-08,  avg # of iterations =  2.2

     total cpu time spent up to now is        1.8 secs

     total energy              =   -1045.19226029 Ry
     Harris-Foulkes estimate   =   -1045.19225999 Ry
     estimated scf accuracy    <       0.00000029 Ry

     iteration #  5     ecut=    70.00 Ry     beta= 0.70
     Davidson diagonalization with overlap
     ethr =  1.53E-09,  avg # of iterations =  1.8

     total cpu time spent up to now is        1.9 secs

     total energy              =   -1045.19226033 Ry
     Harris-Foulkes estimate   =   -1045.19226033 Ry
     estimated scf accuracy    <       0.00000002 Ry

     iteration #  6     ecut=    70.00 Ry     beta= 0.70
     Davidson diagonalization with overlap
     ethr =  1.12E-10,  avg # of iterations =  2.0

     total cpu time spent up to now is        2.0 secs

     End of self-consistent calculation

          k = 0.0000 0.0000 0.0000 (   749 PWs)   bands (ev):

    -9.3485  -9.3485  -9.3485  -9.0036  -9.0036   9.1199  46.8944  46.8944
    46.8944  48.0972  53.6980  53.6980  53.6980  57.4829

          k =-0.3333 0.3333-0.3333 (   787 PWs)   bands (ev):

    -9.3363  -9.2708  -9.2708  -8.8290  -8.8290  13.5309  28.8783  43.5226
    43.5226  47.9498  51.9128  52.5702  52.5702  61.2055

          k = 0.0000 0.6667 0.0000 (   797 PWs)   bands (ev):

    -9.6024  -9.2970  -8.8310  -8.8310  -8.7929  15.0273  32.6117  37.0552
    37.0552  43.6373  43.6760  64.3643  64.8777  64.8777

          k = 0.6667-0.0000 0.6667 (   792 PWs)   bands (ev):

    -9.4245  -9.0558  -8.9828  -8.9173  -8.8155  19.4102  28.0240  28.0629
    38.5546  44.3041  57.1715  58.7757  59.7621  62.3468

     the Fermi energy is    44.2734 ev

!    total energy              =   -1045.19226033 Ry
     Harris-Foulkes estimate   =   -1045.19226033 Ry
     estimated scf accuracy    <          5.9E-10 Ry

     total all-electron energy =    -48490.645233 Ry

     The total energy is the sum of the following terms:

     one-electron contribution =       1.45461706 Ry
     hartree contribution      =      28.33193676 Ry
     xc contribution           =     -63.91874743 Ry
     ewald contribution        =    -242.33311988 Ry
     one-center paw contrib.   =    -768.72456345 Ry
     smearing contrib. (-TS)   =      -0.00238339 Ry

     convergence has been achieved in   6 iterations

     Forces acting on atoms (cartesian axes, Ry/au):

     atom    1 type  1   force =     0.00000000    0.00000000    0.00000000

     Total force =     0.000000     Total SCF correction =     0.000000


     Computing stress (Cartesian axis) and pressure

          total   stress  (Ry/bohr**3)                   (kbar)     P= 7184.56
   0.04883966  -0.00000000  -0.00000000       7184.56     -0.00     -0.00
  -0.00000000   0.04883966  -0.00000000         -0.00   7184.56     -0.00
   0.00000000  -0.00000000   0.04883966          0.00     -0.00   7184.56


     Writing output data file Fr.save/

     init_run     :      0.27s CPU      0.27s WALL (       1 calls)
     electrons    :      0.74s CPU      0.76s WALL (       1 calls)
     forces       :      0.03s CPU      0.03s WALL (       1 calls)
     stress       :      0.06s CPU      0.06s WALL (       1 calls)

     Called by init_run:
     wfcinit      :      0.02s CPU      0.02s WALL (       1 calls)
     potinit      :      0.06s CPU      0.06s WALL (       1 calls)
     hinit0       :      0.17s CPU      0.18s WALL (       1 calls)

     Called by electrons:
     c_bands      :      0.32s CPU      0.33s WALL (       7 calls)
     sum_band     :      0.09s CPU      0.10s WALL (       7 calls)
     v_of_rho     :      0.01s CPU      0.01s WALL (       7 calls)
     newd         :      0.05s CPU      0.05s WALL (       7 calls)
     PAW_pot      :      0.33s CPU      0.33s WALL (       7 calls)
     mix_rho      :      0.00s CPU      0.00s WALL (       7 calls)

     Called by c_bands:
     init_us_2    :      0.01s CPU      0.01s WALL (      68 calls)
     cegterg      :      0.31s CPU      0.32s WALL (      28 calls)

     Called by sum_band:
     sum_band:bec :      0.00s CPU      0.00s WALL (      28 calls)
     addusdens    :      0.04s CPU      0.04s WALL (       7 calls)

     Called by *egterg:
     h_psi        :      0.23s CPU      0.24s WALL (      99 calls)
     s_psi        :      0.01s CPU      0.01s WALL (      99 calls)
     g_psi        :      0.00s CPU      0.00s WALL (      67 calls)
     cdiaghg      :      0.04s CPU      0.04s WALL (      91 calls)

     Called by h_psi:
     h_psi:pot    :      0.23s CPU      0.24s WALL (      99 calls)
     h_psi:calbec :      0.01s CPU      0.01s WALL (      99 calls)
     vloc_psi     :      0.21s CPU      0.21s WALL (      99 calls)
     add_vuspsi   :      0.01s CPU      0.01s WALL (      99 calls)

     General routines
     calbec       :      0.02s CPU      0.02s WALL (     147 calls)
     fft          :      0.01s CPU      0.01s WALL (      38 calls)
     ffts         :      0.00s CPU      0.00s WALL (       7 calls)
     fftw         :      0.23s CPU      0.23s WALL (    2452 calls)

     Parallel routines
     fft_scatt_xy :      0.02s CPU      0.02s WALL (    2497 calls)
     fft_scatt_yz :      0.09s CPU      0.09s WALL (    2497 calls)

     PWSCF        :     2.07s CPU         2.14s WALL


   This run was terminated on:  22:47:32   7Apr2024            

=------------------------------------------------------------------------------=
   JOB DONE.
=------------------------------------------------------------------------------=
