
     Program PWSCF v.6.3MaX starts on  7Apr2024 at 22:17:27 

     This program is part of the open-source Quantum ESPRESSO suite
     for quantum simulation of materials; please cite
         "P. Giannozzi et al., J. Phys.:Condens. Matter 21 395502 (2009);
         "P. Giannozzi et al., J. Phys.:Condens. Matter 29 465901 (2017);
          URL http://www.quantum-espresso.org", 
     in publications or presentations arising from this work. More details at
     http://www.quantum-espresso.org/quote

     Parallel version (MPI), running on     5 processors

     MPI processes distributed on     1 nodes
     R & G space division:  proc/nbgrp/npool/nimage =       5
     Waiting for input...
     Reading input from standard input

     Current dimensions of program PWSCF are:
     Max number of different atomic species (ntypx) = 10
     Max number of k-points (npk) =  40000
     Max angular momentum in pseudopotentials (lmaxx) =  3
               file Fr.pz-spdn-kjpaw_psl.1.0.0.UPF: wavefunction(s)  6P renormalized

     Subspace diagonalization in iterative solution of the eigenvalue problem:
     a serial algorithm will be used


     Parallelization info
     --------------------
     sticks:   dense  smooth     PW     G-vecs:    dense   smooth      PW
     Min         129     129     39                 2168     2168     365
     Max         130     130     40                 2171     2171     368
     Sum         649     649    199                10849    10849    1837



     bravais-lattice index     =            2
     lattice parameter (alat)  =       6.8300  a.u.
     unit-cell volume          =      79.6530 (a.u.)^3
     number of atoms/cell      =            1
     number of atomic types    =            1
     number of electrons       =        19.00
     number of Kohn-Sham states=           14
     kinetic-energy cutoff     =     100.0000  Ry
     charge density cutoff     =     400.0000  Ry
     convergence threshold     =      1.0E-08
     mixing beta               =       0.7000
     number of iterations used =            8  plain     mixing
     Exchange-correlation      = SLA PZ NOGX NOGC ( 1  1  0  0 0 0)

     celldm(1)=   6.830000  celldm(2)=   0.000000  celldm(3)=   0.000000
     celldm(4)=   0.000000  celldm(5)=   0.000000  celldm(6)=   0.000000

     crystal axes: (cart. coord. in units of alat)
               a(1) = (  -0.500000   0.000000   0.500000 )  
               a(2) = (   0.000000   0.500000   0.500000 )  
               a(3) = (  -0.500000   0.500000   0.000000 )  

     reciprocal axes: (cart. coord. in units 2 pi/alat)
               b(1) = ( -1.000000 -1.000000  1.000000 )  
               b(2) = (  1.000000  1.000000  1.000000 )  
               b(3) = ( -1.000000  1.000000 -1.000000 )  


     PseudoPot. # 1 for Fr read from file:
     /home/lorenzo/pseudos/Fr/Fr.pz-spdn-kjpaw_psl.1.0.0.UPF
     MD5 check sum: 60dafd115682613df3cc92ec23a62a32
     Pseudo is Projector augmented-wave + core cor, Zval = 19.0
     Generated using "atomic" code by A. Dal Corso v.6.2.2
     Shape of augmentation charge: PSQ
     Using radial grid of 1287 points,  6 beta functions with: 
                l(1) =   0
                l(2) =   0
                l(3) =   1
                l(4) =   1
                l(5) =   2
                l(6) =   2
     Q(r) pseudized with 0 coefficients 


     atomic species   valence    mass     pseudopotential
        Fr            19.00   223.00000     Fr( 1.00)

     48 Sym. Ops., with inversion, found



   Cartesian axes

     site n.     atom                  positions (alat units)
         1           Fr  tau(   1) = (   0.0000000   0.0000000   0.0000000  )

     number of k points=    20  gaussian smearing, width (Ry)=  0.0100
                       cart. coord. in units 2pi/alat
        k(    1) = (   0.0000000   0.0000000   0.0000000), wk =   0.0058309
        k(    2) = (  -0.1428571   0.1428571  -0.1428571), wk =   0.0466472
        k(    3) = (  -0.2857143   0.2857143  -0.2857143), wk =   0.0466472
        k(    4) = (  -0.4285714   0.4285714  -0.4285714), wk =   0.0466472
        k(    5) = (   0.0000000   0.2857143   0.0000000), wk =   0.0349854
        k(    6) = (  -0.1428571   0.4285714  -0.1428571), wk =   0.1399417
        k(    7) = (  -0.2857143   0.5714286  -0.2857143), wk =   0.1399417
        k(    8) = (   0.5714286  -0.2857143   0.5714286), wk =   0.1399417
        k(    9) = (   0.4285714  -0.1428571   0.4285714), wk =   0.1399417
        k(   10) = (   0.2857143  -0.0000000   0.2857143), wk =   0.0699708
        k(   11) = (   0.0000000   0.5714286   0.0000000), wk =   0.0349854
        k(   12) = (  -0.1428571   0.7142857  -0.1428571), wk =   0.1399417
        k(   13) = (   0.7142857  -0.1428571   0.7142857), wk =   0.1399417
        k(   14) = (   0.5714286   0.0000000   0.5714286), wk =   0.0699708
        k(   15) = (   0.0000000   0.8571429   0.0000000), wk =   0.0349854
        k(   16) = (   0.8571429  -0.0000000   0.8571429), wk =   0.0699708
        k(   17) = (  -0.2857143   0.5714286   0.0000000), wk =   0.1399417
        k(   18) = (   0.5714286  -0.2857143   0.8571429), wk =   0.2798834
        k(   19) = (   0.7142857  -0.1428571   1.0000000), wk =   0.1399417
        k(   20) = (   0.5714286   0.0000000   0.8571429), wk =   0.1399417

     Dense  grid:    10849 G-vectors     FFT dimensions: (  32,  32,  32)

     Estimated max dynamical RAM per process >      11.08 MB

     Estimated total dynamical RAM >      55.39 MB

     Initial potential from superposition of free atoms

     starting charge   18.97647, renormalised to   19.00000
     Starting wfcs are   10 randomized atomic wfcs +    4 random wfcs
     Checking if some PAW data can be deallocated... 

     total cpu time spent up to now is        1.3 secs

     Self-consistent Calculation

     iteration #  1     ecut=   100.00 Ry     beta= 0.70
     Davidson diagonalization with overlap
     ethr =  1.00E-02,  avg # of iterations =  4.8

     Threshold (ethr) on eigenvalues was too large:
     Diagonalizing with lowered threshold

     Davidson diagonalization with overlap
     ethr =  9.86E-05,  avg # of iterations =  1.8

     total cpu time spent up to now is        2.4 secs

     total energy              =   -1045.27205165 Ry
     Harris-Foulkes estimate   =   -1045.28533931 Ry
     estimated scf accuracy    <       0.01867105 Ry

     iteration #  2     ecut=   100.00 Ry     beta= 0.70
     Davidson diagonalization with overlap
     ethr =  9.83E-05,  avg # of iterations =  2.0

     total cpu time spent up to now is        2.9 secs

     total energy              =   -1045.27548861 Ry
     Harris-Foulkes estimate   =   -1045.27582153 Ry
     estimated scf accuracy    <       0.00062669 Ry

     iteration #  3     ecut=   100.00 Ry     beta= 0.70
     Davidson diagonalization with overlap
     ethr =  3.30E-06,  avg # of iterations =  3.0

     total cpu time spent up to now is        3.5 secs

     total energy              =   -1045.27557755 Ry
     Harris-Foulkes estimate   =   -1045.27557978 Ry
     estimated scf accuracy    <       0.00001707 Ry

     iteration #  4     ecut=   100.00 Ry     beta= 0.70
     Davidson diagonalization with overlap
     ethr =  8.98E-08,  avg # of iterations =  2.0

     total cpu time spent up to now is        4.1 secs

     total energy              =   -1045.27558242 Ry
     Harris-Foulkes estimate   =   -1045.27558179 Ry
     estimated scf accuracy    <       0.00000023 Ry

     iteration #  5     ecut=   100.00 Ry     beta= 0.70
     Davidson diagonalization with overlap
     ethr =  1.19E-09,  avg # of iterations =  2.4

     total cpu time spent up to now is        4.6 secs

     total energy              =   -1045.27558250 Ry
     Harris-Foulkes estimate   =   -1045.27558247 Ry
     estimated scf accuracy    <       0.00000002 Ry

     iteration #  6     ecut=   100.00 Ry     beta= 0.70
     Davidson diagonalization with overlap
     ethr =  1.16E-10,  avg # of iterations =  2.0

     total cpu time spent up to now is        5.1 secs

     End of self-consistent calculation

          k = 0.0000 0.0000 0.0000 (  1363 PWs)   bands (ev):

    -9.4800  -9.4800  -9.4800  -9.1315  -9.1315   9.0890  46.8591  46.8591
    46.8591  48.0946  53.6793  53.6793  53.6793  57.5254

          k =-0.1429 0.1429-0.1429 (  1354 PWs)   bands (ev):

    -9.4731  -9.4235  -9.4235  -9.1248  -9.1248   9.9063  40.0719  45.7712
    45.7712  47.9706  55.2401  55.5467  55.5467  56.1275

          k =-0.2857 0.2857-0.2857 (  1356 PWs)   bands (ev):

    -9.4652  -9.3882  -9.3882  -9.0147  -9.0147  12.3489  31.4449  43.9836
    43.9836  47.9906  52.5525  53.2215  53.2215  59.6230

          k =-0.4286 0.4286-0.4286 (  1344 PWs)   bands (ev):

    -9.4659  -9.4182  -9.4182  -8.8643  -8.8643  16.0211  24.5043  42.7925
    42.7925  47.8757  51.1203  51.7664  51.7664  64.1112

          k = 0.0000 0.2857 0.0000 (  1343 PWs)   bands (ev):

    -9.5425  -9.3536  -9.3536  -9.1969  -9.0782  10.1783  42.8252  42.8252
    43.2169  46.1655  50.5811  57.3800  58.1733  58.1733

          k =-0.1429 0.4286-0.1429 (  1348 PWs)   bands (ev):

    -9.5519  -9.3143  -9.2727  -9.1627  -8.9800  12.0824  34.6394  40.7596
    41.8852  46.4916  49.9646  57.0418  57.9508  58.3865

          k =-0.2857 0.5714-0.2857 (  1353 PWs)   bands (ev):

    -9.5091  -9.3536  -9.2958  -9.0188  -8.8483  15.4415  27.1373  39.1573
    40.1269  45.5717  54.9333  55.4045  56.1107  57.4942

          k = 0.5714-0.2857 0.5714 (  1346 PWs)   bands (ev):

    -9.4658  -9.3708  -9.3206  -8.9198  -8.8715  17.5647  23.9784  37.2640
    41.1877  46.0405  53.6333  53.8250  57.9919  62.6695

          k = 0.4286-0.1429 0.4286 (  1350 PWs)   bands (ev):

    -9.4202  -9.3999  -9.3033  -9.0571  -8.9261  14.1908  29.4842  36.8720
    43.8606  47.8487  52.3110  53.2837  58.1794  59.4645

          k = 0.2857-0.0000 0.2857 (  1353 PWs)   bands (ev):

    -9.4692  -9.3680  -9.3413  -9.1767  -9.0270  11.2679  36.9148  38.5982
    46.9184  50.2334  51.1094  53.5120  54.4393  56.7086

          k = 0.0000 0.5714 0.0000 (  1343 PWs)   bands (ev):

    -9.6821  -9.3604  -9.0610  -9.0610  -8.9576  13.4408  35.5062  38.1652
    38.1652  44.0865  44.6503  63.0711  63.0711  64.4841

          k =-0.1429 0.7143-0.1429 (  1331 PWs)   bands (ev):

    -9.6719  -9.4030  -9.0387  -8.9692  -8.8367  16.3106  30.0075  34.4036
    37.1381  43.6802  47.9010  60.7798  61.9031  65.5685

          k = 0.7143-0.1429 0.7143 (  1341 PWs)   bands (ev):

    -9.5769  -9.2792  -9.0769  -9.0392  -8.8594  19.3154  25.9596  30.9958
    37.9596  44.0325  54.7650  58.6640  59.5407  65.0365

          k = 0.5714 0.0000 0.5714 (  1338 PWs)   bands (ev):

    -9.4816  -9.2489  -9.1130  -9.0411  -9.0307  17.3047  28.7311  30.1317
    40.5065  45.4483  56.8630  57.2397  59.2490  60.0161

          k = 0.0000 0.8571 0.0000 (  1339 PWs)   bands (ev):

    -9.7930  -9.5058  -8.8601  -8.8168  -8.8168  18.6147  27.0741  35.5605
    35.5605  42.6799  43.0574  64.1290  68.8807  68.8807

          k = 0.8571-0.0000 0.8571 (  1338 PWs)   bands (ev):

    -9.7258  -9.4700  -8.8915  -8.8560  -8.8128  20.6745  25.2852  31.7772
    35.8540  42.9781  47.1927  62.4155  66.2792  67.9484

          k =-0.2857 0.5714 0.0000 (  1337 PWs)   bands (ev):

    -9.5357  -9.3533  -9.1894  -9.0719  -8.9104  14.4754  32.0687  34.3857
    39.6573  48.7873  49.0423  54.8703  60.2738  63.2731

          k = 0.5714-0.2857 0.8571 (  1341 PWs)   bands (ev):

    -9.4459  -9.3800  -9.1566  -9.0300  -8.8757  17.9153  26.5756  33.1171
    37.0084  48.3416  52.2104  56.1540  61.4679  62.2706

          k = 0.7143-0.1429 1.0000 (  1344 PWs)   bands (ev):

    -9.6155  -9.4219  -9.0446  -8.8996  -8.8185  19.2633  27.4752  32.0449
    33.5896  47.6884  47.6933  58.1734  64.0072  68.3932

          k = 0.5714 0.0000 0.8571 (  1356 PWs)   bands (ev):

    -9.4790  -9.2829  -9.1988  -9.0079  -8.8220  20.3912  27.7468  28.4629
    34.0679  48.5010  54.9074  55.4924  57.8865  65.9216

     the Fermi energy is    46.9962 ev

!    total energy              =   -1045.27558250 Ry
     Harris-Foulkes estimate   =   -1045.27558250 Ry
     estimated scf accuracy    <          2.3E-10 Ry

     total all-electron energy =    -48490.728555 Ry

     The total energy is the sum of the following terms:

     one-electron contribution =       1.45352611 Ry
     hartree contribution      =      28.21476242 Ry
     xc contribution           =     -63.89775783 Ry
     ewald contribution        =    -242.33311988 Ry
     one-center paw contrib.   =    -768.71280849 Ry
     smearing contrib. (-TS)   =      -0.00018484 Ry

     convergence has been achieved in   6 iterations

     Forces acting on atoms (cartesian axes, Ry/au):

     atom    1 type  1   force =     0.00000000    0.00000000    0.00000000

     Total force =     0.000000     Total SCF correction =     0.000000


     Computing stress (Cartesian axis) and pressure

          total   stress  (Ry/bohr**3)                   (kbar)     P= 6981.84
   0.04746157  -0.00000000   0.00000000       6981.84     -0.00      0.00
  -0.00000000   0.04746157  -0.00000000         -0.00   6981.84     -0.00
   0.00000000  -0.00000000   0.04746157          0.00     -0.00   6981.84


     Writing output data file Fr.save/

     init_run     :      0.39s CPU      0.41s WALL (       1 calls)
     electrons    :      3.54s CPU      3.75s WALL (       1 calls)
     forces       :      0.07s CPU      0.07s WALL (       1 calls)
     stress       :      0.16s CPU      0.16s WALL (       1 calls)

     Called by init_run:
     wfcinit      :      0.11s CPU      0.12s WALL (       1 calls)
     potinit      :      0.06s CPU      0.06s WALL (       1 calls)
     hinit0       :      0.21s CPU      0.21s WALL (       1 calls)

     Called by electrons:
     c_bands      :      2.66s CPU      2.83s WALL (       7 calls)
     sum_band     :      0.51s CPU      0.55s WALL (       7 calls)
     v_of_rho     :      0.01s CPU      0.01s WALL (       7 calls)
     newd         :      0.08s CPU      0.08s WALL (       7 calls)
     PAW_pot      :      0.33s CPU      0.33s WALL (       7 calls)
     mix_rho      :      0.00s CPU      0.00s WALL (       7 calls)

     Called by c_bands:
     init_us_2    :      0.06s CPU      0.06s WALL (     340 calls)
     cegterg      :      2.56s CPU      2.72s WALL (     140 calls)

     Called by sum_band:
     sum_band:bec :      0.00s CPU      0.00s WALL (     140 calls)
     addusdens    :      0.08s CPU      0.08s WALL (       7 calls)

     Called by *egterg:
     h_psi        :      1.87s CPU      2.03s WALL (     522 calls)
     s_psi        :      0.06s CPU      0.06s WALL (     522 calls)
     g_psi        :      0.01s CPU      0.01s WALL (     362 calls)
     cdiaghg      :      0.25s CPU      0.26s WALL (     482 calls)

     Called by h_psi:
     h_psi:pot    :      1.86s CPU      2.02s WALL (     522 calls)
     h_psi:calbec :      0.12s CPU      0.12s WALL (     522 calls)
     vloc_psi     :      1.68s CPU      1.82s WALL (     522 calls)
     add_vuspsi   :      0.06s CPU      0.06s WALL (     522 calls)

     General routines
     calbec       :      0.18s CPU      0.19s WALL (     762 calls)
     fft          :      0.01s CPU      0.01s WALL (      38 calls)
     ffts         :      0.00s CPU      0.00s WALL (       7 calls)
     fftw         :      1.88s CPU      2.04s WALL (   12332 calls)

     Parallel routines
     fft_scatt_xy :      0.15s CPU      0.17s WALL (   12377 calls)
     fft_scatt_yz :      0.81s CPU      0.87s WALL (   12377 calls)

     PWSCF        :     5.13s CPU         5.42s WALL


   This run was terminated on:  22:17:32   7Apr2024            

=------------------------------------------------------------------------------=
   JOB DONE.
=------------------------------------------------------------------------------=
