
     Program PWSCF v.6.3MaX starts on  7Apr2024 at 23: 4:58 

     This program is part of the open-source Quantum ESPRESSO suite
     for quantum simulation of materials; please cite
         "P. Giannozzi et al., J. Phys.:Condens. Matter 21 395502 (2009);
         "P. Giannozzi et al., J. Phys.:Condens. Matter 29 465901 (2017);
          URL http://www.quantum-espresso.org", 
     in publications or presentations arising from this work. More details at
     http://www.quantum-espresso.org/quote

     Parallel version (MPI), running on     5 processors

     MPI processes distributed on     1 nodes
     R & G space division:  proc/nbgrp/npool/nimage =       5
     Waiting for input...
     Reading input from standard input

     Current dimensions of program PWSCF are:
     Max number of different atomic species (ntypx) = 10
     Max number of k-points (npk) =  40000
     Max angular momentum in pseudopotentials (lmaxx) =  3

     Subspace diagonalization in iterative solution of the eigenvalue problem:
     a serial algorithm will be used


     Parallelization info
     --------------------
     sticks:   dense  smooth     PW     G-vecs:    dense   smooth      PW
     Min         119     119     39                 1967     1967     361
     Max         119     119     40                 1969     1969     363
     Sum         595     595    199                 9841     9841    1807



     bravais-lattice index     =            2
     lattice parameter (alat)  =       6.8300  a.u.
     unit-cell volume          =      79.6530 (a.u.)^3
     number of atoms/cell      =            1
     number of atomic types    =            1
     number of electrons       =        19.00
     number of Kohn-Sham states=           14
     kinetic-energy cutoff     =      95.0000  Ry
     charge density cutoff     =     380.0000  Ry
     convergence threshold     =      1.0E-08
     mixing beta               =       0.7000
     number of iterations used =            8  plain     mixing
     Exchange-correlation      = PBE ( 1  4  3  4 0 0)

     celldm(1)=   6.830000  celldm(2)=   0.000000  celldm(3)=   0.000000
     celldm(4)=   0.000000  celldm(5)=   0.000000  celldm(6)=   0.000000

     crystal axes: (cart. coord. in units of alat)
               a(1) = (  -0.500000   0.000000   0.500000 )  
               a(2) = (   0.000000   0.500000   0.500000 )  
               a(3) = (  -0.500000   0.500000   0.000000 )  

     reciprocal axes: (cart. coord. in units 2 pi/alat)
               b(1) = ( -1.000000 -1.000000  1.000000 )  
               b(2) = (  1.000000  1.000000  1.000000 )  
               b(3) = ( -1.000000  1.000000 -1.000000 )  


     PseudoPot. # 1 for Fr read from file:
     /home/lorenzo/pseudos/Fr/Fr.pbe-spdn-rrkjus_psl.1.0.0.UPF
     MD5 check sum: 07cabfa18982bd6b5b9d8ae5689d9732
     Pseudo is Ultrasoft + core correction, Zval = 19.0
     Generated using "atomic" code by A. Dal Corso v.6.2.2
     Using radial grid of 1287 points,  6 beta functions with: 
                l(1) =   0
                l(2) =   0
                l(3) =   1
                l(4) =   1
                l(5) =   2
                l(6) =   2
     Q(r) pseudized with 0 coefficients 


     atomic species   valence    mass     pseudopotential
        Fr            19.00   223.00000     Fr( 1.00)

     48 Sym. Ops., with inversion, found



   Cartesian axes

     site n.     atom                  positions (alat units)
         1           Fr  tau(   1) = (   0.0000000   0.0000000   0.0000000  )

     number of k points=    16  gaussian smearing, width (Ry)=  0.0100
                       cart. coord. in units 2pi/alat
        k(    1) = (   0.0000000   0.0000000   0.0000000), wk =   0.0092593
        k(    2) = (  -0.1666667   0.1666667  -0.1666667), wk =   0.0740741
        k(    3) = (  -0.3333333   0.3333333  -0.3333333), wk =   0.0740741
        k(    4) = (   0.5000000  -0.5000000   0.5000000), wk =   0.0370370
        k(    5) = (   0.0000000   0.3333333   0.0000000), wk =   0.0555556
        k(    6) = (  -0.1666667   0.5000000  -0.1666667), wk =   0.2222222
        k(    7) = (   0.6666667  -0.3333333   0.6666667), wk =   0.2222222
        k(    8) = (   0.5000000  -0.1666667   0.5000000), wk =   0.2222222
        k(    9) = (   0.3333333   0.0000000   0.3333333), wk =   0.1111111
        k(   10) = (   0.0000000   0.6666667   0.0000000), wk =   0.0555556
        k(   11) = (   0.8333333  -0.1666667   0.8333333), wk =   0.2222222
        k(   12) = (   0.6666667  -0.0000000   0.6666667), wk =   0.1111111
        k(   13) = (   0.0000000  -1.0000000   0.0000000), wk =   0.0277778
        k(   14) = (   0.6666667  -0.3333333   1.0000000), wk =   0.2222222
        k(   15) = (   0.5000000  -0.1666667   0.8333333), wk =   0.2222222
        k(   16) = (  -0.3333333  -1.0000000   0.0000000), wk =   0.1111111

     Dense  grid:     9841 G-vectors     FFT dimensions: (  30,  30,  30)

     Estimated max dynamical RAM per process >       9.90 MB

     Estimated total dynamical RAM >      49.51 MB

     Initial potential from superposition of free atoms

     starting charge   18.97009, renormalised to   19.00000
     Starting wfcs are   10 randomized atomic wfcs +    4 random wfcs

     total cpu time spent up to now is        1.2 secs

     Self-consistent Calculation

     iteration #  1     ecut=    95.00 Ry     beta= 0.70
     Davidson diagonalization with overlap
     ethr =  1.00E-02,  avg # of iterations =  4.8

     Threshold (ethr) on eigenvalues was too large:
     Diagonalizing with lowered threshold

     Davidson diagonalization with overlap
     ethr =  1.13E-04,  avg # of iterations =  1.9

     total cpu time spent up to now is        1.9 secs

     total energy              =    -282.86811384 Ry
     Harris-Foulkes estimate   =    -282.88143588 Ry
     estimated scf accuracy    <       0.02121831 Ry

     iteration #  2     ecut=    95.00 Ry     beta= 0.70
     Davidson diagonalization with overlap
     ethr =  1.12E-04,  avg # of iterations =  2.0

     total cpu time spent up to now is        2.1 secs

     total energy              =    -282.87229216 Ry
     Harris-Foulkes estimate   =    -282.87309100 Ry
     estimated scf accuracy    <       0.00109087 Ry

     iteration #  3     ecut=    95.00 Ry     beta= 0.70
     Davidson diagonalization with overlap
     ethr =  5.74E-06,  avg # of iterations =  2.4

     total cpu time spent up to now is        2.4 secs

     total energy              =    -282.87251332 Ry
     Harris-Foulkes estimate   =    -282.87252553 Ry
     estimated scf accuracy    <       0.00002973 Ry

     iteration #  4     ecut=    95.00 Ry     beta= 0.70
     Davidson diagonalization with overlap
     ethr =  1.56E-07,  avg # of iterations =  2.0

     total cpu time spent up to now is        2.7 secs

     total energy              =    -282.87251589 Ry
     Harris-Foulkes estimate   =    -282.87251612 Ry
     estimated scf accuracy    <       0.00000049 Ry

     iteration #  5     ecut=    95.00 Ry     beta= 0.70
     Davidson diagonalization with overlap
     ethr =  2.56E-09,  avg # of iterations =  2.2

     total cpu time spent up to now is        3.0 secs

     total energy              =    -282.87251603 Ry
     Harris-Foulkes estimate   =    -282.87251604 Ry
     estimated scf accuracy    <       0.00000002 Ry

     iteration #  6     ecut=    95.00 Ry     beta= 0.70
     Davidson diagonalization with overlap
     ethr =  1.06E-10,  avg # of iterations =  2.0

     total cpu time spent up to now is        3.3 secs

     End of self-consistent calculation

          k = 0.0000 0.0000 0.0000 (  1243 PWs)   bands (ev):

    -9.2742  -9.2742  -9.2742  -8.9325  -8.9325   9.4743  47.2867  47.2867
    47.2867  48.3171  53.8702  53.8702  53.8702  57.8067

          k =-0.1667 0.1667-0.1667 (  1260 PWs)   bands (ev):

    -9.2656  -9.2053  -9.2053  -8.9181  -8.9181  10.5895  38.9312  45.8746
    45.8746  48.2194  55.0611  55.8183  55.8183  56.3638

          k =-0.3333 0.3333-0.3333 (  1236 PWs)   bands (ev):

    -9.2590  -9.1939  -9.1939  -8.7576  -8.7576  13.8941  29.1908  43.8830
    43.8830  48.1855  52.1795  52.7709  52.7709  61.4801

          k = 0.5000-0.5000 0.5000 (  1224 PWs)   bands (ev):

    -9.2605  -9.2210  -9.2210  -8.6418  -8.6418  17.5628  23.2794  43.0342
    43.0342  48.0553  51.2433  51.7748  51.7748  65.4836

          k = 0.0000 0.3333 0.0000 (  1267 PWs)   bands (ev):

    -9.3567  -9.1074  -9.1074  -9.0197  -8.8623  10.9606  42.3142  42.3142
    42.6116  45.9508  49.4127  58.6464  59.3009  59.3009

          k =-0.1667 0.5000-0.1667 (  1248 PWs)   bands (ev):

    -9.3594  -9.1213  -9.0348  -8.9197  -8.7272  13.5470  32.8827  40.1942
    40.5028  45.7719  50.6982  58.1211  58.1856  59.0461

          k = 0.6667-0.3333 0.6667 (  1235 PWs)   bands (ev):

    -9.3011  -9.1347  -9.0738  -8.7900  -8.6345  17.7024  25.2408  37.3322
    40.2485  45.4548  55.5200  55.5395  58.4605  58.9954

          k = 0.5000-0.1667 0.5000 (  1246 PWs)   bands (ev):

    -9.2332  -9.1663  -9.0793  -8.7879  -8.7270  16.2898  27.4179  35.9043
    42.6773  46.8958  53.7814  54.2613  60.2540  60.6120

          k = 0.3333 0.0000 0.3333 (  1255 PWs)   bands (ev):

    -9.2489  -9.1671  -9.0922  -8.9823  -8.7902  12.4426  35.5139  37.3019
    46.5919  50.1602  51.3639  53.9562  54.9469  57.3659

          k = 0.0000 0.6667 0.0000 (  1258 PWs)   bands (ev):

    -9.5200  -9.2171  -8.7608  -8.7608  -8.7207  15.3936  32.9762  37.3765
    37.3765  43.8016  43.9144  64.6203  65.1615  65.1615

          k = 0.8333-0.1667 0.8333 (  1242 PWs)   bands (ev):

    -9.4761  -9.2233  -8.7759  -8.7180  -8.6159  19.0575  27.9153  32.3513
    36.8621  43.5132  48.8368  61.4852  63.3285  68.7567

          k = 0.6667-0.0000 0.6667 (  1234 PWs)   bands (ev):

    -9.3445  -8.9804  -8.9106  -8.8431  -8.7451  19.8249  28.3201  28.3394
    38.8801  44.5198  57.4410  59.0056  60.0213  62.6445

          k = 0.0000-1.0000 0.0000 (  1234 PWs)   bands (ev):

    -9.6009  -9.3257  -8.6493  -8.5805  -8.5805  21.1038  24.9359  35.5685
    35.5685  42.6930  43.1014  64.3799  70.3546  71.3269

          k = 0.6667-0.3333 1.0000 (  1248 PWs)   bands (ev):

    -9.3092  -9.1720  -8.9736  -8.7706  -8.7086  16.7148  30.4904  32.8717
    37.5597  49.5638  49.9008  54.8400  62.6424  65.1295

          k = 0.5000-0.1667 0.8333 (  1236 PWs)   bands (ev):

    -9.2255  -9.1515  -8.9410  -8.8554  -8.6502  19.9084  26.3390  31.8343
    35.4752  49.4097  52.6701  58.4318  58.4713  64.2250

          k =-0.3333-1.0000 0.0000 (  1246 PWs)   bands (ev):

    -9.3603  -9.2097  -8.8510  -8.7570  -8.5804  21.3406  26.6603  31.2519
    32.7648  48.9350  49.1998  58.3136  61.2569  68.7436

     the Fermi energy is    46.7896 ev

!    total energy              =    -282.87251604 Ry
     Harris-Foulkes estimate   =    -282.87251604 Ry
     estimated scf accuracy    <          1.2E-09 Ry

     The total energy is the sum of the following terms:

     one-electron contribution =      -4.12967165 Ry
     hartree contribution      =      28.18271570 Ry
     xc contribution           =     -64.59206122 Ry
     ewald contribution        =    -242.33311988 Ry
     smearing contrib. (-TS)   =      -0.00037898 Ry

     convergence has been achieved in   6 iterations

     Forces acting on atoms (cartesian axes, Ry/au):

     atom    1 type  1   force =     0.00000000    0.00000000    0.00000000

     Total force =     0.000000     Total SCF correction =     0.000000


     Computing stress (Cartesian axis) and pressure

          total   stress  (Ry/bohr**3)                   (kbar)     P= 7222.89
   0.04910019   0.00000000   0.00000000       7222.89      0.00      0.00
   0.00000000   0.04910019   0.00000000          0.00   7222.89      0.00
   0.00000000   0.00000000   0.04910019          0.00      0.00   7222.89


     Writing output data file Fr.save/

     init_run     :      0.29s CPU      0.30s WALL (       1 calls)
     electrons    :      2.04s CPU      2.11s WALL (       1 calls)
     forces       :      0.04s CPU      0.04s WALL (       1 calls)
     stress       :      0.14s CPU      0.14s WALL (       1 calls)

     Called by init_run:
     wfcinit      :      0.07s CPU      0.08s WALL (       1 calls)
     potinit      :      0.01s CPU      0.01s WALL (       1 calls)
     hinit0       :      0.19s CPU      0.19s WALL (       1 calls)

     Called by electrons:
     c_bands      :      1.61s CPU      1.66s WALL (       7 calls)
     sum_band     :      0.33s CPU      0.34s WALL (       7 calls)
     v_of_rho     :      0.04s CPU      0.04s WALL (       7 calls)
     newd         :      0.07s CPU      0.08s WALL (       7 calls)
     mix_rho      :      0.00s CPU      0.00s WALL (       7 calls)

     Called by c_bands:
     init_us_2    :      0.04s CPU      0.04s WALL (     272 calls)
     cegterg      :      1.55s CPU      1.60s WALL (     112 calls)

     Called by sum_band:
     sum_band:bec :      0.00s CPU      0.00s WALL (     112 calls)
     addusdens    :      0.06s CPU      0.07s WALL (       7 calls)

     Called by *egterg:
     h_psi        :      1.15s CPU      1.19s WALL (     404 calls)
     s_psi        :      0.04s CPU      0.04s WALL (     404 calls)
     g_psi        :      0.00s CPU      0.00s WALL (     276 calls)
     cdiaghg      :      0.18s CPU      0.18s WALL (     372 calls)

     Called by h_psi:
     h_psi:pot    :      1.14s CPU      1.18s WALL (     404 calls)
     h_psi:calbec :      0.05s CPU      0.06s WALL (     404 calls)
     vloc_psi     :      1.04s CPU      1.08s WALL (     404 calls)
     add_vuspsi   :      0.04s CPU      0.04s WALL (     404 calls)

     General routines
     calbec       :      0.09s CPU      0.09s WALL (     596 calls)
     fft          :      0.04s CPU      0.04s WALL (     104 calls)
     ffts         :      0.00s CPU      0.00s WALL (       7 calls)
     fftw         :      1.16s CPU      1.20s WALL (    9930 calls)

     Parallel routines
     fft_scatt_xy :      0.10s CPU      0.11s WALL (   10041 calls)
     fft_scatt_yz :      0.28s CPU      0.29s WALL (   10041 calls)

     PWSCF        :     3.42s CPU         3.54s WALL


   This run was terminated on:  23: 5: 2   7Apr2024            

=------------------------------------------------------------------------------=
   JOB DONE.
=------------------------------------------------------------------------------=
