
     Program PWSCF v.6.3MaX starts on  7Apr2024 at 22:27:25 

     This program is part of the open-source Quantum ESPRESSO suite
     for quantum simulation of materials; please cite
         "P. Giannozzi et al., J. Phys.:Condens. Matter 21 395502 (2009);
         "P. Giannozzi et al., J. Phys.:Condens. Matter 29 465901 (2017);
          URL http://www.quantum-espresso.org", 
     in publications or presentations arising from this work. More details at
     http://www.quantum-espresso.org/quote

     Parallel version (MPI), running on     5 processors

     MPI processes distributed on     1 nodes
     R & G space division:  proc/nbgrp/npool/nimage =       5
     Waiting for input...
     Reading input from standard input

     Current dimensions of program PWSCF are:
     Max number of different atomic species (ntypx) = 10
     Max number of k-points (npk) =  40000
     Max angular momentum in pseudopotentials (lmaxx) =  3
               file Fr.pbe-spdn-kjpaw_psl.1.0.0.UPF: wavefunction(s)  6P renormalized

     Subspace diagonalization in iterative solution of the eigenvalue problem:
     a serial algorithm will be used


     Parallelization info
     --------------------
     sticks:   dense  smooth     PW     G-vecs:    dense   smooth      PW
     Min          39      39     12                  361      361      67
     Max          40      40     13                  363      363      70
     Sum         199     199     61                 1807     1807     339



     bravais-lattice index     =            2
     lattice parameter (alat)  =       6.8300  a.u.
     unit-cell volume          =      79.6530 (a.u.)^3
     number of atoms/cell      =            1
     number of atomic types    =            1
     number of electrons       =        19.00
     number of Kohn-Sham states=           14
     kinetic-energy cutoff     =      30.0000  Ry
     charge density cutoff     =     120.0000  Ry
     convergence threshold     =      1.0E-08
     mixing beta               =       0.7000
     number of iterations used =            8  plain     mixing
     Exchange-correlation      = SLA PW PBX PBC ( 1  4  3  4 0 0)

     celldm(1)=   6.830000  celldm(2)=   0.000000  celldm(3)=   0.000000
     celldm(4)=   0.000000  celldm(5)=   0.000000  celldm(6)=   0.000000

     crystal axes: (cart. coord. in units of alat)
               a(1) = (  -0.500000   0.000000   0.500000 )  
               a(2) = (   0.000000   0.500000   0.500000 )  
               a(3) = (  -0.500000   0.500000   0.000000 )  

     reciprocal axes: (cart. coord. in units 2 pi/alat)
               b(1) = ( -1.000000 -1.000000  1.000000 )  
               b(2) = (  1.000000  1.000000  1.000000 )  
               b(3) = ( -1.000000  1.000000 -1.000000 )  


     PseudoPot. # 1 for Fr read from file:
     /home/lorenzo/pseudos/Fr/Fr.pbe-spdn-kjpaw_psl.1.0.0.UPF
     MD5 check sum: 362a188b966a64328b94f1ef5f32e8c4
     Pseudo is Projector augmented-wave + core cor, Zval = 19.0
     Generated using "atomic" code by A. Dal Corso v.6.2.2
     Shape of augmentation charge: PSQ
     Using radial grid of 1287 points,  6 beta functions with: 
                l(1) =   0
                l(2) =   0
                l(3) =   1
                l(4) =   1
                l(5) =   2
                l(6) =   2
     Q(r) pseudized with 0 coefficients 


     atomic species   valence    mass     pseudopotential
        Fr            19.00   223.00000     Fr( 1.00)

     48 Sym. Ops., with inversion, found



   Cartesian axes

     site n.     atom                  positions (alat units)
         1           Fr  tau(   1) = (   0.0000000   0.0000000   0.0000000  )

     number of k points=     3  gaussian smearing, width (Ry)=  0.0100
                       cart. coord. in units 2pi/alat
        k(    1) = (   0.0000000   0.0000000   0.0000000), wk =   0.2500000
        k(    2) = (   0.5000000  -0.5000000   0.5000000), wk =   1.0000000
        k(    3) = (   0.0000000  -1.0000000   0.0000000), wk =   0.7500000

     Dense  grid:     1807 G-vectors     FFT dimensions: (  18,  18,  18)

     Estimated max dynamical RAM per process >       2.36 MB

     Estimated total dynamical RAM >      11.80 MB

     Check: negative/imaginary core charge=   -0.000066    0.000000

     Initial potential from superposition of free atoms

     starting charge   18.97009, renormalised to   19.00000
     Starting wfcs are   10 randomized atomic wfcs +    4 random wfcs
     Checking if some PAW data can be deallocated... 

     total cpu time spent up to now is        1.2 secs

     Self-consistent Calculation

     iteration #  1     ecut=    30.00 Ry     beta= 0.70
     Davidson diagonalization with overlap
     ethr =  1.00E-02,  avg # of iterations =  4.7

     Threshold (ethr) on eigenvalues was too large:
     Diagonalizing with lowered threshold

     Davidson diagonalization with overlap
     ethr =  9.82E-04,  avg # of iterations =  1.0

     total cpu time spent up to now is        1.4 secs

     total energy              =   -1067.91700355 Ry
     Harris-Foulkes estimate   =   -1068.06736103 Ry
     estimated scf accuracy    <       0.18647345 Ry

     iteration #  2     ecut=    30.00 Ry     beta= 0.70
     Davidson diagonalization with overlap
     ethr =  9.81E-04,  avg # of iterations =  2.3

     total cpu time spent up to now is        1.5 secs

     total energy              =   -1067.96405680 Ry
     Harris-Foulkes estimate   =   -1067.96663435 Ry
     estimated scf accuracy    <       0.00878538 Ry

     iteration #  3     ecut=    30.00 Ry     beta= 0.70
     Davidson diagonalization with overlap
     ethr =  4.62E-05,  avg # of iterations =  2.3

     total cpu time spent up to now is        1.6 secs

     total energy              =   -1067.96494844 Ry
     Harris-Foulkes estimate   =   -1067.96489801 Ry
     estimated scf accuracy    <       0.00041202 Ry

     iteration #  4     ecut=    30.00 Ry     beta= 0.70
     Davidson diagonalization with overlap
     ethr =  2.17E-06,  avg # of iterations =  3.3

     total cpu time spent up to now is        1.8 secs

     total energy              =   -1067.96497590 Ry
     Harris-Foulkes estimate   =   -1067.96497462 Ry
     estimated scf accuracy    <       0.00000186 Ry

     iteration #  5     ecut=    30.00 Ry     beta= 0.70
     Davidson diagonalization with overlap
     ethr =  9.77E-09,  avg # of iterations =  2.3

     total cpu time spent up to now is        1.9 secs

     total energy              =   -1067.96497640 Ry
     Harris-Foulkes estimate   =   -1067.96497643 Ry
     estimated scf accuracy    <       0.00000008 Ry

     iteration #  6     ecut=    30.00 Ry     beta= 0.70
     Davidson diagonalization with overlap
     ethr =  4.17E-10,  avg # of iterations =  2.0

     total cpu time spent up to now is        2.1 secs

     End of self-consistent calculation

          k = 0.0000 0.0000 0.0000 (   229 PWs)   bands (ev):

    -9.0522  -9.0522  -9.0522  -8.8027  -8.8027   9.3460  47.0119  47.0119
    47.0119  48.5579  55.5906  55.5906  55.5906  57.5257

          k = 0.5000-0.5000 0.5000 (   228 PWs)   bands (ev):

    -9.4860  -9.2144  -9.2144  -8.9257  -8.9257  17.3364  23.2922  42.8169
    42.8169  48.2713  51.8696  53.1864  53.1864  65.5228

          k = 0.0000-1.0000 0.0000 (   222 PWs)   bands (ev):

    -9.7450  -9.1561  -8.8939  -8.8939  -8.2625  20.7809  24.9311  35.4774
    35.4774  43.4255  44.2962  64.6162  70.4620  71.2958

     the Fermi energy is    46.9705 ev

!    total energy              =   -1067.96497641 Ry
     Harris-Foulkes estimate   =   -1067.96497641 Ry
     estimated scf accuracy    <          1.9E-09 Ry

     total all-electron energy =    -48513.575288 Ry

     The total energy is the sum of the following terms:

     one-electron contribution =       3.91976553 Ry
     hartree contribution      =      26.83415530 Ry
     xc contribution           =     -64.03767776 Ry
     ewald contribution        =    -242.33311990 Ry
     one-center paw contrib.   =    -792.34617130 Ry
     smearing contrib. (-TS)   =      -0.00192828 Ry

     convergence has been achieved in   6 iterations

     Forces acting on atoms (cartesian axes, Ry/au):

     atom    1 type  1   force =     0.00000000    0.00000000    0.00000000

     Total force =     0.000000     Total SCF correction =     0.000000


     Computing stress (Cartesian axis) and pressure

          total   stress  (Ry/bohr**3)                   (kbar)     P=-4078.95
  -0.02772817   0.00000000  -0.00000000      -4078.95      0.00     -0.00
   0.00000000  -0.02772817  -0.00000000          0.00  -4078.95     -0.00
  -0.00000000   0.00000000  -0.02772817         -0.00      0.00  -4078.95


     Writing output data file Fr.save/

     init_run     :      0.24s CPU      0.27s WALL (       1 calls)
     electrons    :      0.75s CPU      0.87s WALL (       1 calls)
     forces       :      0.01s CPU      0.01s WALL (       1 calls)
     stress       :      0.02s CPU      0.02s WALL (       1 calls)

     Called by init_run:
     wfcinit      :      0.00s CPU      0.01s WALL (       1 calls)
     potinit      :      0.12s CPU      0.13s WALL (       1 calls)
     hinit0       :      0.11s CPU      0.11s WALL (       1 calls)

     Called by electrons:
     c_bands      :      0.11s CPU      0.12s WALL (       7 calls)
     sum_band     :      0.03s CPU      0.03s WALL (       7 calls)
     v_of_rho     :      0.01s CPU      0.01s WALL (       7 calls)
     newd         :      0.01s CPU      0.01s WALL (       7 calls)
     PAW_pot      :      0.70s CPU      0.80s WALL (       7 calls)
     mix_rho      :      0.00s CPU      0.00s WALL (       7 calls)

     Called by c_bands:
     init_us_2    :      0.00s CPU      0.00s WALL (      51 calls)
     cegterg      :      0.11s CPU      0.12s WALL (      21 calls)

     Called by sum_band:
     sum_band:bec :      0.00s CPU      0.00s WALL (      21 calls)
     addusdens    :      0.01s CPU      0.01s WALL (       7 calls)

     Called by *egterg:
     h_psi        :      0.06s CPU      0.07s WALL (      78 calls)
     s_psi        :      0.00s CPU      0.00s WALL (      78 calls)
     g_psi        :      0.00s CPU      0.00s WALL (      54 calls)
     cdiaghg      :      0.03s CPU      0.03s WALL (      72 calls)

     Called by h_psi:
     h_psi:pot    :      0.06s CPU      0.07s WALL (      78 calls)
     h_psi:calbec :      0.00s CPU      0.00s WALL (      78 calls)
     vloc_psi     :      0.06s CPU      0.07s WALL (      78 calls)
     add_vuspsi   :      0.00s CPU      0.00s WALL (      78 calls)

     General routines
     calbec       :      0.00s CPU      0.00s WALL (     114 calls)
     fft          :      0.01s CPU      0.01s WALL (     104 calls)
     ffts         :      0.00s CPU      0.00s WALL (       7 calls)
     fftw         :      0.06s CPU      0.07s WALL (    1860 calls)

     Parallel routines
     fft_scatt_xy :      0.01s CPU      0.01s WALL (    1971 calls)
     fft_scatt_yz :      0.02s CPU      0.02s WALL (    1971 calls)

     PWSCF        :     1.97s CPU         2.16s WALL


   This run was terminated on:  22:27:28   7Apr2024            

=------------------------------------------------------------------------------=
   JOB DONE.
=------------------------------------------------------------------------------=
