
     Program PWSCF v.6.3MaX starts on  7Apr2024 at 22:59: 3 

     This program is part of the open-source Quantum ESPRESSO suite
     for quantum simulation of materials; please cite
         "P. Giannozzi et al., J. Phys.:Condens. Matter 21 395502 (2009);
         "P. Giannozzi et al., J. Phys.:Condens. Matter 29 465901 (2017);
          URL http://www.quantum-espresso.org", 
     in publications or presentations arising from this work. More details at
     http://www.quantum-espresso.org/quote

     Parallel version (MPI), running on     5 processors

     MPI processes distributed on     1 nodes
     R & G space division:  proc/nbgrp/npool/nimage =       5
     Waiting for input...
     Reading input from standard input

     Current dimensions of program PWSCF are:
     Max number of different atomic species (ntypx) = 10
     Max number of k-points (npk) =  40000
     Max angular momentum in pseudopotentials (lmaxx) =  3

     Subspace diagonalization in iterative solution of the eigenvalue problem:
     a serial algorithm will be used


     Parallelization info
     --------------------
     sticks:   dense  smooth     PW     G-vecs:    dense   smooth      PW
     Min         109     109     32                 1678     1678     290
     Max         110     110     33                 1680     1680     293
     Sum         547     547    163                 8393     8393    1459



     bravais-lattice index     =            2
     lattice parameter (alat)  =       6.8300  a.u.
     unit-cell volume          =      79.6530 (a.u.)^3
     number of atoms/cell      =            1
     number of atomic types    =            1
     number of electrons       =        19.00
     number of Kohn-Sham states=           14
     kinetic-energy cutoff     =      85.0000  Ry
     charge density cutoff     =     340.0000  Ry
     convergence threshold     =      1.0E-08
     mixing beta               =       0.7000
     number of iterations used =            8  plain     mixing
     Exchange-correlation      = LDA ( 1  1  0  0 0 0)

     celldm(1)=   6.830000  celldm(2)=   0.000000  celldm(3)=   0.000000
     celldm(4)=   0.000000  celldm(5)=   0.000000  celldm(6)=   0.000000

     crystal axes: (cart. coord. in units of alat)
               a(1) = (  -0.500000   0.000000   0.500000 )  
               a(2) = (   0.000000   0.500000   0.500000 )  
               a(3) = (  -0.500000   0.500000   0.000000 )  

     reciprocal axes: (cart. coord. in units 2 pi/alat)
               b(1) = ( -1.000000 -1.000000  1.000000 )  
               b(2) = (  1.000000  1.000000  1.000000 )  
               b(3) = ( -1.000000  1.000000 -1.000000 )  


     PseudoPot. # 1 for Fr read from file:
     /home/lorenzo/pseudos/Fr/Fr.pz-spdn-rrkjus_psl.1.0.0.UPF
     MD5 check sum: 5665a43a3d1ea02b0b7dc7a0ae9ace04
     Pseudo is Ultrasoft + core correction, Zval = 19.0
     Generated using "atomic" code by A. Dal Corso v.6.2.2
     Using radial grid of 1287 points,  6 beta functions with: 
                l(1) =   0
                l(2) =   0
                l(3) =   1
                l(4) =   1
                l(5) =   2
                l(6) =   2
     Q(r) pseudized with 0 coefficients 


     atomic species   valence    mass     pseudopotential
        Fr            19.00   223.00000     Fr( 1.00)

     48 Sym. Ops., with inversion, found



   Cartesian axes

     site n.     atom                  positions (alat units)
         1           Fr  tau(   1) = (   0.0000000   0.0000000   0.0000000  )

     number of k points=    35  gaussian smearing, width (Ry)=  0.0100
                       cart. coord. in units 2pi/alat
        k(    1) = (   0.0000000   0.0000000   0.0000000), wk =   0.0027435
        k(    2) = (  -0.1111111   0.1111111  -0.1111111), wk =   0.0219479
        k(    3) = (  -0.2222222   0.2222222  -0.2222222), wk =   0.0219479
        k(    4) = (  -0.3333333   0.3333333  -0.3333333), wk =   0.0219479
        k(    5) = (  -0.4444444   0.4444444  -0.4444444), wk =   0.0219479
        k(    6) = (   0.0000000   0.2222222   0.0000000), wk =   0.0164609
        k(    7) = (  -0.1111111   0.3333333  -0.1111111), wk =   0.0658436
        k(    8) = (  -0.2222222   0.4444444  -0.2222222), wk =   0.0658436
        k(    9) = (  -0.3333333   0.5555556  -0.3333333), wk =   0.0658436
        k(   10) = (   0.5555556  -0.3333333   0.5555556), wk =   0.0658436
        k(   11) = (   0.4444444  -0.2222222   0.4444444), wk =   0.0658436
        k(   12) = (   0.3333333  -0.1111111   0.3333333), wk =   0.0658436
        k(   13) = (   0.2222222  -0.0000000   0.2222222), wk =   0.0329218
        k(   14) = (   0.0000000   0.4444444   0.0000000), wk =   0.0164609
        k(   15) = (  -0.1111111   0.5555556  -0.1111111), wk =   0.0658436
        k(   16) = (  -0.2222222   0.6666667  -0.2222222), wk =   0.0658436
        k(   17) = (   0.6666667  -0.2222222   0.6666667), wk =   0.0658436
        k(   18) = (   0.5555556  -0.1111111   0.5555556), wk =   0.0658436
        k(   19) = (   0.4444444   0.0000000   0.4444444), wk =   0.0329218
        k(   20) = (   0.0000000   0.6666667   0.0000000), wk =   0.0164609
        k(   21) = (  -0.1111111   0.7777778  -0.1111111), wk =   0.0658436
        k(   22) = (   0.7777778  -0.1111111   0.7777778), wk =   0.0658436
        k(   23) = (   0.6666667  -0.0000000   0.6666667), wk =   0.0329218
        k(   24) = (   0.0000000   0.8888889   0.0000000), wk =   0.0164609
        k(   25) = (   0.8888889   0.0000000   0.8888889), wk =   0.0329218
        k(   26) = (  -0.2222222   0.4444444   0.0000000), wk =   0.0658436
        k(   27) = (  -0.3333333   0.5555556  -0.1111111), wk =   0.1316872
        k(   28) = (   0.5555556  -0.3333333   0.7777778), wk =   0.1316872
        k(   29) = (  -0.2222222   0.6666667   0.0000000), wk =   0.0658436
        k(   30) = (   0.6666667  -0.2222222   0.8888889), wk =   0.1316872
        k(   31) = (   0.5555556  -0.1111111   0.7777778), wk =   0.1316872
        k(   32) = (   0.4444444   0.0000000   0.6666667), wk =   0.0658436
        k(   33) = (   0.7777778  -0.1111111   1.0000000), wk =   0.0658436
        k(   34) = (   0.6666667  -0.0000000   0.8888889), wk =   0.0658436
        k(   35) = (   0.5555556  -0.1111111   1.0000000), wk =   0.0658436

     Dense  grid:     8393 G-vectors     FFT dimensions: (  30,  30,  30)

     Estimated max dynamical RAM per process >       9.50 MB

     Estimated total dynamical RAM >      47.48 MB

     Initial potential from superposition of free atoms

     starting charge   18.97647, renormalised to   19.00000
     Starting wfcs are   10 randomized atomic wfcs +    4 random wfcs

     total cpu time spent up to now is        1.4 secs

     Self-consistent Calculation

     iteration #  1     ecut=    85.00 Ry     beta= 0.70
     Davidson diagonalization with overlap
     ethr =  1.00E-02,  avg # of iterations =  4.7

     Threshold (ethr) on eigenvalues was too large:
     Diagonalizing with lowered threshold

     Davidson diagonalization with overlap
     ethr =  9.25E-05,  avg # of iterations =  1.9

     total cpu time spent up to now is        2.7 secs

     total energy              =    -282.48683679 Ry
     Harris-Foulkes estimate   =    -282.49888018 Ry
     estimated scf accuracy    <       0.01745105 Ry

     iteration #  2     ecut=    85.00 Ry     beta= 0.70
     Davidson diagonalization with overlap
     ethr =  9.18E-05,  avg # of iterations =  2.0

     total cpu time spent up to now is        3.2 secs

     total energy              =    -282.48971845 Ry
     Harris-Foulkes estimate   =    -282.49015980 Ry
     estimated scf accuracy    <       0.00059874 Ry

     iteration #  3     ecut=    85.00 Ry     beta= 0.70
     Davidson diagonalization with overlap
     ethr =  3.15E-06,  avg # of iterations =  2.7

     total cpu time spent up to now is        3.8 secs

     total energy              =    -282.48981604 Ry
     Harris-Foulkes estimate   =    -282.48983299 Ry
     estimated scf accuracy    <       0.00002868 Ry

     iteration #  4     ecut=    85.00 Ry     beta= 0.70
     Davidson diagonalization with overlap
     ethr =  1.51E-07,  avg # of iterations =  2.0

     total cpu time spent up to now is        4.4 secs

     total energy              =    -282.48981941 Ry
     Harris-Foulkes estimate   =    -282.48981944 Ry
     estimated scf accuracy    <       0.00000008 Ry

     iteration #  5     ecut=    85.00 Ry     beta= 0.70
     Davidson diagonalization with overlap
     ethr =  4.00E-10,  avg # of iterations =  2.5

     total cpu time spent up to now is        4.9 secs

     End of self-consistent calculation

          k = 0.0000 0.0000 0.0000 (  1067 PWs)   bands (ev):

    -9.5041  -9.5041  -9.5041  -9.1560  -9.1560   9.0925  46.8857  46.8857
    46.8857  48.0874  53.6715  53.6715  53.6715  57.5436

          k =-0.1111 0.1111-0.1111 (  1028 PWs)   bands (ev):

    -9.4994  -9.4663  -9.4663  -9.1545  -9.1545   9.5868  42.0667  46.1685
    46.1685  47.9574  54.8623  54.8623  55.6183  56.8973

          k =-0.2222 0.2222-0.2222 (  1041 PWs)   bands (ev):

    -9.4917  -9.4136  -9.4136  -9.1066  -9.1066  11.0716  35.1713  44.7780
    44.7780  47.9940  53.6825  54.3556  54.3556  57.6542

          k =-0.3333 0.3333-0.3333 (  1059 PWs)   bands (ev):

    -9.4888  -9.4214  -9.4214  -8.9816  -8.9816  13.4997  28.8681  43.5008
    43.5008  47.9629  51.9005  52.5659  52.5659  61.1904

          k =-0.4444 0.4444-0.4444 (  1044 PWs)   bands (ev):

    -9.4900  -9.4445  -9.4445  -8.8799  -8.8799  16.4042  23.9719  42.7476
    42.7476  47.8654  51.0541  51.6932  51.6932  64.4913

          k = 0.0000 0.2222 0.0000 (  1038 PWs)   bands (ev):

    -9.5429  -9.4259  -9.4259  -9.1960  -9.1229   9.7514  44.0234  44.0234
    44.4907  46.7226  52.6056  56.1108  56.8846  56.8846

          k =-0.1111 0.3333-0.1111 (  1041 PWs)   bands (ev):

    -9.5543  -9.3613  -9.3524  -9.2084  -9.0703  10.9063  37.6725  42.2278
    43.8305  47.7500  50.1514  55.8850  57.9756  58.2134

          k =-0.2222 0.4444-0.2222 (  1054 PWs)   bands (ev):

    -9.5314  -9.3760  -9.3413  -9.1129  -8.9582  13.0282  31.1916  41.1281
    42.0555  46.7053  52.7606  55.5222  55.8615  56.6188

          k =-0.3333 0.5556-0.3333 (  1054 PWs)   bands (ev):

    -9.5063  -9.4060  -9.3681  -8.9889  -8.8694  15.8808  25.7589  40.1991
    40.9120  46.1389  53.8990  54.1126  55.0035  59.1640

          k = 0.5556-0.3333 0.5556 (  1060 PWs)   bands (ev):

    -9.4805  -9.4246  -9.3840  -8.9144  -8.8844  17.3915  23.6031  38.9283
    41.6917  46.4679  52.7634  53.0252  56.0480  63.4754

          k = 0.4444-0.2222 0.4444 (  1051 PWs)   bands (ev):

    -9.4567  -9.4308  -9.3726  -9.0052  -8.9256  14.8864  27.4227  38.5281
    43.4383  47.6152  51.9085  52.5994  57.5512  60.1151

          k = 0.3333-0.1111 0.3333 (  1050 PWs)   bands (ev):

    -9.4814  -9.3983  -9.3572  -9.1546  -9.0080  12.2174  33.2807  39.0381
    45.8080  49.4347  51.2106  52.8645  56.2650  57.8930

          k = 0.2222-0.0000 0.2222 (  1037 PWs)   bands (ev):

    -9.5035  -9.4176  -9.4062  -9.1893  -9.1000  10.4117  39.4693  40.8203
    47.3791  49.2742  52.7883  54.0915  54.1188  56.3114

          k = 0.0000 0.4444 0.0000 (  1054 PWs)   bands (ev):

    -9.6408  -9.3054  -9.2241  -9.2241  -9.0389  11.7305  39.3078  40.0563
    40.0563  44.8801  46.6076  60.9119  60.9119  61.1239

          k =-0.1111 0.5556-0.1111 (  1047 PWs)   bands (ev):

    -9.6553  -9.3643  -9.1666  -9.1139  -8.9469  13.5276  33.7446  38.2842
    38.7091  44.7129  47.4965  60.1181  60.4434  61.8972

          k =-0.2222 0.6667-0.2222 (  1050 PWs)   bands (ev):

    -9.6077  -9.3642  -9.1872  -9.0610  -8.8583  16.1476  28.3377  35.7061
    38.3783  44.3659  52.1271  58.0926  58.6192  61.7240

          k = 0.6667-0.2222 0.6667 (  1065 PWs)   bands (ev):

    -9.5523  -9.3055  -9.2142  -9.0542  -8.8793  18.4756  24.9341  33.7426
    39.1509  44.7080  56.6329  56.8155  57.6918  62.4978

          k = 0.5556-0.1111 0.5556 (  1058 PWs)   bands (ev):

    -9.4930  -9.3204  -9.2205  -9.0140  -9.0110  17.0221  27.0836  32.7589
    40.9813  45.7541  55.5245  55.8277  60.1517  60.7307

          k = 0.4444 0.0000 0.4444 (  1061 PWs)   bands (ev):

    -9.4323  -9.4112  -9.2041  -9.1958  -8.9700  14.2929  31.5571  33.5416
    43.5890  47.5324  53.5033  55.6780  55.7172  58.2747

          k = 0.0000 0.6667 0.0000 (  1030 PWs)   bands (ev):

    -9.7512  -9.4423  -8.9869  -8.9869  -8.9426  14.9960  32.5826  37.0435
    37.0435  43.6164  43.7102  64.3353  64.8824  64.8824

          k =-0.1111 0.7778-0.1111 (  1054 PWs)   bands (ev):

    -9.7443  -9.4713  -8.9846  -8.9290  -8.8509  17.3125  29.0743  33.9692
    36.4144  43.2785  46.1708  62.1728  64.0503  68.4501

          k = 0.7778-0.1111 0.7778 (  1054 PWs)   bands (ev):

    -9.6615  -9.3931  -9.0159  -8.9876  -8.8622  19.7172  26.5816  30.3875
    36.9296  43.4951  51.3010  60.3722  62.1079  66.5906

          k = 0.6667-0.0000 0.6667 (  1063 PWs)   bands (ev):

    -9.5733  -9.2053  -9.1378  -9.0659  -8.9712  19.3637  28.0214  28.0505
    38.5394  44.3131  57.1651  58.7533  59.7576  62.3440

          k = 0.0000 0.8889 0.0000 (  1054 PWs)   bands (ev):

    -9.8229  -9.5381  -8.8794  -8.8276  -8.8276  19.2381  26.2944  35.4416
    35.4416  42.6032  42.9983  64.1043  69.5425  69.5425

          k = 0.8889 0.0000 0.8889 (  1051 PWs)   bands (ev):

    -9.7794  -9.5178  -8.8989  -8.8520  -8.8250  20.6713  25.0385  32.8155
    35.6202  42.8599  45.7469  62.9826  67.3952  68.9189

          k =-0.2222 0.4444 0.0000 (  1050 PWs)   bands (ev):

    -9.5621  -9.3524  -9.2336  -9.2284  -8.9947  12.3831  35.2450  37.1752
    43.0151  48.4332  48.7900  55.4651  57.8332  60.4364

          k =-0.3333 0.5556-0.1111 (  1055 PWs)   bands (ev):

    -9.5128  -9.3924  -9.2438  -9.1007  -8.9245  14.7675  29.8973  35.6767
    40.5303  47.8527  51.8755  54.4421  58.2803  61.6474

          k = 0.5556-0.3333 0.7778 (  1057 PWs)   bands (ev):

    -9.4684  -9.4229  -9.2375  -9.0287  -8.8892  17.5398  25.3034  35.4900
    38.7806  47.4421  51.9285  58.5125  58.7929  60.0762

          k =-0.2222 0.6667 0.0000 (  1054 PWs)   bands (ev):

    -9.6526  -9.4077  -9.1340  -8.9919  -8.9036  15.5913  31.3088  34.4507
    36.8720  46.8612  46.9069  57.7934  63.7854  65.9482

          k = 0.6667-0.2222 0.8889 (  1059 PWs)   bands (ev):

    -9.5735  -9.3864  -9.1554  -8.9875  -8.8724  18.2362  27.6656  32.2489
    35.5027  46.8904  51.7031  55.8450  63.4127  64.6453

          k = 0.5556-0.1111 0.7778 (  1055 PWs)   bands (ev):

    -9.5047  -9.3136  -9.1648  -9.0782  -8.8921  19.4221  26.3001  30.7282
    36.0863  47.5494  54.1875  57.6045  59.0311  62.8159

          k = 0.4444 0.0000 0.6667 (  1054 PWs)   bands (ev):

    -9.4457  -9.3991  -9.1917  -9.0009  -8.9940  17.2403  29.0384  30.8264
    37.9634  48.7355  52.6968  55.0110  61.0998  62.7523

          k = 0.7778-0.1111 1.0000 (  1055 PWs)   bands (ev):

    -9.7123  -9.4818  -8.9861  -8.8952  -8.8282  19.5848  26.7127  32.9937
    33.8247  45.9761  46.1137  60.4802  65.4403  68.4993

          k = 0.6667-0.0000 0.8889 (  1055 PWs)   bands (ev):

    -9.5995  -9.3956  -9.0795  -8.9900  -8.8313  20.6938  26.5618  29.6590
    34.2413  46.5506  51.4094  58.1730  61.1233  66.3251

          k = 0.5556-0.1111 1.0000 (  1054 PWs)   bands (ev):

    -9.4237  -9.4011  -9.2362  -9.0199  -8.8297  20.3057  27.7919  29.3811
    32.8232  51.5603  51.8005  54.4906  58.4608  67.9844

     the Fermi energy is    46.7223 ev

!    total energy              =    -282.48981945 Ry
     Harris-Foulkes estimate   =    -282.48981945 Ry
     estimated scf accuracy    <          3.0E-09 Ry

     The total energy is the sum of the following terms:

     one-electron contribution =      -4.47511857 Ry
     hartree contribution      =      28.21885916 Ry
     xc contribution           =     -63.89996341 Ry
     ewald contribution        =    -242.33311988 Ry
     smearing contrib. (-TS)   =      -0.00047676 Ry

     convergence has been achieved in   5 iterations

     Forces acting on atoms (cartesian axes, Ry/au):

     atom    1 type  1   force =     0.00000000    0.00000000    0.00000000

     Total force =     0.000000     Total SCF correction =     0.000000


     Computing stress (Cartesian axis) and pressure

          total   stress  (Ry/bohr**3)                   (kbar)     P= 7041.09
   0.04786439  -0.00000000   0.00000000       7041.09     -0.00      0.00
  -0.00000000   0.04786439   0.00000000         -0.00   7041.09      0.00
   0.00000000  -0.00000000   0.04786439          0.00     -0.00   7041.09


     Writing output data file Fr.save/

     init_run     :      0.36s CPU      0.38s WALL (       1 calls)
     electrons    :      3.42s CPU      3.58s WALL (       1 calls)
     forces       :      0.05s CPU      0.05s WALL (       1 calls)
     stress       :      0.16s CPU      0.16s WALL (       1 calls)

     Called by init_run:
     wfcinit      :      0.16s CPU      0.17s WALL (       1 calls)
     potinit      :      0.01s CPU      0.01s WALL (       1 calls)
     hinit0       :      0.19s CPU      0.19s WALL (       1 calls)

     Called by electrons:
     c_bands      :      2.88s CPU      3.01s WALL (       6 calls)
     sum_band     :      0.49s CPU      0.51s WALL (       6 calls)
     v_of_rho     :      0.01s CPU      0.01s WALL (       6 calls)
     newd         :      0.05s CPU      0.05s WALL (       6 calls)
     mix_rho      :      0.00s CPU      0.00s WALL (       6 calls)

     Called by c_bands:
     init_us_2    :      0.07s CPU      0.07s WALL (     525 calls)
     cegterg      :      2.79s CPU      2.91s WALL (     210 calls)

     Called by sum_band:
     sum_band:bec :      0.00s CPU      0.00s WALL (     210 calls)
     addusdens    :      0.05s CPU      0.05s WALL (       6 calls)

     Called by *egterg:
     h_psi        :      2.07s CPU      2.18s WALL (     799 calls)
     s_psi        :      0.07s CPU      0.07s WALL (     799 calls)
     g_psi        :      0.01s CPU      0.01s WALL (     554 calls)
     cdiaghg      :      0.35s CPU      0.36s WALL (     729 calls)

     Called by h_psi:
     h_psi:pot    :      2.06s CPU      2.17s WALL (     799 calls)
     h_psi:calbec :      0.10s CPU      0.10s WALL (     799 calls)
     vloc_psi     :      1.89s CPU      1.99s WALL (     799 calls)
     add_vuspsi   :      0.07s CPU      0.07s WALL (     799 calls)

     General routines
     calbec       :      0.15s CPU      0.16s WALL (    1184 calls)
     fft          :      0.01s CPU      0.01s WALL (      34 calls)
     ffts         :      0.00s CPU      0.00s WALL (       6 calls)
     fftw         :      2.10s CPU      2.21s WALL (   18878 calls)

     Parallel routines
     fft_scatt_xy :      0.18s CPU      0.19s WALL (   18918 calls)
     fft_scatt_yz :      0.52s CPU      0.55s WALL (   18918 calls)

     PWSCF        :     5.00s CPU         5.24s WALL


   This run was terminated on:  22:59: 9   7Apr2024            

=------------------------------------------------------------------------------=
   JOB DONE.
=------------------------------------------------------------------------------=
