
     Program PWSCF v.6.3MaX starts on  7Apr2024 at 22:55:53 

     This program is part of the open-source Quantum ESPRESSO suite
     for quantum simulation of materials; please cite
         "P. Giannozzi et al., J. Phys.:Condens. Matter 21 395502 (2009);
         "P. Giannozzi et al., J. Phys.:Condens. Matter 29 465901 (2017);
          URL http://www.quantum-espresso.org", 
     in publications or presentations arising from this work. More details at
     http://www.quantum-espresso.org/quote

     Parallel version (MPI), running on     5 processors

     MPI processes distributed on     1 nodes
     R & G space division:  proc/nbgrp/npool/nimage =       5
     Waiting for input...
     Reading input from standard input

     Current dimensions of program PWSCF are:
     Max number of different atomic species (ntypx) = 10
     Max number of k-points (npk) =  40000
     Max angular momentum in pseudopotentials (lmaxx) =  3

     Subspace diagonalization in iterative solution of the eigenvalue problem:
     a serial algorithm will be used


     Parallelization info
     --------------------
     sticks:   dense  smooth     PW     G-vecs:    dense   smooth      PW
     Min         109     109     33                 1677     1677     294
     Max         110     110     35                 1680     1680     295
     Sum         547     547    169                 8393     8393    1471



     bravais-lattice index     =            2
     lattice parameter (alat)  =       6.8300  a.u.
     unit-cell volume          =      79.6530 (a.u.)^3
     number of atoms/cell      =            1
     number of atomic types    =            1
     number of electrons       =        19.00
     number of Kohn-Sham states=           14
     kinetic-energy cutoff     =      85.0000  Ry
     charge density cutoff     =     340.0000  Ry
     convergence threshold     =      1.0E-08
     mixing beta               =       0.7000
     number of iterations used =            8  plain     mixing
     Exchange-correlation      = PBE ( 1  4  3  4 0 0)

     celldm(1)=   6.830000  celldm(2)=   0.000000  celldm(3)=   0.000000
     celldm(4)=   0.000000  celldm(5)=   0.000000  celldm(6)=   0.000000

     crystal axes: (cart. coord. in units of alat)
               a(1) = (  -0.500000   0.000000   0.500000 )  
               a(2) = (   0.000000   0.500000   0.500000 )  
               a(3) = (  -0.500000   0.500000   0.000000 )  

     reciprocal axes: (cart. coord. in units 2 pi/alat)
               b(1) = ( -1.000000 -1.000000  1.000000 )  
               b(2) = (  1.000000  1.000000  1.000000 )  
               b(3) = ( -1.000000  1.000000 -1.000000 )  


     PseudoPot. # 1 for Fr read from file:
     /home/lorenzo/pseudos/Fr/Fr.pbe-spdn-rrkjus_psl.1.0.0.UPF
     MD5 check sum: 07cabfa18982bd6b5b9d8ae5689d9732
     Pseudo is Ultrasoft + core correction, Zval = 19.0
     Generated using "atomic" code by A. Dal Corso v.6.2.2
     Using radial grid of 1287 points,  6 beta functions with: 
                l(1) =   0
                l(2) =   0
                l(3) =   1
                l(4) =   1
                l(5) =   2
                l(6) =   2
     Q(r) pseudized with 0 coefficients 


     atomic species   valence    mass     pseudopotential
        Fr            19.00   223.00000     Fr( 1.00)

     48 Sym. Ops., with inversion, found



   Cartesian axes

     site n.     atom                  positions (alat units)
         1           Fr  tau(   1) = (   0.0000000   0.0000000   0.0000000  )

     number of k points=    47  gaussian smearing, width (Ry)=  0.0100
                       cart. coord. in units 2pi/alat
        k(    1) = (   0.0000000   0.0000000   0.0000000), wk =   0.0020000
        k(    2) = (  -0.1000000   0.1000000  -0.1000000), wk =   0.0160000
        k(    3) = (  -0.2000000   0.2000000  -0.2000000), wk =   0.0160000
        k(    4) = (  -0.3000000   0.3000000  -0.3000000), wk =   0.0160000
        k(    5) = (  -0.4000000   0.4000000  -0.4000000), wk =   0.0160000
        k(    6) = (   0.5000000  -0.5000000   0.5000000), wk =   0.0080000
        k(    7) = (   0.0000000   0.2000000   0.0000000), wk =   0.0120000
        k(    8) = (  -0.1000000   0.3000000  -0.1000000), wk =   0.0480000
        k(    9) = (  -0.2000000   0.4000000  -0.2000000), wk =   0.0480000
        k(   10) = (  -0.3000000   0.5000000  -0.3000000), wk =   0.0480000
        k(   11) = (   0.6000000  -0.4000000   0.6000000), wk =   0.0480000
        k(   12) = (   0.5000000  -0.3000000   0.5000000), wk =   0.0480000
        k(   13) = (   0.4000000  -0.2000000   0.4000000), wk =   0.0480000
        k(   14) = (   0.3000000  -0.1000000   0.3000000), wk =   0.0480000
        k(   15) = (   0.2000000   0.0000000   0.2000000), wk =   0.0240000
        k(   16) = (   0.0000000   0.4000000   0.0000000), wk =   0.0120000
        k(   17) = (  -0.1000000   0.5000000  -0.1000000), wk =   0.0480000
        k(   18) = (  -0.2000000   0.6000000  -0.2000000), wk =   0.0480000
        k(   19) = (   0.7000000  -0.3000000   0.7000000), wk =   0.0480000
        k(   20) = (   0.6000000  -0.2000000   0.6000000), wk =   0.0480000
        k(   21) = (   0.5000000  -0.1000000   0.5000000), wk =   0.0480000
        k(   22) = (   0.4000000   0.0000000   0.4000000), wk =   0.0240000
        k(   23) = (   0.0000000   0.6000000   0.0000000), wk =   0.0120000
        k(   24) = (  -0.1000000   0.7000000  -0.1000000), wk =   0.0480000
        k(   25) = (   0.8000000  -0.2000000   0.8000000), wk =   0.0480000
        k(   26) = (   0.7000000  -0.1000000   0.7000000), wk =   0.0480000
        k(   27) = (   0.6000000  -0.0000000   0.6000000), wk =   0.0240000
        k(   28) = (   0.0000000   0.8000000   0.0000000), wk =   0.0120000
        k(   29) = (   0.9000000  -0.1000000   0.9000000), wk =   0.0480000
        k(   30) = (   0.8000000   0.0000000   0.8000000), wk =   0.0240000
        k(   31) = (   0.0000000  -1.0000000   0.0000000), wk =   0.0060000
        k(   32) = (  -0.2000000   0.4000000   0.0000000), wk =   0.0480000
        k(   33) = (  -0.3000000   0.5000000  -0.1000000), wk =   0.0960000
        k(   34) = (   0.6000000  -0.4000000   0.8000000), wk =   0.0960000
        k(   35) = (   0.5000000  -0.3000000   0.7000000), wk =   0.0480000
        k(   36) = (  -0.2000000   0.6000000   0.0000000), wk =   0.0480000
        k(   37) = (   0.7000000  -0.3000000   0.9000000), wk =   0.0960000
        k(   38) = (   0.6000000  -0.2000000   0.8000000), wk =   0.0960000
        k(   39) = (   0.5000000  -0.1000000   0.7000000), wk =   0.0960000
        k(   40) = (   0.4000000   0.0000000   0.6000000), wk =   0.0480000
        k(   41) = (   0.8000000  -0.2000000   1.0000000), wk =   0.0480000
        k(   42) = (   0.7000000  -0.1000000   0.9000000), wk =   0.0960000
        k(   43) = (   0.6000000   0.0000000   0.8000000), wk =   0.0480000
        k(   44) = (  -0.2000000  -1.0000000   0.0000000), wk =   0.0240000
        k(   45) = (   0.6000000  -0.2000000   1.0000000), wk =   0.0480000
        k(   46) = (   0.5000000  -0.1000000   0.9000000), wk =   0.0480000
        k(   47) = (  -0.4000000  -1.0000000   0.0000000), wk =   0.0240000

     Dense  grid:     8393 G-vectors     FFT dimensions: (  30,  30,  30)

     Estimated max dynamical RAM per process >      10.04 MB

     Estimated total dynamical RAM >      50.21 MB

     Initial potential from superposition of free atoms

     starting charge   18.97009, renormalised to   19.00000
     Starting wfcs are   10 randomized atomic wfcs +    4 random wfcs

     total cpu time spent up to now is        1.4 secs

     Self-consistent Calculation

     iteration #  1     ecut=    85.00 Ry     beta= 0.70
     Davidson diagonalization with overlap
     ethr =  1.00E-02,  avg # of iterations =  4.7

     Threshold (ethr) on eigenvalues was too large:
     Diagonalizing with lowered threshold

     Davidson diagonalization with overlap
     ethr =  1.04E-04,  avg # of iterations =  1.9

     total cpu time spent up to now is        3.3 secs

     total energy              =    -282.84513929 Ry
     Harris-Foulkes estimate   =    -282.85733131 Ry
     estimated scf accuracy    <       0.01961112 Ry

     iteration #  2     ecut=    85.00 Ry     beta= 0.70
     Davidson diagonalization with overlap
     ethr =  1.03E-04,  avg # of iterations =  2.0

     total cpu time spent up to now is        4.0 secs

     total energy              =    -282.84843581 Ry
     Harris-Foulkes estimate   =    -282.84900349 Ry
     estimated scf accuracy    <       0.00077752 Ry

     iteration #  3     ecut=    85.00 Ry     beta= 0.70
     Davidson diagonalization with overlap
     ethr =  4.09E-06,  avg # of iterations =  2.3

     total cpu time spent up to now is        4.8 secs

     total energy              =    -282.84858725 Ry
     Harris-Foulkes estimate   =    -282.84860391 Ry
     estimated scf accuracy    <       0.00003639 Ry

     iteration #  4     ecut=    85.00 Ry     beta= 0.70
     Davidson diagonalization with overlap
     ethr =  1.92E-07,  avg # of iterations =  1.5

     total cpu time spent up to now is        5.4 secs

     total energy              =    -282.84859075 Ry
     Harris-Foulkes estimate   =    -282.84859076 Ry
     estimated scf accuracy    <       0.00000016 Ry

     iteration #  5     ecut=    85.00 Ry     beta= 0.70
     Davidson diagonalization with overlap
     ethr =  8.24E-10,  avg # of iterations =  2.2

     total cpu time spent up to now is        6.3 secs

     End of self-consistent calculation

          k = 0.0000 0.0000 0.0000 (  1067 PWs)   bands (ev):

    -9.2736  -9.2736  -9.2736  -8.9303  -8.9303   9.4724  47.2890  47.2890
    47.2890  48.3083  53.8675  53.8675  53.8675  57.8169

          k =-0.1000 0.1000-0.1000 (  1040 PWs)   bands (ev):

    -9.2697  -9.2424  -9.2424  -8.9296  -8.9296   9.8734  43.0960  46.6789
    46.6789  48.1935  54.8689  54.8689  55.8560  57.4409

          k =-0.2000 0.2000-0.2000 (  1046 PWs)   bands (ev):

    -9.2625  -9.1901  -9.1901  -8.8980  -8.8980  11.0788  36.8598  45.4429
    45.4429  48.2237  54.3911  55.0595  55.0595  57.2642

          k =-0.3000 0.3000-0.3000 (  1056 PWs)   bands (ev):

    -9.2585  -9.1855  -9.1855  -8.7963  -8.7963  13.0709  30.9849  44.2236
    44.2236  48.2088  52.6138  53.2193  53.2193  60.3695

          k =-0.4000 0.4000-0.4000 (  1050 PWs)   bands (ev):

    -9.2588  -9.2080  -9.2080  -8.6858  -8.6858  15.6832  25.9683  43.3497
    43.3497  48.1184  51.5622  52.1309  52.1309  63.6406

          k = 0.5000-0.5000 0.5000 (  1056 PWs)   bands (ev):

    -9.2599  -9.2194  -9.2194  -8.6403  -8.6403  17.5607  23.2787  43.0319
    43.0319  48.0571  51.2378  51.7766  51.7766  65.4827

          k = 0.0000 0.2000 0.0000 (  1038 PWs)   bands (ev):

    -9.3051  -9.2101  -9.2101  -8.9626  -8.9035  10.0069  44.7931  44.7931
    45.2967  47.1273  53.5944  55.9211  56.6559  56.6559

          k =-0.1000 0.3000-0.1000 (  1035 PWs)   bands (ev):

    -9.3157  -9.1499  -9.1443  -8.9787  -8.8636  10.9442  39.1163  43.1332
    44.7481  48.2031  50.9204  55.7589  58.1583  58.3910

          k =-0.2000 0.4000-0.2000 (  1054 PWs)   bands (ev):

    -9.2988  -9.1461  -9.1217  -8.9120  -8.7715  12.6774  33.1254  41.9840
    43.3210  47.5424  52.3261  55.5938  56.3399  56.8562

          k =-0.3000 0.5000-0.3000 (  1059 PWs)   bands (ev):

    -9.2779  -9.1751  -9.1418  -8.7957  -8.6717  15.1135  27.8198  41.4958
    41.6669  46.6763  53.9949  54.5922  54.6395  58.4324

          k = 0.6000-0.4000 0.6000 (  1056 PWs)   bands (ev):

    -9.2598  -9.1961  -9.1634  -8.7032  -8.6375  17.5731  24.0370  40.2975
    41.7752  46.6083  53.2121  53.3808  55.1337  62.3435

          k = 0.5000-0.3000 0.5000 (  1052 PWs)   bands (ev):

    -9.2365  -9.2084  -9.1654  -8.6963  -8.6761  16.8752  25.0081  39.5531
    42.8592  47.2253  52.3604  52.7258  56.2393  62.9587

          k = 0.4000-0.2000 0.4000 (  1050 PWs)   bands (ev):

    -9.2379  -9.1898  -9.1473  -8.8240  -8.7221  14.2362  29.5021  39.5309
    44.6502  48.4713  51.7528  52.6322  57.7666  59.2304

          k = 0.3000-0.1000 0.3000 (  1048 PWs)   bands (ev):

    -9.2595  -9.1658  -9.1432  -8.9427  -8.8113  12.0130  35.0673  40.2147
    46.7401  49.8309  51.6293  53.1870  55.9670  57.6991

          k = 0.2000 0.0000 0.2000 (  1037 PWs)   bands (ev):

    -9.2746  -9.2033  -9.1863  -8.9586  -8.8881  10.5426  40.7557  41.9147
    47.8216  49.2575  53.6092  54.2325  54.7340  56.4834

          k = 0.0000 0.4000 0.0000 (  1054 PWs)   bands (ev):

    -9.3873  -9.0530  -9.0417  -9.0417  -8.8331  11.6133  40.9549  41.1361
    41.1361  45.4023  47.7372  60.2302  60.4400  60.4400

          k =-0.1000 0.5000-0.1000 (  1051 PWs)   bands (ev):

    -9.4049  -9.1120  -8.9797  -8.9350  -8.7582  13.0801  35.4974  39.7709
    40.0678  45.4464  47.7788  60.0063  60.1224  61.2338

          k =-0.2000 0.6000-0.2000 (  1046 PWs)   bands (ev):

    -9.3720  -9.1351  -8.9891  -8.8607  -8.6604  15.2819  30.2107  37.8203
    39.1856  44.9182  51.6376  58.2388  58.6500  60.5973

          k = 0.7000-0.3000 0.7000 (  1061 PWs)   bands (ev):

    -9.3280  -9.1107  -9.0155  -8.8212  -8.6300  17.8397  25.9753  35.8676
    39.4682  44.9564  56.1826  56.7120  57.2393  60.9370

          k = 0.6000-0.2000 0.6000 (  1073 PWs)   bands (ev):

    -9.2838  -9.0976  -9.0307  -8.7851  -8.6977  18.4477  25.1842  34.5835
    40.6381  45.5784  55.7045  55.7060  60.8469  62.5009

          k = 0.5000-0.1000 0.5000 (  1053 PWs)   bands (ev):

    -9.2321  -9.1438  -9.0235  -8.8414  -8.7473  16.0983  28.8121  34.1349
    42.6097  46.8062  54.5327  55.2272  58.9337  60.1381

          k = 0.4000 0.0000 0.4000 (  1057 PWs)   bands (ev):

    -9.2139  -9.1843  -9.0233  -8.9781  -8.7512  13.7247  33.2498  35.1677
    45.0732  48.6528  52.7390  54.9977  55.4737  58.0294

          k = 0.0000 0.6000 0.0000 (  1042 PWs)   bands (ev):

    -9.4882  -9.1749  -8.8275  -8.8275  -8.7455  14.2793  35.0429  38.1462
    38.1462  44.1089  44.5395  63.8718  63.8719  64.7083

          k =-0.1000 0.7000-0.1000 (  1049 PWs)   bands (ev):

    -9.4942  -9.2142  -8.8052  -8.7539  -8.6570  16.2245  31.4319  35.5371
    37.3233  43.8077  46.2812  62.1330  63.3978  66.6875

          k = 0.8000-0.2000 0.8000 (  1054 PWs)   bands (ev):

    -9.4351  -9.1794  -8.8307  -8.7637  -8.6191  18.6500  27.9502  32.5080
    37.4060  43.7930  50.6362  60.3568  61.6318  66.9367

          k = 0.7000-0.1000 0.7000 (  1056 PWs)   bands (ev):

    -9.3642  -9.0491  -8.8575  -8.8539  -8.6842  20.0532  26.4848  30.3572
    38.4086  44.2793  55.7254  59.0496  60.0519  64.4146

          k = 0.6000-0.0000 0.6000 (  1059 PWs)   bands (ev):

    -9.2953  -9.0058  -8.8924  -8.8683  -8.8087  18.4149  28.6931  29.7536
    40.2357  45.2837  57.8982  57.9618  60.3261  60.4557

          k = 0.0000 0.8000 0.0000 (  1042 PWs)   bands (ev):

    -9.5694  -9.2812  -8.6743  -8.6490  -8.6490  17.8999  28.9945  36.2276
    36.2276  43.1143  43.3461  64.4679  67.9615  67.9615

          k = 0.9000-0.1000 0.9000 (  1061 PWs)   bands (ev):

    -9.5493  -9.2865  -8.6872  -8.6337  -8.6015  20.0227  26.5469  33.6765
    36.0418  43.1104  45.5839  63.3116  66.8403  69.7593

          k = 0.8000 0.0000 0.8000 (  1057 PWs)   bands (ev):

    -9.4598  -9.2027  -8.7312  -8.7197  -8.6417  21.1150  26.1902  30.3405
    36.7969  43.4626  50.2874  61.5619  64.5231  66.5283

          k = 0.0000-1.0000 0.0000 (  1034 PWs)   bands (ev):

    -9.6002  -9.3233  -8.6469  -8.5795  -8.5795  21.1025  24.9323  35.5674
    35.5674  42.7012  43.0962  64.3749  70.3539  71.3279

          k =-0.2000 0.4000 0.0000 (  1054 PWs)   bands (ev):

    -9.3269  -9.1235  -9.0501  -9.0011  -8.7984  12.1467  36.8462  38.5336
    44.4725  48.5147  49.2971  55.9704  57.3230  59.8443

          k =-0.3000 0.5000-0.1000 (  1057 PWs)   bands (ev):

    -9.2928  -9.1536  -9.0347  -8.9118  -8.7204  14.1186  31.7649  37.0357
    42.2529  48.1076  51.8053  54.5482  57.6339  61.4272

          k = 0.6000-0.4000 0.8000 (  1054 PWs)   bands (ev):

    -9.2514  -9.1885  -9.0434  -8.8096  -8.6705  16.6663  26.9697  36.6993
    40.3101  47.5924  52.2533  57.1254  58.1138  59.8707

          k = 0.5000-0.3000 0.7000 (  1060 PWs)   bands (ev):

    -9.2319  -9.2074  -9.0419  -8.7685  -8.6567  18.4385  24.4307  36.7258
    39.4942  47.4126  51.9803  58.2831  58.8258  61.7259

          k =-0.2000 0.6000 0.0000 (  1052 PWs)   bands (ev):

    -9.4125  -9.1554  -8.9356  -8.8329  -8.7009  14.7874  33.2269  35.8254
    38.6956  47.0029  47.0964  58.0020  62.4882  65.3552

          k = 0.7000-0.3000 0.9000 (  1053 PWs)   bands (ev):

    -9.3563  -9.1613  -8.9454  -8.7801  -8.6600  17.1320  29.2626  34.0485
    36.9842  46.8431  51.1191  56.1132  63.0697  64.0979

          k = 0.6000-0.2000 0.8000 (  1060 PWs)   bands (ev):

    -9.2963  -9.1164  -8.9338  -8.8398  -8.6505  19.3454  26.1171  32.7768
    36.7752  47.1575  54.2390  56.4582  61.7939  62.8791

          k = 0.5000-0.1000 0.7000 (  1064 PWs)   bands (ev):

    -9.2472  -9.1253  -8.9327  -8.8459  -8.7098  18.6806  27.1143  31.9088
    37.9024  48.0146  53.4943  57.7914  61.0251  61.3848

          k = 0.4000 0.0000 0.6000 (  1049 PWs)   bands (ev):

    -9.2148  -9.1962  -8.9758  -8.8422  -8.7364  16.2496  30.5219  32.4834
    39.8916  49.2189  52.1136  54.6570  59.8815  62.8431

          k = 0.8000-0.2000 1.0000 (  1055 PWs)   bands (ev):

    -9.4826  -9.2396  -8.7957  -8.6541  -8.6506  18.3076  28.9454  34.0770
    35.0456  45.9433  46.0468  60.4210  66.3330  67.9182

          k = 0.7000-0.1000 0.9000 (  1058 PWs)   bands (ev):

    -9.3984  -9.1917  -8.8361  -8.7340  -8.6120  20.4402  27.1033  30.9721
    34.8475  46.2258  50.5406  58.6274  63.3717  66.4918

          k = 0.6000 0.0000 0.8000 (  1064 PWs)   bands (ev):

    -9.3151  -9.0496  -8.9522  -8.8135  -8.6580  20.5431  27.9930  28.5586
    35.9679  46.9670  55.8246  56.7536  59.3903  64.2089

          k =-0.2000-1.0000 0.0000 (  1058 PWs)   bands (ev):

    -9.5094  -9.2753  -8.6911  -8.6842  -8.5796  21.2074  25.5647  33.4721
    34.0220  45.5802  45.7298  61.9534  66.2133  68.4627

          k = 0.6000-0.2000 1.0000 (  1052 PWs)   bands (ev):

    -9.2500  -9.1811  -8.9691  -8.7592  -8.6546  19.3738  28.5536  30.7630
    34.6217  50.7670  51.0592  54.7183  61.9028  65.9483

          k = 0.5000-0.1000 0.9000 (  1058 PWs)   bands (ev):

    -9.2016  -9.1261  -9.0235  -8.8151  -8.6144  20.7375  27.4970  29.9602
    33.6725  50.8494  53.0921  56.3618  57.3018  67.1173

          k =-0.4000-1.0000 0.0000 (  1056 PWs)   bands (ev):

    -9.2653  -9.1756  -8.9505  -8.7847  -8.5795  21.3920  27.3845  30.1698
    32.3627  50.6972  51.1898  56.3661  58.8886  69.2081

     the Fermi energy is    46.8629 ev

!    total energy              =    -282.84859080 Ry
     Harris-Foulkes estimate   =    -282.84859080 Ry
     estimated scf accuracy    <          4.7E-09 Ry

     The total energy is the sum of the following terms:

     one-electron contribution =      -4.10444499 Ry
     hartree contribution      =      28.18275656 Ry
     xc contribution           =     -64.59317146 Ry
     ewald contribution        =    -242.33311988 Ry
     smearing contrib. (-TS)   =      -0.00061103 Ry

     convergence has been achieved in   5 iterations

     Forces acting on atoms (cartesian axes, Ry/au):

     atom    1 type  1   force =     0.00000000    0.00000000    0.00000000

     Total force =     0.000000     Total SCF correction =     0.000000


     Computing stress (Cartesian axis) and pressure

          total   stress  (Ry/bohr**3)                   (kbar)     P= 7273.88
   0.04944685  -0.00000000  -0.00000000       7273.88     -0.00     -0.00
  -0.00000000   0.04944685   0.00000000         -0.00   7273.88      0.00
  -0.00000000   0.00000000   0.04944685         -0.00      0.00   7273.88


     Writing output data file Fr.save/

     init_run     :      0.43s CPU      0.45s WALL (       1 calls)
     electrons    :      4.72s CPU      4.91s WALL (       1 calls)
     forces       :      0.08s CPU      0.08s WALL (       1 calls)
     stress       :      0.20s CPU      0.20s WALL (       1 calls)

     Called by init_run:
     wfcinit      :      0.23s CPU      0.24s WALL (       1 calls)
     potinit      :      0.01s CPU      0.01s WALL (       1 calls)
     hinit0       :      0.18s CPU      0.18s WALL (       1 calls)

     Called by electrons:
     c_bands      :      3.97s CPU      4.13s WALL (       6 calls)
     sum_band     :      0.66s CPU      0.69s WALL (       6 calls)
     v_of_rho     :      0.03s CPU      0.03s WALL (       6 calls)
     newd         :      0.05s CPU      0.06s WALL (       6 calls)
     mix_rho      :      0.00s CPU      0.00s WALL (       6 calls)

     Called by c_bands:
     init_us_2    :      0.09s CPU      0.10s WALL (     705 calls)
     cegterg      :      3.83s CPU      3.99s WALL (     282 calls)

     Called by sum_band:
     sum_band:bec :      0.00s CPU      0.00s WALL (     282 calls)
     addusdens    :      0.05s CPU      0.05s WALL (       6 calls)

     Called by *egterg:
     h_psi        :      2.94s CPU      3.07s WALL (    1018 calls)
     s_psi        :      0.09s CPU      0.09s WALL (    1018 calls)
     g_psi        :      0.01s CPU      0.01s WALL (     689 calls)
     cdiaghg      :      0.44s CPU      0.45s WALL (     924 calls)

     Called by h_psi:
     h_psi:pot    :      2.93s CPU      3.06s WALL (    1018 calls)
     h_psi:calbec :      0.13s CPU      0.14s WALL (    1018 calls)
     vloc_psi     :      2.70s CPU      2.81s WALL (    1018 calls)
     add_vuspsi   :      0.09s CPU      0.09s WALL (    1018 calls)

     General routines
     calbec       :      0.22s CPU      0.23s WALL (    1535 calls)
     fft          :      0.03s CPU      0.03s WALL (      93 calls)
     ffts         :      0.00s CPU      0.00s WALL (       6 calls)
     fftw         :      3.00s CPU      3.13s WALL (   25062 calls)

     Parallel routines
     fft_scatt_xy :      0.26s CPU      0.27s WALL (   25161 calls)
     fft_scatt_yz :      0.78s CPU      0.81s WALL (   25161 calls)

     PWSCF        :     6.47s CPU         6.78s WALL


   This run was terminated on:  22:56: 0   7Apr2024            

=------------------------------------------------------------------------------=
   JOB DONE.
=------------------------------------------------------------------------------=
