
     Program PWSCF v.6.3MaX starts on  7Apr2024 at 22:36:33 

     This program is part of the open-source Quantum ESPRESSO suite
     for quantum simulation of materials; please cite
         "P. Giannozzi et al., J. Phys.:Condens. Matter 21 395502 (2009);
         "P. Giannozzi et al., J. Phys.:Condens. Matter 29 465901 (2017);
          URL http://www.quantum-espresso.org", 
     in publications or presentations arising from this work. More details at
     http://www.quantum-espresso.org/quote

     Parallel version (MPI), running on     5 processors

     MPI processes distributed on     1 nodes
     R & G space division:  proc/nbgrp/npool/nimage =       5
     Waiting for input...
     Reading input from standard input

     Current dimensions of program PWSCF are:
     Max number of different atomic species (ntypx) = 10
     Max number of k-points (npk) =  40000
     Max angular momentum in pseudopotentials (lmaxx) =  3
               file Fr.pbe-spdn-kjpaw_psl.1.0.0.UPF: wavefunction(s)  6P renormalized

     Subspace diagonalization in iterative solution of the eigenvalue problem:
     a serial algorithm will be used


     Parallelization info
     --------------------
     sticks:   dense  smooth     PW     G-vecs:    dense   smooth      PW
     Min          62      62     21                  765      765     140
     Max          63      63     22                  770      770     141
     Sum         313     313    109                 3839     3839     701



     bravais-lattice index     =            2
     lattice parameter (alat)  =       6.8300  a.u.
     unit-cell volume          =      79.6530 (a.u.)^3
     number of atoms/cell      =            1
     number of atomic types    =            1
     number of electrons       =        19.00
     number of Kohn-Sham states=           14
     kinetic-energy cutoff     =      50.0000  Ry
     charge density cutoff     =     200.0000  Ry
     convergence threshold     =      1.0E-08
     mixing beta               =       0.7000
     number of iterations used =            8  plain     mixing
     Exchange-correlation      = SLA PW PBX PBC ( 1  4  3  4 0 0)

     celldm(1)=   6.830000  celldm(2)=   0.000000  celldm(3)=   0.000000
     celldm(4)=   0.000000  celldm(5)=   0.000000  celldm(6)=   0.000000

     crystal axes: (cart. coord. in units of alat)
               a(1) = (  -0.500000   0.000000   0.500000 )  
               a(2) = (   0.000000   0.500000   0.500000 )  
               a(3) = (  -0.500000   0.500000   0.000000 )  

     reciprocal axes: (cart. coord. in units 2 pi/alat)
               b(1) = ( -1.000000 -1.000000  1.000000 )  
               b(2) = (  1.000000  1.000000  1.000000 )  
               b(3) = ( -1.000000  1.000000 -1.000000 )  


     PseudoPot. # 1 for Fr read from file:
     /home/lorenzo/pseudos/Fr/Fr.pbe-spdn-kjpaw_psl.1.0.0.UPF
     MD5 check sum: 362a188b966a64328b94f1ef5f32e8c4
     Pseudo is Projector augmented-wave + core cor, Zval = 19.0
     Generated using "atomic" code by A. Dal Corso v.6.2.2
     Shape of augmentation charge: PSQ
     Using radial grid of 1287 points,  6 beta functions with: 
                l(1) =   0
                l(2) =   0
                l(3) =   1
                l(4) =   1
                l(5) =   2
                l(6) =   2
     Q(r) pseudized with 0 coefficients 


     atomic species   valence    mass     pseudopotential
        Fr            19.00   223.00000     Fr( 1.00)

     48 Sym. Ops., with inversion, found



   Cartesian axes

     site n.     atom                  positions (alat units)
         1           Fr  tau(   1) = (   0.0000000   0.0000000   0.0000000  )

     number of k points=     3  gaussian smearing, width (Ry)=  0.0100
                       cart. coord. in units 2pi/alat
        k(    1) = (   0.0000000   0.0000000   0.0000000), wk =   0.2500000
        k(    2) = (   0.5000000  -0.5000000   0.5000000), wk =   1.0000000
        k(    3) = (   0.0000000  -1.0000000   0.0000000), wk =   0.7500000

     Dense  grid:     3839 G-vectors     FFT dimensions: (  24,  24,  24)

     Estimated max dynamical RAM per process >       4.22 MB

     Estimated total dynamical RAM >      21.11 MB

     Check: negative/imaginary core charge=   -0.000008    0.000000

     Initial potential from superposition of free atoms

     starting charge   18.97009, renormalised to   19.00000
     Starting wfcs are   10 randomized atomic wfcs +    4 random wfcs
     Checking if some PAW data can be deallocated... 

     total cpu time spent up to now is        1.4 secs

     Self-consistent Calculation

     iteration #  1     ecut=    50.00 Ry     beta= 0.70
     Davidson diagonalization with overlap
     ethr =  1.00E-02,  avg # of iterations =  4.7

     Threshold (ethr) on eigenvalues was too large:
     Diagonalizing with lowered threshold

     Davidson diagonalization with overlap
     ethr =  5.10E-05,  avg # of iterations =  2.0

     total cpu time spent up to now is        1.6 secs

     total energy              =   -1069.57622188 Ry
     Harris-Foulkes estimate   =   -1069.58194242 Ry
     estimated scf accuracy    <       0.00970722 Ry

     iteration #  2     ecut=    50.00 Ry     beta= 0.70
     Davidson diagonalization with overlap
     ethr =  5.11E-05,  avg # of iterations =  2.3

     total cpu time spent up to now is        1.8 secs

     total energy              =   -1069.57761486 Ry
     Harris-Foulkes estimate   =   -1069.57769552 Ry
     estimated scf accuracy    <       0.00042930 Ry

     iteration #  3     ecut=    50.00 Ry     beta= 0.70
     Davidson diagonalization with overlap
     ethr =  2.26E-06,  avg # of iterations =  2.3

     total cpu time spent up to now is        1.9 secs

     total energy              =   -1069.57765048 Ry
     Harris-Foulkes estimate   =   -1069.57764650 Ry
     estimated scf accuracy    <       0.00001999 Ry

     iteration #  4     ecut=    50.00 Ry     beta= 0.70
     Davidson diagonalization with overlap
     ethr =  1.05E-07,  avg # of iterations =  2.3

     total cpu time spent up to now is        2.1 secs

     total energy              =   -1069.57765396 Ry
     Harris-Foulkes estimate   =   -1069.57765366 Ry
     estimated scf accuracy    <       0.00000035 Ry

     iteration #  5     ecut=    50.00 Ry     beta= 0.70
     Davidson diagonalization with overlap
     ethr =  1.83E-09,  avg # of iterations =  2.3

     total cpu time spent up to now is        2.2 secs

     End of self-consistent calculation

          k = 0.0000 0.0000 0.0000 (   531 PWs)   bands (ev):

    -9.0126  -9.0126  -9.0126  -8.6696  -8.6696   9.5162  47.3245  47.3245
    47.3245  48.3122  53.9159  53.9159  53.9159  57.7639

          k = 0.5000-0.5000 0.5000 (   476 PWs)   bands (ev):

    -9.0012  -8.9598  -8.9598  -8.3755  -8.3755  17.6351  23.2806  43.0696
    43.0696  48.0250  51.3219  51.8336  51.8336  65.5132

          k = 0.0000-1.0000 0.0000 (   468 PWs)   bands (ev):

    -9.3429  -9.0691  -8.3844  -8.3134  -8.3134  21.1856  24.9463  35.5897
    35.5897  42.7035  43.1617  64.3970  70.3709  71.3511

     the Fermi energy is    47.2831 ev

!    total energy              =   -1069.57765403 Ry
     Harris-Foulkes estimate   =   -1069.57765403 Ry
     estimated scf accuracy    <          5.8E-09 Ry

     total all-electron energy =    -48515.187965 Ry

     The total energy is the sum of the following terms:

     one-electron contribution =       1.72646914 Ry
     hartree contribution      =      28.39993835 Ry
     xc contribution           =     -64.62539904 Ry
     ewald contribution        =    -242.33311993 Ry
     one-center paw contrib.   =    -792.74361428 Ry
     smearing contrib. (-TS)   =      -0.00192828 Ry

     convergence has been achieved in   5 iterations

     Forces acting on atoms (cartesian axes, Ry/au):

     atom    1 type  1   force =     0.00000000    0.00000000    0.00000000

     Total force =     0.000000     Total SCF correction =     0.000000


     Computing stress (Cartesian axis) and pressure

          total   stress  (Ry/bohr**3)                   (kbar)     P= 7893.45
   0.05365858  -0.00000000   0.00000000       7893.45     -0.00      0.00
  -0.00000000   0.05365858   0.00000000         -0.00   7893.45      0.00
  -0.00000000   0.00000000   0.05365858         -0.00      0.00   7893.45


     Writing output data file Fr.save/

     init_run     :      0.31s CPU      0.33s WALL (       1 calls)
     electrons    :      0.78s CPU      0.87s WALL (       1 calls)
     forces       :      0.01s CPU      0.01s WALL (       1 calls)
     stress       :      0.04s CPU      0.04s WALL (       1 calls)

     Called by init_run:
     wfcinit      :      0.01s CPU      0.01s WALL (       1 calls)
     potinit      :      0.10s CPU      0.12s WALL (       1 calls)
     hinit0       :      0.17s CPU      0.17s WALL (       1 calls)

     Called by electrons:
     c_bands      :      0.17s CPU      0.18s WALL (       6 calls)
     sum_band     :      0.05s CPU      0.06s WALL (       6 calls)
     v_of_rho     :      0.02s CPU      0.02s WALL (       6 calls)
     newd         :      0.03s CPU      0.03s WALL (       6 calls)
     PAW_pot      :      0.61s CPU      0.70s WALL (       6 calls)
     mix_rho      :      0.00s CPU      0.00s WALL (       6 calls)

     Called by c_bands:
     init_us_2    :      0.00s CPU      0.00s WALL (      45 calls)
     cegterg      :      0.16s CPU      0.18s WALL (      18 calls)

     Called by sum_band:
     sum_band:bec :      0.00s CPU      0.00s WALL (      18 calls)
     addusdens    :      0.02s CPU      0.02s WALL (       6 calls)

     Called by *egterg:
     h_psi        :      0.12s CPU      0.12s WALL (      69 calls)
     s_psi        :      0.00s CPU      0.00s WALL (      69 calls)
     g_psi        :      0.00s CPU      0.00s WALL (      48 calls)
     cdiaghg      :      0.03s CPU      0.03s WALL (      63 calls)

     Called by h_psi:
     h_psi:pot    :      0.12s CPU      0.12s WALL (      69 calls)
     h_psi:calbec :      0.01s CPU      0.01s WALL (      69 calls)
     vloc_psi     :      0.11s CPU      0.11s WALL (      69 calls)
     add_vuspsi   :      0.00s CPU      0.00s WALL (      69 calls)

     General routines
     calbec       :      0.01s CPU      0.01s WALL (     102 calls)
     fft          :      0.01s CPU      0.01s WALL (      93 calls)
     ffts         :      0.00s CPU      0.00s WALL (       6 calls)
     fftw         :      0.12s CPU      0.12s WALL (    1586 calls)

     Parallel routines
     fft_scatt_xy :      0.01s CPU      0.01s WALL (    1685 calls)
     fft_scatt_yz :      0.04s CPU      0.04s WALL (    1685 calls)

     PWSCF        :     2.19s CPU         2.33s WALL


   This run was terminated on:  22:36:35   7Apr2024            

=------------------------------------------------------------------------------=
   JOB DONE.
=------------------------------------------------------------------------------=
