
     Program PWSCF v.6.3MaX starts on  7Apr2024 at 23: 1:59 

     This program is part of the open-source Quantum ESPRESSO suite
     for quantum simulation of materials; please cite
         "P. Giannozzi et al., J. Phys.:Condens. Matter 21 395502 (2009);
         "P. Giannozzi et al., J. Phys.:Condens. Matter 29 465901 (2017);
          URL http://www.quantum-espresso.org", 
     in publications or presentations arising from this work. More details at
     http://www.quantum-espresso.org/quote

     Parallel version (MPI), running on     5 processors

     MPI processes distributed on     1 nodes
     R & G space division:  proc/nbgrp/npool/nimage =       5
     Waiting for input...
     Reading input from standard input

     Current dimensions of program PWSCF are:
     Max number of different atomic species (ntypx) = 10
     Max number of k-points (npk) =  40000
     Max angular momentum in pseudopotentials (lmaxx) =  3

     Subspace diagonalization in iterative solution of the eigenvalue problem:
     a serial algorithm will be used


     Parallelization info
     --------------------
     sticks:   dense  smooth     PW     G-vecs:    dense   smooth      PW
     Min         116     116     37                 1850     1850     327
     Max         117     117     38                 1853     1853     329
     Sum         583     583    187                 9257     9257    1639



     bravais-lattice index     =            2
     lattice parameter (alat)  =       6.8300  a.u.
     unit-cell volume          =      79.6530 (a.u.)^3
     number of atoms/cell      =            1
     number of atomic types    =            1
     number of electrons       =        19.00
     number of Kohn-Sham states=           14
     kinetic-energy cutoff     =      90.0000  Ry
     charge density cutoff     =     360.0000  Ry
     convergence threshold     =      1.0E-08
     mixing beta               =       0.7000
     number of iterations used =            8  plain     mixing
     Exchange-correlation      = PBE ( 1  4  3  4 0 0)

     celldm(1)=   6.830000  celldm(2)=   0.000000  celldm(3)=   0.000000
     celldm(4)=   0.000000  celldm(5)=   0.000000  celldm(6)=   0.000000

     crystal axes: (cart. coord. in units of alat)
               a(1) = (  -0.500000   0.000000   0.500000 )  
               a(2) = (   0.000000   0.500000   0.500000 )  
               a(3) = (  -0.500000   0.500000   0.000000 )  

     reciprocal axes: (cart. coord. in units 2 pi/alat)
               b(1) = ( -1.000000 -1.000000  1.000000 )  
               b(2) = (  1.000000  1.000000  1.000000 )  
               b(3) = ( -1.000000  1.000000 -1.000000 )  


     PseudoPot. # 1 for Fr read from file:
     /home/lorenzo/pseudos/Fr/Fr.pbe-spdn-rrkjus_psl.1.0.0.UPF
     MD5 check sum: 07cabfa18982bd6b5b9d8ae5689d9732
     Pseudo is Ultrasoft + core correction, Zval = 19.0
     Generated using "atomic" code by A. Dal Corso v.6.2.2
     Using radial grid of 1287 points,  6 beta functions with: 
                l(1) =   0
                l(2) =   0
                l(3) =   1
                l(4) =   1
                l(5) =   2
                l(6) =   2
     Q(r) pseudized with 0 coefficients 


     atomic species   valence    mass     pseudopotential
        Fr            19.00   223.00000     Fr( 1.00)

     48 Sym. Ops., with inversion, found



   Cartesian axes

     site n.     atom                  positions (alat units)
         1           Fr  tau(   1) = (   0.0000000   0.0000000   0.0000000  )

     number of k points=    29  gaussian smearing, width (Ry)=  0.0100
                       cart. coord. in units 2pi/alat
        k(    1) = (   0.0000000   0.0000000   0.0000000), wk =   0.0039062
        k(    2) = (  -0.1250000   0.1250000  -0.1250000), wk =   0.0312500
        k(    3) = (  -0.2500000   0.2500000  -0.2500000), wk =   0.0312500
        k(    4) = (  -0.3750000   0.3750000  -0.3750000), wk =   0.0312500
        k(    5) = (   0.5000000  -0.5000000   0.5000000), wk =   0.0156250
        k(    6) = (   0.0000000   0.2500000   0.0000000), wk =   0.0234375
        k(    7) = (  -0.1250000   0.3750000  -0.1250000), wk =   0.0937500
        k(    8) = (  -0.2500000   0.5000000  -0.2500000), wk =   0.0937500
        k(    9) = (   0.6250000  -0.3750000   0.6250000), wk =   0.0937500
        k(   10) = (   0.5000000  -0.2500000   0.5000000), wk =   0.0937500
        k(   11) = (   0.3750000  -0.1250000   0.3750000), wk =   0.0937500
        k(   12) = (   0.2500000   0.0000000   0.2500000), wk =   0.0468750
        k(   13) = (   0.0000000   0.5000000   0.0000000), wk =   0.0234375
        k(   14) = (  -0.1250000   0.6250000  -0.1250000), wk =   0.0937500
        k(   15) = (   0.7500000  -0.2500000   0.7500000), wk =   0.0937500
        k(   16) = (   0.6250000  -0.1250000   0.6250000), wk =   0.0937500
        k(   17) = (   0.5000000   0.0000000   0.5000000), wk =   0.0468750
        k(   18) = (   0.0000000   0.7500000   0.0000000), wk =   0.0234375
        k(   19) = (   0.8750000  -0.1250000   0.8750000), wk =   0.0937500
        k(   20) = (   0.7500000   0.0000000   0.7500000), wk =   0.0468750
        k(   21) = (   0.0000000  -1.0000000   0.0000000), wk =   0.0117188
        k(   22) = (  -0.2500000   0.5000000   0.0000000), wk =   0.0937500
        k(   23) = (   0.6250000  -0.3750000   0.8750000), wk =   0.1875000
        k(   24) = (   0.5000000  -0.2500000   0.7500000), wk =   0.0937500
        k(   25) = (   0.7500000  -0.2500000   1.0000000), wk =   0.0937500
        k(   26) = (   0.6250000  -0.1250000   0.8750000), wk =   0.1875000
        k(   27) = (   0.5000000   0.0000000   0.7500000), wk =   0.0937500
        k(   28) = (  -0.2500000  -1.0000000   0.0000000), wk =   0.0468750
        k(   29) = (  -0.5000000  -1.0000000   0.0000000), wk =   0.0234375

     Dense  grid:     9257 G-vectors     FFT dimensions: (  30,  30,  30)

     Estimated max dynamical RAM per process >      10.00 MB

     Estimated total dynamical RAM >      50.02 MB

     Initial potential from superposition of free atoms

     starting charge   18.97009, renormalised to   19.00000
     Starting wfcs are   10 randomized atomic wfcs +    4 random wfcs

     total cpu time spent up to now is        1.3 secs

     Self-consistent Calculation

     iteration #  1     ecut=    90.00 Ry     beta= 0.70
     Davidson diagonalization with overlap
     ethr =  1.00E-02,  avg # of iterations =  4.8

     Threshold (ethr) on eigenvalues was too large:
     Diagonalizing with lowered threshold

     Davidson diagonalization with overlap
     ethr =  1.07E-04,  avg # of iterations =  1.7

     total cpu time spent up to now is        2.6 secs

     total energy              =    -282.84385040 Ry
     Harris-Foulkes estimate   =    -282.85657127 Ry
     estimated scf accuracy    <       0.02023088 Ry

     iteration #  2     ecut=    90.00 Ry     beta= 0.70
     Davidson diagonalization with overlap
     ethr =  1.06E-04,  avg # of iterations =  2.0

     total cpu time spent up to now is        3.1 secs

     total energy              =    -282.84691005 Ry
     Harris-Foulkes estimate   =    -282.84735561 Ry
     estimated scf accuracy    <       0.00067257 Ry

     iteration #  3     ecut=    90.00 Ry     beta= 0.70
     Davidson diagonalization with overlap
     ethr =  3.54E-06,  avg # of iterations =  2.5

     total cpu time spent up to now is        3.6 secs

     total energy              =    -282.84700798 Ry
     Harris-Foulkes estimate   =    -282.84702587 Ry
     estimated scf accuracy    <       0.00003946 Ry

     iteration #  4     ecut=    90.00 Ry     beta= 0.70
     Davidson diagonalization with overlap
     ethr =  2.08E-07,  avg # of iterations =  1.7

     total cpu time spent up to now is        4.1 secs

     total energy              =    -282.84701140 Ry
     Harris-Foulkes estimate   =    -282.84701143 Ry
     estimated scf accuracy    <       0.00000012 Ry

     iteration #  5     ecut=    90.00 Ry     beta= 0.70
     Davidson diagonalization with overlap
     ethr =  6.25E-10,  avg # of iterations =  2.7

     total cpu time spent up to now is        4.6 secs

     End of self-consistent calculation

          k = 0.0000 0.0000 0.0000 (  1139 PWs)   bands (ev):

    -9.3359  -9.3359  -9.3359  -8.9924  -8.9924   9.4597  47.2750  47.2750
    47.2750  48.3042  53.8591  53.8591  53.8591  57.8311

          k =-0.1250 0.1250-0.1250 (  1167 PWs)   bands (ev):

    -9.3304  -9.2905  -9.2905  -8.9892  -8.9892  10.0863  41.5349  46.3797
    46.3797  48.1950  55.3637  55.3637  55.7533  56.8259

          k =-0.2500 0.2500-0.2500 (  1152 PWs)   bands (ev):

    -9.3221  -9.2435  -9.2435  -8.9167  -8.9167  11.9666  33.8337  44.7901
    44.7901  48.2256  53.4249  54.0471  54.0471  58.7498

          k =-0.3750 0.3750-0.3750 (  1155 PWs)   bands (ev):

    -9.3206  -9.2644  -9.2644  -8.7726  -8.7726  14.9830  27.0989  43.5047
    43.5047  48.1511  51.7402  52.3316  52.3316  62.8491

          k = 0.5000-0.5000 0.5000 (  1158 PWs)   bands (ev):

    -9.3219  -9.2813  -9.2813  -8.7037  -8.7037  17.5388  23.2765  43.0140
    43.0140  48.0681  51.2209  51.7761  51.7761  65.4743

          k = 0.0000 0.2500 0.0000 (  1155 PWs)   bands (ev):

    -9.3841  -9.2389  -9.2389  -9.0422  -8.9514  10.2949  43.8469  43.8469
    44.3686  46.6711  51.9373  56.8527  57.6901  57.6901

          k =-0.1250 0.3750-0.1250 (  1151 PWs)   bands (ev):

    -9.3953  -9.1787  -9.1607  -9.0409  -8.8808  11.7583  36.6583  41.8974
    43.4028  47.5026  50.1161  56.5856  58.2294  58.5616

          k =-0.2500 0.5000-0.2500 (  1141 PWs)   bands (ev):

    -9.3643  -9.2122  -9.1658  -8.9160  -8.7523  14.4193  29.6292  40.9434
    41.1719  46.2959  54.0847  55.8538  55.8729  57.1342

          k = 0.6250-0.3750 0.6250 (  1149 PWs)   bands (ev):

    -9.3337  -9.2359  -9.1954  -8.7974  -8.6995  17.5808  24.4316  39.1860
    41.2076  46.1615  54.0254  54.1251  56.4932  60.9476

          k = 0.5000-0.2500 0.5000 (  1147 PWs)   bands (ev):

    -9.2949  -9.2570  -9.1985  -8.7894  -8.7569  16.6136  25.8269  38.1807
    42.7701  47.0831  52.8389  53.2281  57.9367  61.9498

          k = 0.3750-0.1250 0.3750 (  1147 PWs)   bands (ev):

    -9.2991  -9.2409  -9.1762  -8.9637  -8.8141  13.4085  31.8763  38.3537
    45.4004  49.0409  51.8063  53.1451  57.2811  58.8258

          k = 0.2500 0.0000 0.2500 (  1159 PWs)   bands (ev):

    -9.3321  -9.2304  -9.2289  -9.0309  -8.9170  11.1317  38.6936  40.1309
    47.6928  49.9283  52.2921  53.9354  54.4414  56.7271

          k = 0.0000 0.5000 0.0000 (  1174 PWs)   bands (ev):

    -9.4998  -9.1739  -8.9987  -8.9987  -8.8519  12.8025  38.0943  39.5129
    39.5129  44.6822  45.8466  62.0964  62.0964  62.8399

          k =-0.1250 0.6250-0.1250 (  1147 PWs)   bands (ev):

    -9.5064  -9.2288  -8.9549  -8.8917  -8.7424  15.0609  32.4200  36.8271
    38.2540  44.3708  47.8342  60.6730  61.3693  63.6745

          k = 0.7500-0.2500 0.7500 (  1150 PWs)   bands (ev):

    -9.4396  -9.1841  -8.9857  -8.8826  -8.6885  18.1485  27.1121  33.8666
    38.3569  44.3142  53.4575  58.5455  59.2292  63.9564

          k = 0.6250-0.1250 0.6250 (  1146 PWs)   bands (ev):

    -9.3687  -9.0943  -9.0093  -8.9130  -8.7876  18.9171  26.2021  32.0228
    39.8660  45.0975  57.2186  57.4555  59.7140  62.5177

          k = 0.5000 0.0000 0.5000 (  1135 PWs)   bands (ev):

    -9.2941  -9.1915  -9.0125  -8.9782  -8.8252  15.9717  30.4655  32.2495
    42.5541  46.7584  55.1566  56.5146  57.4348  59.3098

          k = 0.0000 0.7500 0.0000 (  1150 PWs)   bands (ev):

    -9.6145  -9.3197  -8.7516  -8.7497  -8.7497  16.9049  30.4301  36.5841
    36.5841  43.3693  43.4792  64.5097  66.8847  66.8847

          k = 0.8750-0.1250 0.8750 (  1146 PWs)   bands (ev):

    -9.5852  -9.3262  -8.7773  -8.7259  -8.6712  19.6224  27.1402  33.0305
    36.2941  43.2405  46.7307  62.7060  65.5143  69.3358

          k = 0.7500 0.0000 0.7500 (  1144 PWs)   bands (ev):

    -9.4736  -9.1882  -8.8508  -8.8334  -8.7392  20.8570  26.8723  29.1568
    37.4584  43.7922  52.9248  60.5572  62.7779  65.0528

          k = 0.0000-1.0000 0.0000 (  1162 PWs)   bands (ev):

    -9.6617  -9.3838  -8.7098  -8.6437  -8.6437  21.0778  24.9246  35.5576
    35.5576  42.7102  43.0872  64.3677  70.3501  71.3206

          k =-0.2500 0.5000 0.0000 (  1153 PWs)   bands (ev):

    -9.3955  -9.1948  -9.0592  -9.0091  -8.8003  13.6206  34.1501  36.1961
    41.8877  48.8920  48.9517  55.4153  59.0815  61.9273

          k = 0.6250-0.3750 0.8750 (  1146 PWs)   bands (ev):

    -9.3265  -9.2362  -9.0544  -8.8973  -8.7503  16.5451  28.5338  34.8037
    39.1828  48.2370  52.3303  55.2510  59.8235  62.5220

          k = 0.5000-0.2500 0.7500 (  1154 PWs)   bands (ev):

    -9.2948  -9.2489  -9.0248  -8.8926  -8.7242  18.8994  25.0516  34.7573
    37.9664  47.9970  52.1950  60.0500  60.4742  61.1889

          k = 0.7500-0.2500 1.0000 (  1142 PWs)   bands (ev):

    -9.4846  -9.2649  -8.9375  -8.7533  -8.7353  17.5924  29.8554  33.5629
    35.5068  47.3703  47.3740  58.1729  65.9921  66.0978

          k = 0.6250-0.1250 0.8750 (  1153 PWs)   bands (ev):

    -9.3791  -9.1965  -8.9903  -8.8454  -8.6907  20.2548  27.1695  30.6937
    34.8283  47.7137  53.2275  56.1490  61.4005  65.6717

          k = 0.5000 0.0000 0.7500 (  1153 PWs)   bands (ev):

    -9.3032  -9.1619  -9.0376  -8.8765  -8.7605  19.3260  28.5085  29.5989
    36.4025  48.8121  54.0631  56.3152  60.0143  63.3883

          k =-0.2500-1.0000 0.0000 (  1152 PWs)   bands (ev):

    -9.5221  -9.3119  -8.8031  -8.7761  -8.6437  21.2310  25.9065  32.6351
    33.4968  46.8561  46.8563  60.6619  64.3502  68.4264

          k =-0.5000-1.0000 0.0000 (  1144 PWs)   bands (ev):

    -9.2143  -9.1724  -9.1724  -8.8683  -8.6437  21.3992  28.6670  28.6670
    32.1267  53.3512  53.4726  53.4726  56.5048  70.1637

     the Fermi energy is    47.1507 ev

!    total energy              =    -282.84701145 Ry
     Harris-Foulkes estimate   =    -282.84701145 Ry
     estimated scf accuracy    <          6.6E-09 Ry

     The total energy is the sum of the following terms:

     one-electron contribution =      -4.05840458 Ry
     hartree contribution      =      28.12806679 Ry
     xc contribution           =     -64.58329261 Ry
     ewald contribution        =    -242.33311988 Ry
     smearing contrib. (-TS)   =      -0.00026117 Ry

     convergence has been achieved in   5 iterations

     Forces acting on atoms (cartesian axes, Ry/au):

     atom    1 type  1   force =     0.00000000    0.00000000    0.00000000

     Total force =     0.000000     Total SCF correction =     0.000000


     Computing stress (Cartesian axis) and pressure

          total   stress  (Ry/bohr**3)                   (kbar)     P= 7161.63
   0.04868375   0.00000000  -0.00000000       7161.63      0.00     -0.00
   0.00000000   0.04868375  -0.00000000          0.00   7161.63     -0.00
   0.00000000  -0.00000000   0.04868375          0.00     -0.00   7161.63


     Writing output data file Fr.save/

     init_run     :      0.39s CPU      0.41s WALL (       1 calls)
     electrons    :      3.20s CPU      3.32s WALL (       1 calls)
     forces       :      0.08s CPU      0.08s WALL (       1 calls)
     stress       :      0.20s CPU      0.20s WALL (       1 calls)

     Called by init_run:
     wfcinit      :      0.16s CPU      0.17s WALL (       1 calls)
     potinit      :      0.02s CPU      0.02s WALL (       1 calls)
     hinit0       :      0.19s CPU      0.19s WALL (       1 calls)

     Called by electrons:
     c_bands      :      2.70s CPU      2.79s WALL (       6 calls)
     sum_band     :      0.43s CPU      0.45s WALL (       6 calls)
     v_of_rho     :      0.03s CPU      0.03s WALL (       6 calls)
     newd         :      0.05s CPU      0.06s WALL (       6 calls)
     mix_rho      :      0.00s CPU      0.00s WALL (       6 calls)

     Called by c_bands:
     init_us_2    :      0.07s CPU      0.07s WALL (     435 calls)
     cegterg      :      2.60s CPU      2.70s WALL (     174 calls)

     Called by sum_band:
     sum_band:bec :      0.00s CPU      0.00s WALL (     174 calls)
     addusdens    :      0.06s CPU      0.06s WALL (       6 calls)

     Called by *egterg:
     h_psi        :      1.97s CPU      2.04s WALL (     648 calls)
     s_psi        :      0.06s CPU      0.06s WALL (     648 calls)
     g_psi        :      0.01s CPU      0.01s WALL (     445 calls)
     cdiaghg      :      0.30s CPU      0.30s WALL (     590 calls)

     Called by h_psi:
     h_psi:pot    :      1.96s CPU      2.03s WALL (     648 calls)
     h_psi:calbec :      0.10s CPU      0.10s WALL (     648 calls)
     vloc_psi     :      1.79s CPU      1.86s WALL (     648 calls)
     add_vuspsi   :      0.06s CPU      0.06s WALL (     648 calls)

     General routines
     calbec       :      0.16s CPU      0.16s WALL (     967 calls)
     fft          :      0.03s CPU      0.03s WALL (      93 calls)
     ffts         :      0.00s CPU      0.00s WALL (       6 calls)
     fftw         :      1.96s CPU      2.03s WALL (   15462 calls)

     Parallel routines
     fft_scatt_xy :      0.16s CPU      0.17s WALL (   15561 calls)
     fft_scatt_yz :      0.57s CPU      0.59s WALL (   15561 calls)

     PWSCF        :     4.80s CPU         4.99s WALL


   This run was terminated on:  23: 2: 4   7Apr2024            

=------------------------------------------------------------------------------=
   JOB DONE.
=------------------------------------------------------------------------------=
