
     Program PWSCF v.6.3MaX starts on  7Apr2024 at 22:25:35 

     This program is part of the open-source Quantum ESPRESSO suite
     for quantum simulation of materials; please cite
         "P. Giannozzi et al., J. Phys.:Condens. Matter 21 395502 (2009);
         "P. Giannozzi et al., J. Phys.:Condens. Matter 29 465901 (2017);
          URL http://www.quantum-espresso.org", 
     in publications or presentations arising from this work. More details at
     http://www.quantum-espresso.org/quote

     Parallel version (MPI), running on     5 processors

     MPI processes distributed on     1 nodes
     R & G space division:  proc/nbgrp/npool/nimage =       5
     Waiting for input...
     Reading input from standard input

     Current dimensions of program PWSCF are:
     Max number of different atomic species (ntypx) = 10
     Max number of k-points (npk) =  40000
     Max angular momentum in pseudopotentials (lmaxx) =  3

     Subspace diagonalization in iterative solution of the eigenvalue problem:
     a serial algorithm will be used


     Parallelization info
     --------------------
     sticks:   dense  smooth     PW     G-vecs:    dense   smooth      PW
     Min          32      32     11                  271      271      56
     Max          33      33     11                  273      273      58
     Sum         163     163     55                 1363     1363     283



     bravais-lattice index     =            2
     lattice parameter (alat)  =       6.8300  a.u.
     unit-cell volume          =      79.6530 (a.u.)^3
     number of atoms/cell      =            1
     number of atomic types    =            1
     number of electrons       =        19.00
     number of Kohn-Sham states=           14
     kinetic-energy cutoff     =      25.0000  Ry
     charge density cutoff     =     100.0000  Ry
     convergence threshold     =      1.0E-08
     mixing beta               =       0.7000
     number of iterations used =            8  plain     mixing
     Exchange-correlation      = PBE ( 1  4  3  4 0 0)

     celldm(1)=   6.830000  celldm(2)=   0.000000  celldm(3)=   0.000000
     celldm(4)=   0.000000  celldm(5)=   0.000000  celldm(6)=   0.000000

     crystal axes: (cart. coord. in units of alat)
               a(1) = (  -0.500000   0.000000   0.500000 )  
               a(2) = (   0.000000   0.500000   0.500000 )  
               a(3) = (  -0.500000   0.500000   0.000000 )  

     reciprocal axes: (cart. coord. in units 2 pi/alat)
               b(1) = ( -1.000000 -1.000000  1.000000 )  
               b(2) = (  1.000000  1.000000  1.000000 )  
               b(3) = ( -1.000000  1.000000 -1.000000 )  


     PseudoPot. # 1 for Fr read from file:
     /home/lorenzo/pseudos/Fr/Fr.pbe-spdn-rrkjus_psl.1.0.0.UPF
     MD5 check sum: 07cabfa18982bd6b5b9d8ae5689d9732
     Pseudo is Ultrasoft + core correction, Zval = 19.0
     Generated using "atomic" code by A. Dal Corso v.6.2.2
     Using radial grid of 1287 points,  6 beta functions with: 
                l(1) =   0
                l(2) =   0
                l(3) =   1
                l(4) =   1
                l(5) =   2
                l(6) =   2
     Q(r) pseudized with 0 coefficients 


     atomic species   valence    mass     pseudopotential
        Fr            19.00   223.00000     Fr( 1.00)

     48 Sym. Ops., with inversion, found



   Cartesian axes

     site n.     atom                  positions (alat units)
         1           Fr  tau(   1) = (   0.0000000   0.0000000   0.0000000  )

     number of k points=     4  gaussian smearing, width (Ry)=  0.0100
                       cart. coord. in units 2pi/alat
        k(    1) = (   0.0000000   0.0000000   0.0000000), wk =   0.0740741
        k(    2) = (  -0.3333333   0.3333333  -0.3333333), wk =   0.5925926
        k(    3) = (   0.0000000   0.6666667   0.0000000), wk =   0.4444444
        k(    4) = (   0.6666667  -0.0000000   0.6666667), wk =   0.8888889

     Dense  grid:     1363 G-vectors     FFT dimensions: (  15,  15,  15)

     Estimated max dynamical RAM per process >       1.92 MB

     Estimated total dynamical RAM >       9.58 MB

     Check: negative/imaginary core charge=   -0.000045    0.000000

     Initial potential from superposition of free atoms

     starting charge   18.97009, renormalised to   19.00000
     Starting wfcs are   10 randomized atomic wfcs +    4 random wfcs

     total cpu time spent up to now is        1.0 secs

     Self-consistent Calculation

     iteration #  1     ecut=    25.00 Ry     beta= 0.70
     Davidson diagonalization with overlap
     ethr =  1.00E-02,  avg # of iterations =  5.2

     total cpu time spent up to now is        1.1 secs

     total energy              =    -278.29282609 Ry
     Harris-Foulkes estimate   =    -278.83568803 Ry
     estimated scf accuracy    <       0.73809705 Ry

     iteration #  2     ecut=    25.00 Ry     beta= 0.70
     Davidson diagonalization with overlap
     ethr =  3.88E-03,  avg # of iterations =  2.0

     total cpu time spent up to now is        1.1 secs

     total energy              =    -278.43954863 Ry
     Harris-Foulkes estimate   =    -278.47326596 Ry
     estimated scf accuracy    <       0.06027947 Ry

     iteration #  3     ecut=    25.00 Ry     beta= 0.70
     Davidson diagonalization with overlap
     ethr =  3.17E-04,  avg # of iterations =  2.2

     total cpu time spent up to now is        1.1 secs

     total energy              =    -278.45232521 Ry
     Harris-Foulkes estimate   =    -278.45409847 Ry
     estimated scf accuracy    <       0.00399113 Ry

     iteration #  4     ecut=    25.00 Ry     beta= 0.70
     Davidson diagonalization with overlap
     ethr =  2.10E-05,  avg # of iterations =  2.2

     total cpu time spent up to now is        1.2 secs

     total energy              =    -278.45292055 Ry
     Harris-Foulkes estimate   =    -278.45289785 Ry
     estimated scf accuracy    <       0.00005519 Ry

     iteration #  5     ecut=    25.00 Ry     beta= 0.70
     Davidson diagonalization with overlap
     ethr =  2.90E-07,  avg # of iterations =  2.0

     total cpu time spent up to now is        1.2 secs

     total energy              =    -278.45292446 Ry
     Harris-Foulkes estimate   =    -278.45292470 Ry
     estimated scf accuracy    <       0.00000071 Ry

     iteration #  6     ecut=    25.00 Ry     beta= 0.70
     Davidson diagonalization with overlap
     ethr =  3.73E-09,  avg # of iterations =  2.2

     total cpu time spent up to now is        1.2 secs

     total energy              =    -278.45292458 Ry
     Harris-Foulkes estimate   =    -278.45292460 Ry
     estimated scf accuracy    <       0.00000006 Ry

     iteration #  7     ecut=    25.00 Ry     beta= 0.70
     Davidson diagonalization with overlap
     ethr =  3.12E-10,  avg # of iterations =  2.2

     total cpu time spent up to now is        1.2 secs

     End of self-consistent calculation

          k = 0.0000 0.0000 0.0000 (   169 PWs)   bands (ev):

    -8.9653  -8.9653  -8.5591  -8.5591  -8.5591   9.1456  46.5976  46.5976
    46.5976  48.7951  57.2230  57.2230  57.2230  57.3893

          k =-0.3333 0.3333-0.3333 (   165 PWs)   bands (ev):

    -8.1469  -8.1469  -7.4204  -7.4204  -7.3553  13.4985  29.1801  43.4243
    43.4243  49.0776  53.2115  55.5077  55.5077  62.9038

          k = 0.0000 0.6667 0.0000 (   170 PWs)   bands (ev):

    -8.6836  -8.2108  -8.0680  -7.7046  -7.7046  14.9409  32.3908  37.2456
    37.2456  45.5762  46.4436  65.6307  65.6307  65.9054

          k = 0.6667-0.0000 0.6667 (   172 PWs)   bands (ev):

    -8.5423  -8.2925  -8.0642  -8.0614  -8.0231  19.0360  28.4637  28.5106
    38.7257  46.3622  58.3880  60.5279  60.8209  63.6356

     the Fermi energy is    46.4094 ev

!    total energy              =    -278.45292459 Ry
     Harris-Foulkes estimate   =    -278.45292459 Ry
     estimated scf accuracy    <          3.0E-10 Ry

     The total energy is the sum of the following terms:

     one-electron contribution =       2.48286348 Ry
     hartree contribution      =      24.75035842 Ry
     xc contribution           =     -63.34953375 Ry
     ewald contribution        =    -242.33311992 Ry
     smearing contrib. (-TS)   =      -0.00349282 Ry

     convergence has been achieved in   7 iterations

     Forces acting on atoms (cartesian axes, Ry/au):

     atom    1 type  1   force =     0.00000000    0.00000000    0.00000000

     Total force =     0.000000     Total SCF correction =     0.000000


     Computing stress (Cartesian axis) and pressure

          total   stress  (Ry/bohr**3)                   (kbar)     P=********
  -0.10419978   0.00000000  -0.00000000     -15328.31      0.00     -0.00
   0.00000000  -0.10419978  -0.00000000          0.00 -15328.31     -0.00
  -0.00000000  -0.00000000  -0.10419978         -0.00     -0.00 -15328.31


     Writing output data file Fr.save/

     init_run     :      0.10s CPU      0.11s WALL (       1 calls)
     electrons    :      0.19s CPU      0.21s WALL (       1 calls)
     forces       :      0.01s CPU      0.01s WALL (       1 calls)
     stress       :      0.02s CPU      0.02s WALL (       1 calls)

     Called by init_run:
     wfcinit      :      0.01s CPU      0.01s WALL (       1 calls)
     potinit      :      0.00s CPU      0.00s WALL (       1 calls)
     hinit0       :      0.09s CPU      0.09s WALL (       1 calls)

     Called by electrons:
     c_bands      :      0.15s CPU      0.16s WALL (       7 calls)
     sum_band     :      0.02s CPU      0.03s WALL (       7 calls)
     v_of_rho     :      0.01s CPU      0.01s WALL (       8 calls)
     newd         :      0.01s CPU      0.01s WALL (       8 calls)
     mix_rho      :      0.00s CPU      0.00s WALL (       7 calls)

     Called by c_bands:
     init_us_2    :      0.00s CPU      0.00s WALL (      68 calls)
     cegterg      :      0.14s CPU      0.16s WALL (      28 calls)

     Called by sum_band:
     sum_band:bec :      0.00s CPU      0.00s WALL (      28 calls)
     addusdens    :      0.01s CPU      0.01s WALL (       7 calls)

     Called by *egterg:
     h_psi        :      0.07s CPU      0.08s WALL (     105 calls)
     s_psi        :      0.00s CPU      0.00s WALL (     105 calls)
     g_psi        :      0.00s CPU      0.00s WALL (      73 calls)
     cdiaghg      :      0.06s CPU      0.06s WALL (     101 calls)

     Called by h_psi:
     h_psi:pot    :      0.07s CPU      0.08s WALL (     105 calls)
     h_psi:calbec :      0.00s CPU      0.00s WALL (     105 calls)
     vloc_psi     :      0.06s CPU      0.07s WALL (     105 calls)
     add_vuspsi   :      0.00s CPU      0.00s WALL (     105 calls)

     General routines
     calbec       :      0.01s CPU      0.01s WALL (     153 calls)
     fft          :      0.00s CPU      0.00s WALL (     114 calls)
     ffts         :      0.00s CPU      0.00s WALL (       7 calls)
     fftw         :      0.06s CPU      0.07s WALL (    2524 calls)

     Parallel routines
     fft_scatt_xy :      0.01s CPU      0.01s WALL (    2645 calls)
     fft_scatt_yz :      0.03s CPU      0.03s WALL (    2645 calls)

     PWSCF        :     1.23s CPU         1.29s WALL


   This run was terminated on:  22:25:37   7Apr2024            

=------------------------------------------------------------------------------=
   JOB DONE.
=------------------------------------------------------------------------------=
