
     Program PWSCF v.6.3MaX starts on  7Apr2024 at 22:34:40 

     This program is part of the open-source Quantum ESPRESSO suite
     for quantum simulation of materials; please cite
         "P. Giannozzi et al., J. Phys.:Condens. Matter 21 395502 (2009);
         "P. Giannozzi et al., J. Phys.:Condens. Matter 29 465901 (2017);
          URL http://www.quantum-espresso.org", 
     in publications or presentations arising from this work. More details at
     http://www.quantum-espresso.org/quote

     Parallel version (MPI), running on     5 processors

     MPI processes distributed on     1 nodes
     R & G space division:  proc/nbgrp/npool/nimage =       5
     Waiting for input...
     Reading input from standard input

     Current dimensions of program PWSCF are:
     Max number of different atomic species (ntypx) = 10
     Max number of k-points (npk) =  40000
     Max angular momentum in pseudopotentials (lmaxx) =  3
               file Fr.pbe-spdn-kjpaw_psl.1.0.0.UPF: wavefunction(s)  6P renormalized

     Subspace diagonalization in iterative solution of the eigenvalue problem:
     a serial algorithm will be used


     Parallelization info
     --------------------
     sticks:   dense  smooth     PW     G-vecs:    dense   smooth      PW
     Min          59      59     19                  657      657     128
     Max          59      59     20                  658      658     130
     Sum         295     295     97                 3287     3287     645



     bravais-lattice index     =            2
     lattice parameter (alat)  =       6.8300  a.u.
     unit-cell volume          =      79.6530 (a.u.)^3
     number of atoms/cell      =            1
     number of atomic types    =            1
     number of electrons       =        19.00
     number of Kohn-Sham states=           14
     kinetic-energy cutoff     =      45.0000  Ry
     charge density cutoff     =     180.0000  Ry
     convergence threshold     =      1.0E-08
     mixing beta               =       0.7000
     number of iterations used =            8  plain     mixing
     Exchange-correlation      = SLA PW PBX PBC ( 1  4  3  4 0 0)

     celldm(1)=   6.830000  celldm(2)=   0.000000  celldm(3)=   0.000000
     celldm(4)=   0.000000  celldm(5)=   0.000000  celldm(6)=   0.000000

     crystal axes: (cart. coord. in units of alat)
               a(1) = (  -0.500000   0.000000   0.500000 )  
               a(2) = (   0.000000   0.500000   0.500000 )  
               a(3) = (  -0.500000   0.500000   0.000000 )  

     reciprocal axes: (cart. coord. in units 2 pi/alat)
               b(1) = ( -1.000000 -1.000000  1.000000 )  
               b(2) = (  1.000000  1.000000  1.000000 )  
               b(3) = ( -1.000000  1.000000 -1.000000 )  


     PseudoPot. # 1 for Fr read from file:
     /home/lorenzo/pseudos/Fr/Fr.pbe-spdn-kjpaw_psl.1.0.0.UPF
     MD5 check sum: 362a188b966a64328b94f1ef5f32e8c4
     Pseudo is Projector augmented-wave + core cor, Zval = 19.0
     Generated using "atomic" code by A. Dal Corso v.6.2.2
     Shape of augmentation charge: PSQ
     Using radial grid of 1287 points,  6 beta functions with: 
                l(1) =   0
                l(2) =   0
                l(3) =   1
                l(4) =   1
                l(5) =   2
                l(6) =   2
     Q(r) pseudized with 0 coefficients 


     atomic species   valence    mass     pseudopotential
        Fr            19.00   223.00000     Fr( 1.00)

     48 Sym. Ops., with inversion, found



   Cartesian axes

     site n.     atom                  positions (alat units)
         1           Fr  tau(   1) = (   0.0000000   0.0000000   0.0000000  )

     number of k points=    16  gaussian smearing, width (Ry)=  0.0100
                       cart. coord. in units 2pi/alat
        k(    1) = (   0.0000000   0.0000000   0.0000000), wk =   0.0092593
        k(    2) = (  -0.1666667   0.1666667  -0.1666667), wk =   0.0740741
        k(    3) = (  -0.3333333   0.3333333  -0.3333333), wk =   0.0740741
        k(    4) = (   0.5000000  -0.5000000   0.5000000), wk =   0.0370370
        k(    5) = (   0.0000000   0.3333333   0.0000000), wk =   0.0555556
        k(    6) = (  -0.1666667   0.5000000  -0.1666667), wk =   0.2222222
        k(    7) = (   0.6666667  -0.3333333   0.6666667), wk =   0.2222222
        k(    8) = (   0.5000000  -0.1666667   0.5000000), wk =   0.2222222
        k(    9) = (   0.3333333   0.0000000   0.3333333), wk =   0.1111111
        k(   10) = (   0.0000000   0.6666667   0.0000000), wk =   0.0555556
        k(   11) = (   0.8333333  -0.1666667   0.8333333), wk =   0.2222222
        k(   12) = (   0.6666667  -0.0000000   0.6666667), wk =   0.1111111
        k(   13) = (   0.0000000  -1.0000000   0.0000000), wk =   0.0277778
        k(   14) = (   0.6666667  -0.3333333   1.0000000), wk =   0.2222222
        k(   15) = (   0.5000000  -0.1666667   0.8333333), wk =   0.2222222
        k(   16) = (  -0.3333333  -1.0000000   0.0000000), wk =   0.1111111

     Dense  grid:     3287 G-vectors     FFT dimensions: (  24,  24,  24)

     Estimated max dynamical RAM per process >       3.97 MB

     Estimated total dynamical RAM >      19.87 MB

     Check: negative/imaginary core charge=   -0.000013    0.000000

     Initial potential from superposition of free atoms

     starting charge   18.97009, renormalised to   19.00000
     Starting wfcs are   10 randomized atomic wfcs +    4 random wfcs
     Checking if some PAW data can be deallocated... 

     total cpu time spent up to now is        1.4 secs

     Self-consistent Calculation

     iteration #  1     ecut=    45.00 Ry     beta= 0.70
     Davidson diagonalization with overlap
     ethr =  1.00E-02,  avg # of iterations =  4.3

     Threshold (ethr) on eigenvalues was too large:
     Diagonalizing with lowered threshold

     Davidson diagonalization with overlap
     ethr =  1.16E-04,  avg # of iterations =  2.1

     total cpu time spent up to now is        1.8 secs

     total energy              =   -1069.93027843 Ry
     Harris-Foulkes estimate   =   -1069.94462899 Ry
     estimated scf accuracy    <       0.02200123 Ry

     iteration #  2     ecut=    45.00 Ry     beta= 0.70
     Davidson diagonalization with overlap
     ethr =  1.16E-04,  avg # of iterations =  2.0

     total cpu time spent up to now is        2.1 secs

     total energy              =   -1069.93499967 Ry
     Harris-Foulkes estimate   =   -1069.93545667 Ry
     estimated scf accuracy    <       0.00094677 Ry

     iteration #  3     ecut=    45.00 Ry     beta= 0.70
     Davidson diagonalization with overlap
     ethr =  4.98E-06,  avg # of iterations =  2.3

     total cpu time spent up to now is        2.4 secs

     total energy              =   -1069.93514465 Ry
     Harris-Foulkes estimate   =   -1069.93513913 Ry
     estimated scf accuracy    <       0.00002272 Ry

     iteration #  4     ecut=    45.00 Ry     beta= 0.70
     Davidson diagonalization with overlap
     ethr =  1.20E-07,  avg # of iterations =  2.0

     total cpu time spent up to now is        2.7 secs

     total energy              =   -1069.93515007 Ry
     Harris-Foulkes estimate   =   -1069.93514945 Ry
     estimated scf accuracy    <       0.00000026 Ry

     iteration #  5     ecut=    45.00 Ry     beta= 0.70
     Davidson diagonalization with overlap
     ethr =  1.37E-09,  avg # of iterations =  2.2

     total cpu time spent up to now is        2.9 secs

     total energy              =   -1069.93515022 Ry
     Harris-Foulkes estimate   =   -1069.93515017 Ry
     estimated scf accuracy    <       0.00000004 Ry

     iteration #  6     ecut=    45.00 Ry     beta= 0.70
     Davidson diagonalization with overlap
     ethr =  2.12E-10,  avg # of iterations =  1.9

     total cpu time spent up to now is        3.2 secs

     End of self-consistent calculation

          k = 0.0000 0.0000 0.0000 (   411 PWs)   bands (ev):

    -9.2803  -9.2803  -9.2803  -8.9516  -8.9516   9.4701  47.2619  47.2619
    47.2619  48.3255  54.0532  54.0532  54.0532  57.7980

          k =-0.1667 0.1667-0.1667 (   396 PWs)   bands (ev):

    -9.2669  -9.2013  -9.2013  -8.9077  -8.9077  10.5848  38.9395  45.8739
    45.8739  48.2472  55.0636  55.9051  55.9051  56.5292

          k =-0.3333 0.3333-0.3333 (   401 PWs)   bands (ev):

    -9.2698  -9.1857  -9.1857  -8.7645  -8.7645  13.8886  29.1895  43.8719
    43.8719  48.2129  52.2248  52.9285  52.9285  61.5612

          k = 0.5000-0.5000 0.5000 (   410 PWs)   bands (ev):

    -9.2588  -9.2282  -9.2282  -8.6668  -8.6668  17.5586  23.2746  43.0128
    43.0128  48.0653  51.3449  51.9263  51.9263  65.4791

          k = 0.0000 0.3333 0.0000 (   399 PWs)   bands (ev):

    -9.3576  -9.0975  -9.0975  -9.0210  -8.8681  10.9556  42.3254  42.3254
    42.5849  46.0323  49.4787  58.7588  59.3648  59.3648

          k =-0.1667 0.5000-0.1667 (   405 PWs)   bands (ev):

    -9.3599  -9.1245  -9.0342  -8.9318  -8.7324  13.5411  32.8804  40.1950
    40.5093  45.8477  50.7514  58.1912  58.2798  59.1149

          k = 0.6667-0.3333 0.6667 (   409 PWs)   bands (ev):

    -9.3049  -9.1488  -9.0715  -8.8044  -8.6562  17.6956  25.2374  37.3340
    40.2446  45.5221  55.6049  55.6519  58.5090  59.0630

          k = 0.5000-0.1667 0.5000 (   404 PWs)   bands (ev):

    -9.2295  -9.1716  -9.0787  -8.8028  -8.7394  16.2834  27.4163  35.9107
    42.6720  46.9561  53.8424  54.3996  60.3223  60.6466

          k = 0.3333 0.0000 0.3333 (   397 PWs)   bands (ev):

    -9.2404  -9.1641  -9.0785  -8.9766  -8.8073  12.4372  35.5065  37.3317
    46.5772  50.2003  51.3837  54.0600  55.1340  57.4733

          k = 0.0000 0.6667 0.0000 (   419 PWs)   bands (ev):

    -9.5203  -9.2325  -8.7808  -8.7808  -8.7406  15.3866  32.9615  37.3687
    37.3687  43.9149  43.9718  64.6803  65.1702  65.1702

          k = 0.8333-0.1667 0.8333 (   411 PWs)   bands (ev):

    -9.4700  -9.2283  -8.7952  -8.7330  -8.6368  19.0488  27.9059  32.3628
    36.8525  43.6144  48.9137  61.5384  63.3661  68.7934

          k = 0.6667-0.0000 0.6667 (   403 PWs)   bands (ev):

    -9.3417  -8.9831  -8.9210  -8.8543  -8.7560  19.8144  28.3246  28.3415
    38.8755  44.6071  57.5020  59.0805  60.0549  62.7469

          k = 0.0000-1.0000 0.0000 (   412 PWs)   bands (ev):

    -9.6049  -9.3332  -8.6473  -8.5915  -8.5915  21.0931  24.9292  35.5562
    35.5562  42.7581  43.2162  64.3896  70.3555  71.3183

          k = 0.6667-0.3333 1.0000 (   407 PWs)   bands (ev):

    -9.3107  -9.1807  -8.9762  -8.7879  -8.7254  16.7077  30.4794  32.8825
    37.5770  49.5878  49.9910  54.9446  62.6922  65.1302

          k = 0.5000-0.1667 0.8333 (   406 PWs)   bands (ev):

    -9.2337  -9.1526  -8.9474  -8.8663  -8.6659  19.8978  26.3403  31.8352
    35.4927  49.4434  52.7791  58.4765  58.5396  64.2723

          k =-0.3333-1.0000 0.0000 (   406 PWs)   bands (ev):

    -9.3580  -9.2148  -8.8603  -8.7611  -8.5961  21.3266  26.6579  31.2594
    32.7811  49.0379  49.2433  58.3751  61.3112  68.7487

     the Fermi energy is    46.8460 ev

!    total energy              =   -1069.93515022 Ry
     Harris-Foulkes estimate   =   -1069.93515022 Ry
     estimated scf accuracy    <          6.8E-11 Ry

     total all-electron energy =    -48515.545461 Ry

     The total energy is the sum of the following terms:

     one-electron contribution =       1.54106211 Ry
     hartree contribution      =      28.12615031 Ry
     xc contribution           =     -64.56818325 Ry
     ewald contribution        =    -242.33311996 Ry
     one-center paw contrib.   =    -792.70072730 Ry
     smearing contrib. (-TS)   =      -0.00033214 Ry

     convergence has been achieved in   6 iterations

     Forces acting on atoms (cartesian axes, Ry/au):

     atom    1 type  1   force =     0.00000000    0.00000000    0.00000000

     Total force =     0.000000     Total SCF correction =     0.000000


     Computing stress (Cartesian axis) and pressure

          total   stress  (Ry/bohr**3)                   (kbar)     P= 6570.21
   0.04466337  -0.00000000   0.00000000       6570.21     -0.00      0.00
  -0.00000000   0.04466337   0.00000000         -0.00   6570.21      0.00
   0.00000000  -0.00000000   0.04466337          0.00     -0.00   6570.21


     Writing output data file Fr.save/

     init_run     :      0.29s CPU      0.32s WALL (       1 calls)
     electrons    :      1.67s CPU      1.85s WALL (       1 calls)
     forces       :      0.02s CPU      0.02s WALL (       1 calls)
     stress       :      0.06s CPU      0.07s WALL (       1 calls)

     Called by init_run:
     wfcinit      :      0.03s CPU      0.04s WALL (       1 calls)
     potinit      :      0.11s CPU      0.14s WALL (       1 calls)
     hinit0       :      0.12s CPU      0.12s WALL (       1 calls)

     Called by electrons:
     c_bands      :      0.86s CPU      0.94s WALL (       7 calls)
     sum_band     :      0.16s CPU      0.17s WALL (       7 calls)
     v_of_rho     :      0.02s CPU      0.02s WALL (       7 calls)
     newd         :      0.02s CPU      0.02s WALL (       7 calls)
     PAW_pot      :      0.71s CPU      0.81s WALL (       7 calls)
     mix_rho      :      0.00s CPU      0.00s WALL (       7 calls)

     Called by c_bands:
     init_us_2    :      0.02s CPU      0.02s WALL (     272 calls)
     cegterg      :      0.84s CPU      0.91s WALL (     112 calls)

     Called by sum_band:
     sum_band:bec :      0.00s CPU      0.00s WALL (     112 calls)
     addusdens    :      0.02s CPU      0.02s WALL (       7 calls)

     Called by *egterg:
     h_psi        :      0.59s CPU      0.64s WALL (     398 calls)
     s_psi        :      0.01s CPU      0.02s WALL (     398 calls)
     g_psi        :      0.00s CPU      0.00s WALL (     270 calls)
     cdiaghg      :      0.15s CPU      0.16s WALL (     366 calls)

     Called by h_psi:
     h_psi:pot    :      0.58s CPU      0.64s WALL (     398 calls)
     h_psi:calbec :      0.02s CPU      0.03s WALL (     398 calls)
     vloc_psi     :      0.54s CPU      0.59s WALL (     398 calls)
     add_vuspsi   :      0.01s CPU      0.02s WALL (     398 calls)

     General routines
     calbec       :      0.04s CPU      0.05s WALL (     590 calls)
     fft          :      0.01s CPU      0.01s WALL (     104 calls)
     ffts         :      0.00s CPU      0.00s WALL (       7 calls)
     fftw         :      0.60s CPU      0.66s WALL (    9684 calls)

     Parallel routines
     fft_scatt_xy :      0.05s CPU      0.06s WALL (    9795 calls)
     fft_scatt_yz :      0.21s CPU      0.22s WALL (    9795 calls)

     PWSCF        :     3.11s CPU         3.36s WALL


   This run was terminated on:  22:34:43   7Apr2024            

=------------------------------------------------------------------------------=
   JOB DONE.
=------------------------------------------------------------------------------=
