
     Program PWSCF v.6.3MaX starts on  7Apr2024 at 22:52:58 

     This program is part of the open-source Quantum ESPRESSO suite
     for quantum simulation of materials; please cite
         "P. Giannozzi et al., J. Phys.:Condens. Matter 21 395502 (2009);
         "P. Giannozzi et al., J. Phys.:Condens. Matter 29 465901 (2017);
          URL http://www.quantum-espresso.org", 
     in publications or presentations arising from this work. More details at
     http://www.quantum-espresso.org/quote

     Parallel version (MPI), running on     5 processors

     MPI processes distributed on     1 nodes
     R & G space division:  proc/nbgrp/npool/nimage =       5
     Waiting for input...
     Reading input from standard input

     Current dimensions of program PWSCF are:
     Max number of different atomic species (ntypx) = 10
     Max number of k-points (npk) =  40000
     Max angular momentum in pseudopotentials (lmaxx) =  3
               file Fr.pbe-spdn-kjpaw_psl.1.0.0.UPF: wavefunction(s)  6P renormalized

     Subspace diagonalization in iterative solution of the eigenvalue problem:
     a serial algorithm will be used


     Parallelization info
     --------------------
     sticks:   dense  smooth     PW     G-vecs:    dense   smooth      PW
     Min         102     102     32                 1545     1545     280
     Max         103     103     33                 1546     1546     283
     Sum         511     511    163                 7727     7727    1411



     bravais-lattice index     =            2
     lattice parameter (alat)  =       6.8300  a.u.
     unit-cell volume          =      79.6530 (a.u.)^3
     number of atoms/cell      =            1
     number of atomic types    =            1
     number of electrons       =        19.00
     number of Kohn-Sham states=           14
     kinetic-energy cutoff     =      80.0000  Ry
     charge density cutoff     =     320.0000  Ry
     convergence threshold     =      1.0E-08
     mixing beta               =       0.7000
     number of iterations used =            8  plain     mixing
     Exchange-correlation      = SLA PW PBX PBC ( 1  4  3  4 0 0)

     celldm(1)=   6.830000  celldm(2)=   0.000000  celldm(3)=   0.000000
     celldm(4)=   0.000000  celldm(5)=   0.000000  celldm(6)=   0.000000

     crystal axes: (cart. coord. in units of alat)
               a(1) = (  -0.500000   0.000000   0.500000 )  
               a(2) = (   0.000000   0.500000   0.500000 )  
               a(3) = (  -0.500000   0.500000   0.000000 )  

     reciprocal axes: (cart. coord. in units 2 pi/alat)
               b(1) = ( -1.000000 -1.000000  1.000000 )  
               b(2) = (  1.000000  1.000000  1.000000 )  
               b(3) = ( -1.000000  1.000000 -1.000000 )  


     PseudoPot. # 1 for Fr read from file:
     /home/lorenzo/pseudos/Fr/Fr.pbe-spdn-kjpaw_psl.1.0.0.UPF
     MD5 check sum: 362a188b966a64328b94f1ef5f32e8c4
     Pseudo is Projector augmented-wave + core cor, Zval = 19.0
     Generated using "atomic" code by A. Dal Corso v.6.2.2
     Shape of augmentation charge: PSQ
     Using radial grid of 1287 points,  6 beta functions with: 
                l(1) =   0
                l(2) =   0
                l(3) =   1
                l(4) =   1
                l(5) =   2
                l(6) =   2
     Q(r) pseudized with 0 coefficients 


     atomic species   valence    mass     pseudopotential
        Fr            19.00   223.00000     Fr( 1.00)

     48 Sym. Ops., with inversion, found



   Cartesian axes

     site n.     atom                  positions (alat units)
         1           Fr  tau(   1) = (   0.0000000   0.0000000   0.0000000  )

     number of k points=    56  gaussian smearing, width (Ry)=  0.0100
                       cart. coord. in units 2pi/alat
        k(    1) = (   0.0000000   0.0000000   0.0000000), wk =   0.0015026
        k(    2) = (  -0.0909091   0.0909091  -0.0909091), wk =   0.0120210
        k(    3) = (  -0.1818182   0.1818182  -0.1818182), wk =   0.0120210
        k(    4) = (  -0.2727273   0.2727273  -0.2727273), wk =   0.0120210
        k(    5) = (  -0.3636364   0.3636364  -0.3636364), wk =   0.0120210
        k(    6) = (  -0.4545455   0.4545455  -0.4545455), wk =   0.0120210
        k(    7) = (   0.0000000   0.1818182   0.0000000), wk =   0.0090158
        k(    8) = (  -0.0909091   0.2727273  -0.0909091), wk =   0.0360631
        k(    9) = (  -0.1818182   0.3636364  -0.1818182), wk =   0.0360631
        k(   10) = (  -0.2727273   0.4545455  -0.2727273), wk =   0.0360631
        k(   11) = (  -0.3636364   0.5454545  -0.3636364), wk =   0.0360631
        k(   12) = (   0.5454545  -0.3636364   0.5454545), wk =   0.0360631
        k(   13) = (   0.4545455  -0.2727273   0.4545455), wk =   0.0360631
        k(   14) = (   0.3636364  -0.1818182   0.3636364), wk =   0.0360631
        k(   15) = (   0.2727273  -0.0909091   0.2727273), wk =   0.0360631
        k(   16) = (   0.1818182  -0.0000000   0.1818182), wk =   0.0180316
        k(   17) = (   0.0000000   0.3636364   0.0000000), wk =   0.0090158
        k(   18) = (  -0.0909091   0.4545455  -0.0909091), wk =   0.0360631
        k(   19) = (  -0.1818182   0.5454545  -0.1818182), wk =   0.0360631
        k(   20) = (  -0.2727273   0.6363636  -0.2727273), wk =   0.0360631
        k(   21) = (   0.6363636  -0.2727273   0.6363636), wk =   0.0360631
        k(   22) = (   0.5454545  -0.1818182   0.5454545), wk =   0.0360631
        k(   23) = (   0.4545455  -0.0909091   0.4545455), wk =   0.0360631
        k(   24) = (   0.3636364   0.0000000   0.3636364), wk =   0.0180316
        k(   25) = (   0.0000000   0.5454545   0.0000000), wk =   0.0090158
        k(   26) = (  -0.0909091   0.6363636  -0.0909091), wk =   0.0360631
        k(   27) = (  -0.1818182   0.7272727  -0.1818182), wk =   0.0360631
        k(   28) = (   0.7272727  -0.1818182   0.7272727), wk =   0.0360631
        k(   29) = (   0.6363636  -0.0909091   0.6363636), wk =   0.0360631
        k(   30) = (   0.5454545   0.0000000   0.5454545), wk =   0.0180316
        k(   31) = (   0.0000000   0.7272727   0.0000000), wk =   0.0090158
        k(   32) = (  -0.0909091   0.8181818  -0.0909091), wk =   0.0360631
        k(   33) = (   0.8181818  -0.0909091   0.8181818), wk =   0.0360631
        k(   34) = (   0.7272727   0.0000000   0.7272727), wk =   0.0180316
        k(   35) = (   0.0000000   0.9090909   0.0000000), wk =   0.0090158
        k(   36) = (   0.9090909  -0.0000000   0.9090909), wk =   0.0180316
        k(   37) = (  -0.1818182   0.3636364   0.0000000), wk =   0.0360631
        k(   38) = (  -0.2727273   0.4545455  -0.0909091), wk =   0.0721262
        k(   39) = (  -0.3636364   0.5454545  -0.1818182), wk =   0.0721262
        k(   40) = (   0.5454545  -0.3636364   0.7272727), wk =   0.0721262
        k(   41) = (  -0.1818182   0.5454545   0.0000000), wk =   0.0360631
        k(   42) = (  -0.2727273   0.6363636  -0.0909091), wk =   0.0721262
        k(   43) = (   0.6363636  -0.2727273   0.8181818), wk =   0.0721262
        k(   44) = (   0.5454545  -0.1818182   0.7272727), wk =   0.0721262
        k(   45) = (   0.4545455  -0.0909091   0.6363636), wk =   0.0721262
        k(   46) = (   0.3636364   0.0000000   0.5454545), wk =   0.0360631
        k(   47) = (  -0.1818182   0.7272727   0.0000000), wk =   0.0360631
        k(   48) = (   0.7272727  -0.1818182   0.9090909), wk =   0.0721262
        k(   49) = (   0.6363636  -0.0909091   0.8181818), wk =   0.0721262
        k(   50) = (   0.5454545   0.0000000   0.7272727), wk =   0.0360631
        k(   51) = (   0.8181818  -0.0909091   1.0000000), wk =   0.0360631
        k(   52) = (   0.7272727   0.0000000   0.9090909), wk =   0.0360631
        k(   53) = (   0.6363636  -0.2727273   1.0000000), wk =   0.0360631
        k(   54) = (   0.5454545  -0.1818182   0.9090909), wk =   0.0721262
        k(   55) = (   0.6363636  -0.0909091   1.0000000), wk =   0.0360631
        k(   56) = (   0.5454545   0.0000000   0.9090909), wk =   0.0360631

     Dense  grid:     7727 G-vectors     FFT dimensions: (  27,  27,  27)

     Estimated max dynamical RAM per process >       9.64 MB

     Estimated total dynamical RAM >      48.18 MB

     Initial potential from superposition of free atoms

     starting charge   18.97009, renormalised to   19.00000
     Starting wfcs are   10 randomized atomic wfcs +    4 random wfcs
     Checking if some PAW data can be deallocated... 

     total cpu time spent up to now is        1.6 secs

     Self-consistent Calculation

     iteration #  1     ecut=    80.00 Ry     beta= 0.70
     Davidson diagonalization with overlap
     ethr =  1.00E-02,  avg # of iterations =  4.8

     Threshold (ethr) on eigenvalues was too large:
     Diagonalizing with lowered threshold

     Davidson diagonalization with overlap
     ethr =  1.01E-04,  avg # of iterations =  1.9

     total cpu time spent up to now is        3.6 secs

     total energy              =   -1069.96271869 Ry
     Harris-Foulkes estimate   =   -1069.97491108 Ry
     estimated scf accuracy    <       0.01905892 Ry

     iteration #  2     ecut=    80.00 Ry     beta= 0.70
     Davidson diagonalization with overlap
     ethr =  1.00E-04,  avg # of iterations =  2.0

     total cpu time spent up to now is        4.5 secs

     total energy              =   -1069.96553672 Ry
     Harris-Foulkes estimate   =   -1069.96585220 Ry
     estimated scf accuracy    <       0.00057722 Ry

     iteration #  3     ecut=    80.00 Ry     beta= 0.70
     Davidson diagonalization with overlap
     ethr =  3.04E-06,  avg # of iterations =  2.7

     total cpu time spent up to now is        5.4 secs

     total energy              =   -1069.96560023 Ry
     Harris-Foulkes estimate   =   -1069.96560862 Ry
     estimated scf accuracy    <       0.00002272 Ry

     iteration #  4     ecut=    80.00 Ry     beta= 0.70
     Davidson diagonalization with overlap
     ethr =  1.20E-07,  avg # of iterations =  2.0

     total cpu time spent up to now is        6.4 secs

     total energy              =   -1069.96560542 Ry
     Harris-Foulkes estimate   =   -1069.96560499 Ry
     estimated scf accuracy    <       0.00000021 Ry

     iteration #  5     ecut=    80.00 Ry     beta= 0.70
     Davidson diagonalization with overlap
     ethr =  1.09E-09,  avg # of iterations =  2.2

     total cpu time spent up to now is        7.2 secs

     total energy              =   -1069.96560552 Ry
     Harris-Foulkes estimate   =   -1069.96560546 Ry
     estimated scf accuracy    <       0.00000002 Ry

     iteration #  6     ecut=    80.00 Ry     beta= 0.70
     Davidson diagonalization with overlap
     ethr =  9.35E-11,  avg # of iterations =  2.0

     total cpu time spent up to now is        8.1 secs

     End of self-consistent calculation

          k = 0.0000 0.0000 0.0000 (   941 PWs)   bands (ev):

    -9.2493  -9.2493  -9.2493  -8.9067  -8.9067   9.4678  47.2648  47.2648
    47.2648  48.3111  53.8756  53.8756  53.8756  57.8090

          k =-0.0909 0.0909-0.0909 (   944 PWs)   bands (ev):

    -9.2463  -9.2231  -9.2231  -8.9066  -8.9066   9.7990  43.6319  46.7514
    46.7514  48.1929  54.7117  54.7117  55.7982  57.6525

          k =-0.1818 0.1818-0.1818 (   950 PWs)   bands (ev):

    -9.2398  -9.1730  -9.1730  -8.8850  -8.8850  10.7948  37.9731  45.6586
    45.6586  48.2199  54.7547  55.4663  55.4663  56.7629

          k =-0.2727 0.2727-0.2727 (   953 PWs)   bands (ev):

    -9.2350  -9.1579  -9.1579  -8.8046  -8.8046  12.4481  32.5118  44.5131
    44.5131  48.2229  53.0322  53.6516  53.6516  59.4765

          k =-0.3636 0.3636-0.3636 (   956 PWs)   bands (ev):

    -9.2342  -9.1759  -9.1759  -8.6968  -8.6968  14.6848  27.6452  43.5917
    43.5917  48.1575  51.8529  52.4448  52.4448  62.4807

          k =-0.4545 0.4545-0.4545 (   969 PWs)   bands (ev):

    -9.2356  -9.1933  -9.1933  -8.6255  -8.6255  17.0385  23.9540  43.0781
    43.0781  48.0724  51.3032  51.8559  51.8559  65.0199

          k = 0.0000 0.1818 0.0000 (   945 PWs)   bands (ev):

    -9.2756  -9.1967  -9.1967  -8.9335  -8.8844   9.9093  45.1075  45.1075
    45.5762  47.2928  54.2072  55.6155  56.2846  56.2846

          k =-0.0909 0.2727-0.0909 (   949 PWs)   bands (ev):

    -9.2855  -9.1422  -9.1376  -8.9500  -8.8531  10.6835  40.0131  43.5858
    45.1452  48.2380  51.5554  55.5006  57.9765  58.2604

          k =-0.1818 0.3636-0.1818 (   950 PWs)   bands (ev):

    -9.2725  -9.1239  -9.1069  -8.9059  -8.7789  12.1192  34.4808  42.4365
    43.9643  48.1141  51.8717  55.4459  56.5609  56.9114

          k =-0.2727 0.4545-0.2727 (   960 PWs)   bands (ev):

    -9.2549  -9.1472  -9.1187  -8.8028  -8.6804  14.1729  29.4244  41.7868
    42.5361  47.0944  53.3333  54.7384  54.8633  57.7416

          k =-0.3636 0.5455-0.3636 (   959 PWs)   bands (ev):

    -9.2402  -9.1708  -9.1413  -8.7030  -8.6180  16.5911  25.2557  41.1926
    41.7310  46.7311  53.3801  53.5944  54.3054  61.0082

          k = 0.5455-0.3636 0.5455 (   961 PWs)   bands (ev):

    -9.2238  -9.1852  -9.1523  -8.6486  -8.6284  17.7343  23.6747  40.2696
    42.3252  46.9668  52.5363  52.7955  55.1080  64.2711

          k = 0.4545-0.2727 0.4545 (   958 PWs)   bands (ev):

    -9.2111  -9.1831  -9.1443  -8.7118  -8.6589  15.7833  26.5123  39.9142
    43.5540  47.7397  51.9263  52.4658  56.2621  61.6422

          k = 0.3636-0.1818 0.3636 (   955 PWs)   bands (ev):

    -9.2231  -9.1559  -9.1255  -8.8349  -8.7247  13.4252  31.0498  40.1452
    45.2714  48.9345  51.5670  52.6350  57.7624  58.3379

          k = 0.2727-0.0909 0.2727 (   946 PWs)   bands (ev):

    -9.2406  -9.1426  -9.1335  -8.9255  -8.8113  11.5681  36.2812  40.9305
    47.0352  49.6919  52.0804  53.4268  55.5836  57.3598

          k = 0.1818-0.0000 0.1818 (   941 PWs)   bands (ev):

    -9.2512  -9.1907  -9.1715  -8.9308  -8.8738  10.3518  41.4979  42.5540
    47.7606  49.0430  54.0562  54.1747  55.1404  56.4351

          k = 0.0000 0.3636 0.0000 (   966 PWs)   bands (ev):

    -9.3460  -9.0537  -9.0537  -9.0096  -8.8246  11.2363  41.7547  41.7547
    41.8639  45.6979  48.6139  59.3519  59.8325  59.8325

          k =-0.0909 0.4545-0.0909 (   965 PWs)   bands (ev):

    -9.3646  -9.0701  -8.9907  -8.9491  -8.7634  12.4510  36.6500  40.4121
    41.2001  45.9481  47.9462  59.3020  59.8924  60.6498

          k =-0.1818 0.5455-0.1818 (   965 PWs)   bands (ev):

    -9.3418  -9.1042  -8.9889  -8.8659  -8.6687  14.2972  31.6104  39.2811
    39.6765  45.3322  51.0897  58.1963  58.4361  59.6155

          k =-0.2727 0.6364-0.2727 (   969 PWs)   bands (ev):

    -9.3056  -9.1044  -9.0118  -8.8055  -8.6092  16.6162  27.2481  37.4195
    39.6273  45.1337  55.0986  56.6689  57.0851  59.6036

          k = 0.6364-0.2727 0.6364 (   959 PWs)   bands (ev):

    -9.2711  -9.0928  -9.0315  -8.7585  -8.6252  18.4681  24.5971  36.0107
    40.3051  45.4409  55.5550  55.6033  59.6790  60.3610

          k = 0.5455-0.1818 0.5455 (   967 PWs)   bands (ev):

    -9.2310  -9.1095  -9.0352  -8.7215  -8.7190  17.3581  26.1680  35.2152
    41.6929  46.2504  54.6185  54.8729  60.9735  61.5215

          k = 0.4545-0.0909 0.4545 (   963 PWs)   bands (ev):

    -9.1858  -9.1569  -9.0205  -8.8595  -8.7112  15.0125  30.1774  35.1264
    43.6807  47.5877  53.5612  54.6068  57.8414  59.3525

          k = 0.3636 0.0000 0.3636 (   957 PWs)   bands (ev):

    -9.2106  -9.1486  -9.0366  -8.9568  -8.7440  12.9928  34.4355  36.3046
    45.9157  49.4518  51.9578  54.3488  55.1750  57.6478

          k = 0.0000 0.5455 0.0000 (   966 PWs)   bands (ev):

    -9.4375  -9.1178  -8.8612  -8.8612  -8.7452  13.4440  36.7164  38.8520
    38.8520  44.4162  45.1850  62.8774  62.8774  64.1237

          k =-0.0909 0.6364-0.0909 (   968 PWs)   bands (ev):

    -9.4506  -9.1609  -8.8247  -8.7814  -8.6662  15.0736  33.0661  36.7641
    37.9225  44.1833  46.2865  61.8147  62.6324  65.0650

          k =-0.1818 0.7273-0.1818 (   973 PWs)   bands (ev):

    -9.4088  -9.1539  -8.8438  -8.7597  -8.6012  17.2222  29.2291  34.2153
    37.7154  43.9975  50.0017  60.0954  61.0697  65.1355

          k = 0.7273-0.1818 0.7273 (   963 PWs)   bands (ev):

    -9.3507  -9.0727  -8.8684  -8.8008  -8.6160  19.3081  26.3526  32.2040
    38.2677  44.2381  54.4360  58.7769  59.5858  65.5114

          k = 0.6364-0.0909 0.6364 (   966 PWs)   bands (ev):

    -9.2941  -8.9786  -8.8860  -8.8554  -8.7111  19.1768  26.7277  30.9271
    39.5527  44.9122  57.8674  58.2700  59.0914  62.3452

          k = 0.5455 0.0000 0.5455 (   971 PWs)   bands (ev):

    -9.2360  -9.0528  -8.9040  -8.8410  -8.7753  17.0907  29.5080  31.0588
    41.4558  46.0375  56.3871  57.1092  58.7498  59.9836

          k = 0.0000 0.7273 0.0000 (   974 PWs)   bands (ev):

    -9.5210  -9.2248  -8.6796  -8.6796  -8.6722  16.4834  31.1126  36.7724
    36.7724  43.4938  43.5707  64.5432  66.4002  66.4002

          k =-0.0909 0.8182-0.0909 (   973 PWs)   bands (ev):

    -9.5161  -9.2456  -8.6928  -8.6399  -8.5935  18.4186  28.4745  34.4140
    36.3487  43.2835  45.4070  63.1790  65.7421  69.1388

          k = 0.8182-0.0909 0.8182 (   971 PWs)   bands (ev):

    -9.4493  -9.1966  -8.7191  -8.6830  -8.5980  20.3803  26.6813  31.2008
    36.7006  43.4334  49.4262  61.6615  64.0959  67.9479

          k = 0.7273 0.0000 0.7273 (   969 PWs)   bands (ev):

    -9.3685  -9.0641  -8.7953  -8.7661  -8.6675  20.6756  27.2324  28.7714
    37.8049  43.9705  54.1530  60.1227  62.0059  64.4238

          k = 0.0000 0.9091 0.0000 (   974 PWs)   bands (ev):

    -9.5705  -9.2916  -8.6289  -8.5691  -8.5691  20.0461  26.1497  35.6904
    35.6904  42.7855  43.1558  64.3939  70.2450  70.2517

          k = 0.9091-0.0000 0.9091 (   962 PWs)   bands (ev):

    -9.5403  -9.2784  -8.6418  -8.5855  -8.5674  21.1334  25.1865  33.7490
    35.8107  43.0051  45.1268  63.5992  68.3617  69.8259

          k =-0.1818 0.3636 0.0000 (   958 PWs)   bands (ev):

    -9.2979  -9.1047  -9.0610  -8.9734  -8.7983  11.6783  37.8772  39.4204
    45.2283  48.4100  49.6852  56.1942  56.7618  59.1806

          k =-0.2727 0.4545-0.0909 (   957 PWs)   bands (ev):

    -9.2740  -9.1223  -9.0274  -8.9164  -8.7214  13.3211  33.1103  37.9329
    43.3809  48.2030  51.4450  54.6319  57.0033  60.9258

          k =-0.3636 0.5455-0.1818 (   962 PWs)   bands (ev):

    -9.2387  -9.1560  -9.0405  -8.8094  -8.6586  15.5237  28.4207  37.4569
    41.4477  47.6092  52.3927  55.8570  57.4524  59.5784

          k = 0.5455-0.3636 0.7273 (   965 PWs)   bands (ev):

    -9.2131  -9.1838  -9.0458  -8.7348  -8.6320  17.7966  24.8707  37.4235
    40.2008  47.2995  51.9786  57.2181  58.2877  60.5313

          k =-0.1818 0.5455 0.0000 (   967 PWs)   bands (ev):

    -9.3775  -9.1099  -8.9364  -8.8668  -8.7036  13.8735  34.5171  36.7786
    40.0254  46.9639  47.2078  57.9914  61.2802  64.1827

          k =-0.2727 0.6364-0.0909 (   963 PWs)   bands (ev):

    -9.3378  -9.1306  -8.9393  -8.7949  -8.6489  15.8801  30.5447  35.2208
    38.2384  46.7347  50.5329  56.1881  61.8212  63.3897

          k = 0.6364-0.2727 0.8182 (   967 PWs)   bands (ev):

    -9.2857  -9.1130  -8.9369  -8.7976  -8.6227  18.1693  26.8333  34.2341
    37.4206  46.8021  53.9057  55.6468  61.4791  62.6931

          k = 0.5455-0.1818 0.7273 (   960 PWs)   bands (ev):

    -9.2440  -9.1035  -8.9043  -8.8355  -8.6471  19.1578  25.5308  33.3059
    37.8976  47.3137  53.5043  59.4563  60.4778  60.9484

          k = 0.4545-0.0909 0.6364 (   966 PWs)   bands (ev):

    -9.2012  -9.1441  -8.9399  -8.8018  -8.7070  17.3724  28.1295  32.8515
    39.2905  48.2709  52.8370  56.6557  59.6989  63.0133

          k = 0.3636 0.0000 0.5455 (   956 PWs)   bands (ev):

    -9.2196  -9.1559  -8.9606  -8.8756  -8.7027  15.1298  31.6687  33.6973
    41.2817  49.4125  51.4964  54.3191  58.7871  61.6890

          k =-0.1818 0.7273 0.0000 (   963 PWs)   bands (ev):

    -9.4515  -9.1941  -8.8059  -8.6818  -8.6363  16.8645  30.6891  34.8758
    36.0740  45.8503  45.9285  60.1328  66.1078  66.3638

          k = 0.7273-0.1818 0.9091 (   963 PWs)   bands (ev):

    -9.3896  -9.1743  -8.8297  -8.6912  -8.6052  19.0127  28.1672  32.2663
    35.4166  45.9175  49.7657  58.4165  64.5719  66.5761

          k = 0.6364-0.0909 0.8182 (   967 PWs)   bands (ev):

    -9.3176  -9.0740  -8.8811  -8.7762  -8.6193  20.4435  26.8996  30.0652
    35.9934  46.3817  54.3387  57.0575  61.4019  64.1484

          k = 0.5455 0.0000 0.7273 (   968 PWs)   bands (ev):

    -9.2564  -9.0089  -8.9394  -8.8105  -8.6921  19.4084  28.4264  29.1663
    37.3529  47.2648  55.4977  57.9277  59.2504  62.2882

          k = 0.8182-0.0909 1.0000 (   967 PWs)   bands (ev):

    -9.4954  -9.2523  -8.6911  -8.6270  -8.5694  20.2617  26.4903  33.8791
    34.3979  45.2244  45.4134  62.0362  66.6991  69.0611

          k = 0.7273 0.0000 0.9091 (   968 PWs)   bands (ev):

    -9.4093  -9.1952  -8.7447  -8.7086  -8.5719  21.2169  26.2181  30.9960
    34.7223  45.6539  49.4980  60.1040  63.6152  66.9925

          k = 0.6364-0.2727 1.0000 (   964 PWs)   bands (ev):

    -9.2619  -9.1547  -8.9416  -8.7006  -8.6878  17.9331  29.4576  31.8365
    36.1373  50.0332  50.3847  54.7499  64.1001  64.1870

          k = 0.5455-0.1818 0.9091 (   957 PWs)   bands (ev):

    -9.1947  -9.1313  -8.9526  -8.7870  -8.6194  19.9028  27.3132  30.9380
    34.8029  50.0410  52.7539  55.6828  59.9400  65.3430

          k = 0.6364-0.0909 1.0000 (   966 PWs)   bands (ev):

    -9.2901  -9.1663  -8.8845  -8.7347  -8.5702  20.7582  27.4472  30.8664
    32.9651  49.7996  50.1044  56.7263  61.0319  68.9109

          k = 0.5455 0.0000 0.9091 (   959 PWs)   bands (ev):

    -9.2005  -9.0801  -9.0113  -8.7814  -8.5711  21.1549  28.1781  28.9026
    33.1069  50.4845  54.5776  54.8626  57.2929  67.9664

     the Fermi energy is    46.8210 ev

!    total energy              =   -1069.96560552 Ry
     Harris-Foulkes estimate   =   -1069.96560552 Ry
     estimated scf accuracy    <          3.8E-10 Ry

     total all-electron energy =    -48515.575917 Ry

     The total energy is the sum of the following terms:

     one-electron contribution =       1.50167442 Ry
     hartree contribution      =      28.16983928 Ry
     xc contribution           =     -64.59052788 Ry
     ewald contribution        =    -242.33311988 Ry
     one-center paw contrib.   =    -792.71294150 Ry
     smearing contrib. (-TS)   =      -0.00052997 Ry

     convergence has been achieved in   6 iterations

     Forces acting on atoms (cartesian axes, Ry/au):

     atom    1 type  1   force =     0.00000000    0.00000000    0.00000000

     Total force =     0.000000     Total SCF correction =     0.000000


     Computing stress (Cartesian axis) and pressure

          total   stress  (Ry/bohr**3)                   (kbar)     P= 7233.96
   0.04917547  -0.00000000  -0.00000000       7233.96     -0.00     -0.00
  -0.00000000   0.04917547   0.00000000         -0.00   7233.96      0.00
  -0.00000000   0.00000000   0.04917547         -0.00      0.00   7233.96


     Writing output data file Fr.save/

     init_run     :      0.55s CPU      0.58s WALL (       1 calls)
     electrons    :      6.23s CPU      6.54s WALL (       1 calls)
     forces       :      0.09s CPU      0.09s WALL (       1 calls)
     stress       :      0.33s CPU      0.34s WALL (       1 calls)

     Called by init_run:
     wfcinit      :      0.24s CPU      0.26s WALL (       1 calls)
     potinit      :      0.10s CPU      0.12s WALL (       1 calls)
     hinit0       :      0.18s CPU      0.18s WALL (       1 calls)

     Called by electrons:
     c_bands      :      4.72s CPU      4.92s WALL (       7 calls)
     sum_band     :      0.81s CPU      0.84s WALL (       7 calls)
     v_of_rho     :      0.03s CPU      0.03s WALL (       7 calls)
     newd         :      0.05s CPU      0.06s WALL (       7 calls)
     PAW_pot      :      0.72s CPU      0.80s WALL (       7 calls)
     mix_rho      :      0.00s CPU      0.00s WALL (       7 calls)

     Called by c_bands:
     init_us_2    :      0.12s CPU      0.13s WALL (     952 calls)
     cegterg      :      4.55s CPU      4.75s WALL (     392 calls)

     Called by sum_band:
     sum_band:bec :      0.00s CPU      0.00s WALL (     392 calls)
     addusdens    :      0.05s CPU      0.06s WALL (       7 calls)

     Called by *egterg:
     h_psi        :      3.33s CPU      3.49s WALL (    1439 calls)
     s_psi        :      0.11s CPU      0.12s WALL (    1439 calls)
     g_psi        :      0.01s CPU      0.01s WALL (     991 calls)
     cdiaghg      :      0.60s CPU      0.61s WALL (    1327 calls)

     Called by h_psi:
     h_psi:pot    :      3.31s CPU      3.47s WALL (    1439 calls)
     h_psi:calbec :      0.16s CPU      0.17s WALL (    1439 calls)
     vloc_psi     :      3.03s CPU      3.17s WALL (    1439 calls)
     add_vuspsi   :      0.11s CPU      0.12s WALL (    1439 calls)

     General routines
     calbec       :      0.35s CPU      0.36s WALL (    2111 calls)
     fft          :      0.02s CPU      0.02s WALL (     104 calls)
     ffts         :      0.00s CPU      0.00s WALL (       7 calls)
     fftw         :      3.41s CPU      3.57s WALL (   34250 calls)

     Parallel routines
     fft_scatt_xy :      0.30s CPU      0.31s WALL (   34361 calls)
     fft_scatt_yz :      0.83s CPU      0.87s WALL (   34361 calls)

     PWSCF        :     8.29s CPU         8.76s WALL


   This run was terminated on:  22:53: 7   7Apr2024            

=------------------------------------------------------------------------------=
   JOB DONE.
=------------------------------------------------------------------------------=
