
     Program PWSCF v.6.3MaX starts on  7Apr2024 at 22:34:51 

     This program is part of the open-source Quantum ESPRESSO suite
     for quantum simulation of materials; please cite
         "P. Giannozzi et al., J. Phys.:Condens. Matter 21 395502 (2009);
         "P. Giannozzi et al., J. Phys.:Condens. Matter 29 465901 (2017);
          URL http://www.quantum-espresso.org", 
     in publications or presentations arising from this work. More details at
     http://www.quantum-espresso.org/quote

     Parallel version (MPI), running on     5 processors

     MPI processes distributed on     1 nodes
     R & G space division:  proc/nbgrp/npool/nimage =       5
     Waiting for input...
     Reading input from standard input

     Current dimensions of program PWSCF are:
     Max number of different atomic species (ntypx) = 10
     Max number of k-points (npk) =  40000
     Max angular momentum in pseudopotentials (lmaxx) =  3
               file Fr.pbe-spdn-kjpaw_psl.1.0.0.UPF: wavefunction(s)  6P renormalized

     Subspace diagonalization in iterative solution of the eigenvalue problem:
     a serial algorithm will be used


     Parallelization info
     --------------------
     sticks:   dense  smooth     PW     G-vecs:    dense   smooth      PW
     Min          59      59     19                  657      657     128
     Max          59      59     20                  658      658     130
     Sum         295     295     97                 3287     3287     645



     bravais-lattice index     =            2
     lattice parameter (alat)  =       6.8300  a.u.
     unit-cell volume          =      79.6530 (a.u.)^3
     number of atoms/cell      =            1
     number of atomic types    =            1
     number of electrons       =        19.00
     number of Kohn-Sham states=           14
     kinetic-energy cutoff     =      45.0000  Ry
     charge density cutoff     =     180.0000  Ry
     convergence threshold     =      1.0E-08
     mixing beta               =       0.7000
     number of iterations used =            8  plain     mixing
     Exchange-correlation      = SLA PW PBX PBC ( 1  4  3  4 0 0)

     celldm(1)=   6.830000  celldm(2)=   0.000000  celldm(3)=   0.000000
     celldm(4)=   0.000000  celldm(5)=   0.000000  celldm(6)=   0.000000

     crystal axes: (cart. coord. in units of alat)
               a(1) = (  -0.500000   0.000000   0.500000 )  
               a(2) = (   0.000000   0.500000   0.500000 )  
               a(3) = (  -0.500000   0.500000   0.000000 )  

     reciprocal axes: (cart. coord. in units 2 pi/alat)
               b(1) = ( -1.000000 -1.000000  1.000000 )  
               b(2) = (  1.000000  1.000000  1.000000 )  
               b(3) = ( -1.000000  1.000000 -1.000000 )  


     PseudoPot. # 1 for Fr read from file:
     /home/lorenzo/pseudos/Fr/Fr.pbe-spdn-kjpaw_psl.1.0.0.UPF
     MD5 check sum: 362a188b966a64328b94f1ef5f32e8c4
     Pseudo is Projector augmented-wave + core cor, Zval = 19.0
     Generated using "atomic" code by A. Dal Corso v.6.2.2
     Shape of augmentation charge: PSQ
     Using radial grid of 1287 points,  6 beta functions with: 
                l(1) =   0
                l(2) =   0
                l(3) =   1
                l(4) =   1
                l(5) =   2
                l(6) =   2
     Q(r) pseudized with 0 coefficients 


     atomic species   valence    mass     pseudopotential
        Fr            19.00   223.00000     Fr( 1.00)

     48 Sym. Ops., with inversion, found



   Cartesian axes

     site n.     atom                  positions (alat units)
         1           Fr  tau(   1) = (   0.0000000   0.0000000   0.0000000  )

     number of k points=    20  gaussian smearing, width (Ry)=  0.0100
                       cart. coord. in units 2pi/alat
        k(    1) = (   0.0000000   0.0000000   0.0000000), wk =   0.0058309
        k(    2) = (  -0.1428571   0.1428571  -0.1428571), wk =   0.0466472
        k(    3) = (  -0.2857143   0.2857143  -0.2857143), wk =   0.0466472
        k(    4) = (  -0.4285714   0.4285714  -0.4285714), wk =   0.0466472
        k(    5) = (   0.0000000   0.2857143   0.0000000), wk =   0.0349854
        k(    6) = (  -0.1428571   0.4285714  -0.1428571), wk =   0.1399417
        k(    7) = (  -0.2857143   0.5714286  -0.2857143), wk =   0.1399417
        k(    8) = (   0.5714286  -0.2857143   0.5714286), wk =   0.1399417
        k(    9) = (   0.4285714  -0.1428571   0.4285714), wk =   0.1399417
        k(   10) = (   0.2857143  -0.0000000   0.2857143), wk =   0.0699708
        k(   11) = (   0.0000000   0.5714286   0.0000000), wk =   0.0349854
        k(   12) = (  -0.1428571   0.7142857  -0.1428571), wk =   0.1399417
        k(   13) = (   0.7142857  -0.1428571   0.7142857), wk =   0.1399417
        k(   14) = (   0.5714286   0.0000000   0.5714286), wk =   0.0699708
        k(   15) = (   0.0000000   0.8571429   0.0000000), wk =   0.0349854
        k(   16) = (   0.8571429  -0.0000000   0.8571429), wk =   0.0699708
        k(   17) = (  -0.2857143   0.5714286   0.0000000), wk =   0.1399417
        k(   18) = (   0.5714286  -0.2857143   0.8571429), wk =   0.2798834
        k(   19) = (   0.7142857  -0.1428571   1.0000000), wk =   0.1399417
        k(   20) = (   0.5714286   0.0000000   0.8571429), wk =   0.1399417

     Dense  grid:     3287 G-vectors     FFT dimensions: (  24,  24,  24)

     Estimated max dynamical RAM per process >       4.04 MB

     Estimated total dynamical RAM >      20.21 MB

     Check: negative/imaginary core charge=   -0.000013    0.000000

     Initial potential from superposition of free atoms

     starting charge   18.97009, renormalised to   19.00000
     Starting wfcs are   10 randomized atomic wfcs +    4 random wfcs
     Checking if some PAW data can be deallocated... 

     total cpu time spent up to now is        1.2 secs

     Self-consistent Calculation

     iteration #  1     ecut=    45.00 Ry     beta= 0.70
     Davidson diagonalization with overlap
     ethr =  1.00E-02,  avg # of iterations =  4.6

     Threshold (ethr) on eigenvalues was too large:
     Diagonalizing with lowered threshold

     Davidson diagonalization with overlap
     ethr =  1.15E-04,  avg # of iterations =  1.6

     total cpu time spent up to now is        1.8 secs

     total energy              =   -1069.91722932 Ry
     Harris-Foulkes estimate   =   -1069.93161959 Ry
     estimated scf accuracy    <       0.02196816 Ry

     iteration #  2     ecut=    45.00 Ry     beta= 0.70
     Davidson diagonalization with overlap
     ethr =  1.16E-04,  avg # of iterations =  2.0

     total cpu time spent up to now is        2.2 secs

     total energy              =   -1069.92130338 Ry
     Harris-Foulkes estimate   =   -1069.92165414 Ry
     estimated scf accuracy    <       0.00073751 Ry

     iteration #  3     ecut=    45.00 Ry     beta= 0.70
     Davidson diagonalization with overlap
     ethr =  3.88E-06,  avg # of iterations =  3.0

     total cpu time spent up to now is        2.5 secs

     total energy              =   -1069.92141210 Ry
     Harris-Foulkes estimate   =   -1069.92141213 Ry
     estimated scf accuracy    <       0.00002266 Ry

     iteration #  4     ecut=    45.00 Ry     beta= 0.70
     Davidson diagonalization with overlap
     ethr =  1.19E-07,  avg # of iterations =  2.0

     total cpu time spent up to now is        2.8 secs

     total energy              =   -1069.92141728 Ry
     Harris-Foulkes estimate   =   -1069.92141671 Ry
     estimated scf accuracy    <       0.00000020 Ry

     iteration #  5     ecut=    45.00 Ry     beta= 0.70
     Davidson diagonalization with overlap
     ethr =  1.05E-09,  avg # of iterations =  2.4

     total cpu time spent up to now is        3.1 secs

     total energy              =   -1069.92141737 Ry
     Harris-Foulkes estimate   =   -1069.92141733 Ry
     estimated scf accuracy    <       0.00000002 Ry

     iteration #  6     ecut=    45.00 Ry     beta= 0.70
     Davidson diagonalization with overlap
     ethr =  1.24E-10,  avg # of iterations =  2.0

     total cpu time spent up to now is        3.3 secs

     End of self-consistent calculation

          k = 0.0000 0.0000 0.0000 (   411 PWs)   bands (ev):

    -9.3206  -9.3206  -9.3206  -8.9902  -8.9902   9.4627  47.2559  47.2559
    47.2559  48.3197  54.0480  54.0480  54.0480  57.8122

          k =-0.1429 0.1429-0.1429 (   402 PWs)   bands (ev):

    -9.3089  -9.2557  -9.2557  -8.9670  -8.9670  10.2812  40.4290  46.1658
    46.1658  48.2310  55.5060  55.9396  55.9396  56.4593

          k =-0.2857 0.2857-0.2857 (   401 PWs)   bands (ev):

    -9.3090  -9.2164  -9.2164  -8.8604  -8.8604  12.7294  31.7795  44.3686
    44.3686  48.2503  52.8565  53.5805  53.5805  59.9977

          k =-0.4286 0.4286-0.4286 (   413 PWs)   bands (ev):

    -9.3145  -9.2593  -9.2593  -8.7287  -8.7287  16.4268  24.8067  43.1686
    43.1686  48.1104  51.4639  52.1051  52.1051  64.4637

          k = 0.0000 0.2857 0.0000 (   399 PWs)   bands (ev):

    -9.3789  -9.1789  -9.1789  -9.0372  -8.9242  10.5536  43.1968  43.1968
    43.6287  46.4302  50.8703  57.7133  58.5086  58.5086

          k =-0.1429 0.4286-0.1429 (   402 PWs)   bands (ev):

    -9.3833  -9.1462  -9.1059  -9.0125  -8.8250  12.4615  34.9907  41.1171
    42.2678  46.7675  50.2772  57.3725  58.2878  58.7213

          k =-0.2857 0.5714-0.2857 (   410 PWs)   bands (ev):

    -9.3501  -9.1974  -9.1299  -8.8745  -8.7139  15.8372  27.4575  39.5160
    40.4820  45.8416  55.2779  55.7660  56.4203  57.8357

          k = 0.5714-0.2857 0.5714 (   400 PWs)   bands (ev):

    -9.2937  -9.1955  -9.1543  -8.7767  -8.7285  17.9949  24.2630  37.6155
    41.5507  46.3207  53.9780  54.1892  58.3575  63.0148

          k = 0.4286-0.1429 0.4286 (   402 PWs)   bands (ev):

    -9.2607  -9.2310  -9.1325  -8.9067  -8.7804  14.5783  29.8167  37.2118
    44.2461  48.1257  52.6273  53.6487  58.5348  59.7949

          k = 0.2857-0.0000 0.2857 (   393 PWs)   bands (ev):

    -9.2962  -9.1994  -9.1627  -9.0012  -8.8707  11.6454  37.2842  38.9304
    47.3457  50.5176  51.3852  53.8467  54.8374  57.1038

          k = 0.0000 0.5714 0.0000 (   415 PWs)   bands (ev):

    -9.5136  -9.2164  -8.9112  -8.9112  -8.8168  13.8227  35.9032  38.5054
    38.5054  44.3702  44.9172  63.3538  63.3538  64.8406

          k =-0.1429 0.7143-0.1429 (   418 PWs)   bands (ev):

    -9.5142  -9.2572  -8.8971  -8.8277  -8.6957  16.7060  30.3662  34.7176
    37.4737  43.9536  48.2101  61.1047  62.2100  65.9100

          k = 0.7143-0.1429 0.7143 (   407 PWs)   bands (ev):

    -9.4067  -9.1266  -8.9270  -8.8874  -8.7191  19.7608  26.2506  31.3107
    38.3012  44.3287  55.1017  58.9935  59.8579  65.4358

          k = 0.5714 0.0000 0.5714 (   407 PWs)   bands (ev):

    -9.3178  -9.1017  -8.9663  -8.8900  -8.8797  17.7159  29.0692  30.4279
    40.8624  45.7370  57.1524  57.5648  59.6387  60.3491

          k = 0.0000 0.8571 0.0000 (   404 PWs)   bands (ev):

    -9.6083  -9.3358  -8.6954  -8.6727  -8.6727  19.0290  27.4165  35.8905
    35.8905  42.9913  43.3736  64.4472  69.2097  69.2097

          k = 0.8571-0.0000 0.8571 (   412 PWs)   bands (ev):

    -9.5554  -9.3068  -8.7554  -8.7175  -8.6668  21.1446  25.5724  32.0809
    36.1851  43.2831  47.5111  62.7249  66.5831  68.3014

          k =-0.2857 0.5714 0.0000 (   413 PWs)   bands (ev):

    -9.3773  -9.2044  -9.0356  -8.9287  -8.7726  14.8627  32.4340  34.6953
    39.9921  49.0994  49.3457  55.2060  60.5851  63.6447

          k = 0.5714-0.2857 0.8571 (   408 PWs)   bands (ev):

    -9.2902  -9.2218  -9.0038  -8.8792  -8.7336  18.3352  26.8840  33.4491
    37.3253  48.6448  52.5438  56.4985  61.7835  62.5950

          k = 0.7143-0.1429 1.0000 (   406 PWs)   bands (ev):

    -9.4528  -9.2605  -8.8842  -8.7545  -8.6727  19.6936  27.8099  32.3525
    33.8934  47.9951  48.0265  58.5059  64.3525  68.7301

          k = 0.5714 0.0000 0.8571 (   407 PWs)   bands (ev):

    -9.3215  -9.1259  -9.0407  -8.8608  -8.6800  20.8569  28.0404  28.7629
    34.3739  48.8161  55.2487  55.8074  58.2414  66.2259

     the Fermi energy is    47.3951 ev

!    total energy              =   -1069.92141737 Ry
     Harris-Foulkes estimate   =   -1069.92141737 Ry
     estimated scf accuracy    <          2.6E-10 Ry

     total all-electron energy =    -48515.531728 Ry

     The total energy is the sum of the following terms:

     one-electron contribution =       1.58029179 Ry
     hartree contribution      =      28.09058933 Ry
     xc contribution           =     -64.56158505 Ry
     ewald contribution        =    -242.33311996 Ry
     one-center paw contrib.   =    -792.69730775 Ry
     smearing contrib. (-TS)   =      -0.00028572 Ry

     convergence has been achieved in   6 iterations

     Forces acting on atoms (cartesian axes, Ry/au):

     atom    1 type  1   force =     0.00000000    0.00000000    0.00000000

     Total force =     0.000000     Total SCF correction =     0.000000


     Computing stress (Cartesian axis) and pressure

          total   stress  (Ry/bohr**3)                   (kbar)     P= 6526.84
   0.04436854   0.00000000   0.00000000       6526.84      0.00      0.00
  -0.00000000   0.04436854  -0.00000000         -0.00   6526.84     -0.00
   0.00000000  -0.00000000   0.04436854          0.00     -0.00   6526.84


     Writing output data file Fr.save/

     init_run     :      0.34s CPU      0.37s WALL (       1 calls)
     electrons    :      1.93s CPU      2.10s WALL (       1 calls)
     forces       :      0.03s CPU      0.03s WALL (       1 calls)
     stress       :      0.06s CPU      0.06s WALL (       1 calls)

     Called by init_run:
     wfcinit      :      0.08s CPU      0.08s WALL (       1 calls)
     potinit      :      0.12s CPU      0.14s WALL (       1 calls)
     hinit0       :      0.13s CPU      0.13s WALL (       1 calls)

     Called by electrons:
     c_bands      :      1.10s CPU      1.16s WALL (       7 calls)
     sum_band     :      0.18s CPU      0.19s WALL (       7 calls)
     v_of_rho     :      0.02s CPU      0.02s WALL (       7 calls)
     newd         :      0.03s CPU      0.03s WALL (       7 calls)
     PAW_pot      :      0.72s CPU      0.83s WALL (       7 calls)
     mix_rho      :      0.00s CPU      0.00s WALL (       7 calls)

     Called by c_bands:
     init_us_2    :      0.02s CPU      0.02s WALL (     340 calls)
     cegterg      :      1.06s CPU      1.13s WALL (     140 calls)

     Called by sum_band:
     sum_band:bec :      0.00s CPU      0.00s WALL (     140 calls)
     addusdens    :      0.02s CPU      0.02s WALL (       7 calls)

     Called by *egterg:
     h_psi        :      0.76s CPU      0.81s WALL (     512 calls)
     s_psi        :      0.02s CPU      0.02s WALL (     512 calls)
     g_psi        :      0.00s CPU      0.00s WALL (     352 calls)
     cdiaghg      :      0.21s CPU      0.22s WALL (     472 calls)

     Called by h_psi:
     h_psi:pot    :      0.76s CPU      0.81s WALL (     512 calls)
     h_psi:calbec :      0.04s CPU      0.04s WALL (     512 calls)
     vloc_psi     :      0.69s CPU      0.74s WALL (     512 calls)
     add_vuspsi   :      0.02s CPU      0.02s WALL (     512 calls)

     General routines
     calbec       :      0.06s CPU      0.06s WALL (     752 calls)
     fft          :      0.01s CPU      0.01s WALL (     104 calls)
     ffts         :      0.00s CPU      0.00s WALL (       7 calls)
     fftw         :      0.75s CPU      0.80s WALL (   12258 calls)

     Parallel routines
     fft_scatt_xy :      0.08s CPU      0.08s WALL (   12369 calls)
     fft_scatt_yz :      0.17s CPU      0.18s WALL (   12369 calls)

     PWSCF        :     3.26s CPU         3.51s WALL


   This run was terminated on:  22:34:55   7Apr2024            

=------------------------------------------------------------------------------=
   JOB DONE.
=------------------------------------------------------------------------------=
