
     Program PWSCF v.6.3MaX starts on  7Apr2024 at 22:34:30 

     This program is part of the open-source Quantum ESPRESSO suite
     for quantum simulation of materials; please cite
         "P. Giannozzi et al., J. Phys.:Condens. Matter 21 395502 (2009);
         "P. Giannozzi et al., J. Phys.:Condens. Matter 29 465901 (2017);
          URL http://www.quantum-espresso.org", 
     in publications or presentations arising from this work. More details at
     http://www.quantum-espresso.org/quote

     Parallel version (MPI), running on     5 processors

     MPI processes distributed on     1 nodes
     R & G space division:  proc/nbgrp/npool/nimage =       5
     Waiting for input...
     Reading input from standard input

     Current dimensions of program PWSCF are:
     Max number of different atomic species (ntypx) = 10
     Max number of k-points (npk) =  40000
     Max angular momentum in pseudopotentials (lmaxx) =  3
               file Fr.pbe-spdn-kjpaw_psl.1.0.0.UPF: wavefunction(s)  6P renormalized

     Subspace diagonalization in iterative solution of the eigenvalue problem:
     a serial algorithm will be used


     Parallelization info
     --------------------
     sticks:   dense  smooth     PW     G-vecs:    dense   smooth      PW
     Min          59      59     18                  657      657     121
     Max          59      59     19                  658      658     123
     Sum         295     295     91                 3287     3287     609



     bravais-lattice index     =            2
     lattice parameter (alat)  =       6.8300  a.u.
     unit-cell volume          =      79.6530 (a.u.)^3
     number of atoms/cell      =            1
     number of atomic types    =            1
     number of electrons       =        19.00
     number of Kohn-Sham states=           14
     kinetic-energy cutoff     =      45.0000  Ry
     charge density cutoff     =     180.0000  Ry
     convergence threshold     =      1.0E-08
     mixing beta               =       0.7000
     number of iterations used =            8  plain     mixing
     Exchange-correlation      = SLA PW PBX PBC ( 1  4  3  4 0 0)

     celldm(1)=   6.830000  celldm(2)=   0.000000  celldm(3)=   0.000000
     celldm(4)=   0.000000  celldm(5)=   0.000000  celldm(6)=   0.000000

     crystal axes: (cart. coord. in units of alat)
               a(1) = (  -0.500000   0.000000   0.500000 )  
               a(2) = (   0.000000   0.500000   0.500000 )  
               a(3) = (  -0.500000   0.500000   0.000000 )  

     reciprocal axes: (cart. coord. in units 2 pi/alat)
               b(1) = ( -1.000000 -1.000000  1.000000 )  
               b(2) = (  1.000000  1.000000  1.000000 )  
               b(3) = ( -1.000000  1.000000 -1.000000 )  


     PseudoPot. # 1 for Fr read from file:
     /home/lorenzo/pseudos/Fr/Fr.pbe-spdn-kjpaw_psl.1.0.0.UPF
     MD5 check sum: 362a188b966a64328b94f1ef5f32e8c4
     Pseudo is Projector augmented-wave + core cor, Zval = 19.0
     Generated using "atomic" code by A. Dal Corso v.6.2.2
     Shape of augmentation charge: PSQ
     Using radial grid of 1287 points,  6 beta functions with: 
                l(1) =   0
                l(2) =   0
                l(3) =   1
                l(4) =   1
                l(5) =   2
                l(6) =   2
     Q(r) pseudized with 0 coefficients 


     atomic species   valence    mass     pseudopotential
        Fr            19.00   223.00000     Fr( 1.00)

     48 Sym. Ops., with inversion, found



   Cartesian axes

     site n.     atom                  positions (alat units)
         1           Fr  tau(   1) = (   0.0000000   0.0000000   0.0000000  )

     number of k points=    10  gaussian smearing, width (Ry)=  0.0100
                       cart. coord. in units 2pi/alat
        k(    1) = (   0.0000000   0.0000000   0.0000000), wk =   0.0160000
        k(    2) = (  -0.2000000   0.2000000  -0.2000000), wk =   0.1280000
        k(    3) = (  -0.4000000   0.4000000  -0.4000000), wk =   0.1280000
        k(    4) = (   0.0000000   0.4000000   0.0000000), wk =   0.0960000
        k(    5) = (  -0.2000000   0.6000000  -0.2000000), wk =   0.3840000
        k(    6) = (   0.6000000  -0.2000000   0.6000000), wk =   0.3840000
        k(    7) = (   0.4000000   0.0000000   0.4000000), wk =   0.1920000
        k(    8) = (   0.0000000   0.8000000   0.0000000), wk =   0.0960000
        k(    9) = (   0.8000000   0.0000000   0.8000000), wk =   0.1920000
        k(   10) = (   0.6000000  -0.2000000   1.0000000), wk =   0.3840000

     Dense  grid:     3287 G-vectors     FFT dimensions: (  24,  24,  24)

     Estimated max dynamical RAM per process >       3.87 MB

     Estimated total dynamical RAM >      19.35 MB

     Check: negative/imaginary core charge=   -0.000013    0.000000

     Initial potential from superposition of free atoms

     starting charge   18.97009, renormalised to   19.00000
     Starting wfcs are   10 randomized atomic wfcs +    4 random wfcs
     Checking if some PAW data can be deallocated... 

     total cpu time spent up to now is        1.3 secs

     Self-consistent Calculation

     iteration #  1     ecut=    45.00 Ry     beta= 0.70
     Davidson diagonalization with overlap
     ethr =  1.00E-02,  avg # of iterations =  4.8

     Threshold (ethr) on eigenvalues was too large:
     Diagonalizing with lowered threshold

     Davidson diagonalization with overlap
     ethr =  1.16E-04,  avg # of iterations =  1.6

     total cpu time spent up to now is        1.7 secs

     total energy              =   -1069.93373497 Ry
     Harris-Foulkes estimate   =   -1069.94783785 Ry
     estimated scf accuracy    <       0.02193472 Ry

     iteration #  2     ecut=    45.00 Ry     beta= 0.70
     Davidson diagonalization with overlap
     ethr =  1.15E-04,  avg # of iterations =  2.0

     total cpu time spent up to now is        1.9 secs

     total energy              =   -1069.93857375 Ry
     Harris-Foulkes estimate   =   -1069.93909309 Ry
     estimated scf accuracy    <       0.00115152 Ry

     iteration #  3     ecut=    45.00 Ry     beta= 0.70
     Davidson diagonalization with overlap
     ethr =  6.06E-06,  avg # of iterations =  2.3

     total cpu time spent up to now is        2.1 secs

     total energy              =   -1069.93875133 Ry
     Harris-Foulkes estimate   =   -1069.93873914 Ry
     estimated scf accuracy    <       0.00002573 Ry

     iteration #  4     ecut=    45.00 Ry     beta= 0.70
     Davidson diagonalization with overlap
     ethr =  1.35E-07,  avg # of iterations =  2.0

     total cpu time spent up to now is        2.3 secs

     total energy              =   -1069.93875747 Ry
     Harris-Foulkes estimate   =   -1069.93875655 Ry
     estimated scf accuracy    <       0.00000047 Ry

     iteration #  5     ecut=    45.00 Ry     beta= 0.70
     Davidson diagonalization with overlap
     ethr =  2.49E-09,  avg # of iterations =  2.3

     total cpu time spent up to now is        2.5 secs

     total energy              =   -1069.93875760 Ry
     Harris-Foulkes estimate   =   -1069.93875759 Ry
     estimated scf accuracy    <       0.00000007 Ry

     iteration #  6     ecut=    45.00 Ry     beta= 0.70
     Davidson diagonalization with overlap
     ethr =  3.45E-10,  avg # of iterations =  2.0

     total cpu time spent up to now is        2.7 secs

     End of self-consistent calculation

          k = 0.0000 0.0000 0.0000 (   411 PWs)   bands (ev):

    -9.2425  -9.2425  -9.2425  -8.9161  -8.9161   9.4781  47.2671  47.2671
    47.2671  48.3352  54.0591  54.0591  54.0591  57.7802

          k =-0.2000 0.2000-0.2000 (   402 PWs)   bands (ev):

    -9.2258  -9.1578  -9.1578  -8.8616  -8.8616  11.0841  36.8727  45.4486
    45.4486  48.2660  54.3980  55.1585  55.1585  57.4002

          k =-0.4000 0.4000-0.4000 (   407 PWs)   bands (ev):

    -9.2323  -9.1694  -9.1694  -8.6700  -8.6700  15.6901  25.9693  43.3444
    43.3444  48.1304  51.6450  52.2897  52.2897  63.6852

          k = 0.0000 0.4000 0.0000 (   407 PWs)   bands (ev):

    -9.3549  -9.0199  -9.0053  -9.0053  -8.8167  11.6183  40.9410  41.1478
    41.1478  45.5041  47.7932  60.3371  60.4624  60.4624

          k =-0.2000 0.6000-0.2000 (   404 PWs)   bands (ev):

    -9.3275  -9.1122  -8.9501  -8.8331  -8.6336  15.2873  30.2137  37.8383
    39.1908  45.0016  51.7033  58.3486  58.7050  60.6801

          k = 0.6000-0.2000 0.6000 (   404 PWs)   bands (ev):

    -9.2470  -9.0690  -8.9941  -8.7635  -8.6769  18.4558  25.1852  34.5972
    40.6446  45.6449  55.7753  55.8395  60.8745  62.5932

          k = 0.4000 0.0000 0.4000 (   409 PWs)   bands (ev):

    -9.1901  -9.1524  -8.9875  -8.9554  -8.7378  13.7298  33.2460  35.1924
    45.0794  48.6956  52.7679  55.0712  55.6253  58.1136

          k = 0.0000 0.8000 0.0000 (   404 PWs)   bands (ev):

    -9.5167  -9.2446  -8.6332  -8.6253  -8.6253  17.9052  28.9978  36.2234
    36.2234  43.1738  43.5097  64.5155  67.9751  67.9751

          k = 0.8000 0.0000 0.8000 (   405 PWs)   bands (ev):

    -9.4150  -9.1680  -8.7120  -8.6888  -8.6163  21.1193  26.1968  30.3546
    36.7942  43.5622  50.3727  61.6171  64.5640  66.5501

          k = 0.6000-0.2000 1.0000 (   408 PWs)   bands (ev):

    -9.2188  -9.1596  -8.9368  -8.7434  -8.6324  19.3788  28.5547  30.7792
    34.6378  50.7827  51.1557  54.8211  61.9379  65.9841

     the Fermi energy is    45.6471 ev

!    total energy              =   -1069.93875760 Ry
     Harris-Foulkes estimate   =   -1069.93875760 Ry
     estimated scf accuracy    <          4.0E-11 Ry

     total all-electron energy =    -48515.549069 Ry

     The total energy is the sum of the following terms:

     one-electron contribution =       1.51334135 Ry
     hartree contribution      =      28.15993017 Ry
     xc contribution           =     -64.57404509 Ry
     ewald contribution        =    -242.33311996 Ry
     one-center paw contrib.   =    -792.70360551 Ry
     smearing contrib. (-TS)   =      -0.00125856 Ry

     convergence has been achieved in   6 iterations

     Forces acting on atoms (cartesian axes, Ry/au):

     atom    1 type  1   force =     0.00000000    0.00000000    0.00000000

     Total force =     0.000000     Total SCF correction =     0.000000


     Computing stress (Cartesian axis) and pressure

          total   stress  (Ry/bohr**3)                   (kbar)     P= 6619.38
   0.04499762   0.00000000  -0.00000000       6619.38      0.00     -0.00
   0.00000000   0.04499762   0.00000000          0.00   6619.38      0.00
  -0.00000000   0.00000000   0.04499762         -0.00      0.00   6619.38


     Writing output data file Fr.save/

     init_run     :      0.32s CPU      0.34s WALL (       1 calls)
     electrons    :      1.27s CPU      1.40s WALL (       1 calls)
     forces       :      0.02s CPU      0.02s WALL (       1 calls)
     stress       :      0.07s CPU      0.07s WALL (       1 calls)

     Called by init_run:
     wfcinit      :      0.03s CPU      0.03s WALL (       1 calls)
     potinit      :      0.12s CPU      0.13s WALL (       1 calls)
     hinit0       :      0.15s CPU      0.15s WALL (       1 calls)

     Called by electrons:
     c_bands      :      0.50s CPU      0.53s WALL (       7 calls)
     sum_band     :      0.10s CPU      0.11s WALL (       7 calls)
     v_of_rho     :      0.02s CPU      0.02s WALL (       7 calls)
     newd         :      0.04s CPU      0.04s WALL (       7 calls)
     PAW_pot      :      0.73s CPU      0.83s WALL (       7 calls)
     mix_rho      :      0.00s CPU      0.00s WALL (       7 calls)

     Called by c_bands:
     init_us_2    :      0.01s CPU      0.01s WALL (     170 calls)
     cegterg      :      0.48s CPU      0.51s WALL (      70 calls)

     Called by sum_band:
     sum_band:bec :      0.00s CPU      0.00s WALL (      70 calls)
     addusdens    :      0.02s CPU      0.02s WALL (       7 calls)

     Called by *egterg:
     h_psi        :      0.33s CPU      0.36s WALL (     250 calls)
     s_psi        :      0.01s CPU      0.01s WALL (     250 calls)
     g_psi        :      0.00s CPU      0.00s WALL (     170 calls)
     cdiaghg      :      0.10s CPU      0.10s WALL (     230 calls)

     Called by h_psi:
     h_psi:pot    :      0.33s CPU      0.35s WALL (     250 calls)
     h_psi:calbec :      0.01s CPU      0.01s WALL (     250 calls)
     vloc_psi     :      0.31s CPU      0.33s WALL (     250 calls)
     add_vuspsi   :      0.01s CPU      0.01s WALL (     250 calls)

     General routines
     calbec       :      0.02s CPU      0.03s WALL (     370 calls)
     fft          :      0.02s CPU      0.02s WALL (     104 calls)
     ffts         :      0.00s CPU      0.00s WALL (       7 calls)
     fftw         :      0.34s CPU      0.36s WALL (    6008 calls)

     Parallel routines
     fft_scatt_xy :      0.03s CPU      0.03s WALL (    6119 calls)
     fft_scatt_yz :      0.11s CPU      0.12s WALL (    6119 calls)

     PWSCF        :     2.67s CPU         2.87s WALL


   This run was terminated on:  22:34:33   7Apr2024            

=------------------------------------------------------------------------------=
   JOB DONE.
=------------------------------------------------------------------------------=
