
     Program PWSCF v.6.3MaX starts on  7Apr2024 at 22:42: 9 

     This program is part of the open-source Quantum ESPRESSO suite
     for quantum simulation of materials; please cite
         "P. Giannozzi et al., J. Phys.:Condens. Matter 21 395502 (2009);
         "P. Giannozzi et al., J. Phys.:Condens. Matter 29 465901 (2017);
          URL http://www.quantum-espresso.org", 
     in publications or presentations arising from this work. More details at
     http://www.quantum-espresso.org/quote

     Parallel version (MPI), running on     5 processors

     MPI processes distributed on     1 nodes
     R & G space division:  proc/nbgrp/npool/nimage =       5
     Waiting for input...
     Reading input from standard input

     Current dimensions of program PWSCF are:
     Max number of different atomic species (ntypx) = 10
     Max number of k-points (npk) =  40000
     Max angular momentum in pseudopotentials (lmaxx) =  3

     Subspace diagonalization in iterative solution of the eigenvalue problem:
     a serial algorithm will be used


     Parallelization info
     --------------------
     sticks:   dense  smooth     PW     G-vecs:    dense   smooth      PW
     Min          75      75     24                 1003     1003     187
     Max          76      76     25                 1007     1007     191
     Sum         379     379    121                 5029     5029     941



     bravais-lattice index     =            2
     lattice parameter (alat)  =       6.8300  a.u.
     unit-cell volume          =      79.6530 (a.u.)^3
     number of atoms/cell      =            1
     number of atomic types    =            1
     number of electrons       =        19.00
     number of Kohn-Sham states=           14
     kinetic-energy cutoff     =      60.0000  Ry
     charge density cutoff     =     240.0000  Ry
     convergence threshold     =      1.0E-08
     mixing beta               =       0.7000
     number of iterations used =            8  plain     mixing
     Exchange-correlation      = PBE ( 1  4  3  4 0 0)

     celldm(1)=   6.830000  celldm(2)=   0.000000  celldm(3)=   0.000000
     celldm(4)=   0.000000  celldm(5)=   0.000000  celldm(6)=   0.000000

     crystal axes: (cart. coord. in units of alat)
               a(1) = (  -0.500000   0.000000   0.500000 )  
               a(2) = (   0.000000   0.500000   0.500000 )  
               a(3) = (  -0.500000   0.500000   0.000000 )  

     reciprocal axes: (cart. coord. in units 2 pi/alat)
               b(1) = ( -1.000000 -1.000000  1.000000 )  
               b(2) = (  1.000000  1.000000  1.000000 )  
               b(3) = ( -1.000000  1.000000 -1.000000 )  


     PseudoPot. # 1 for Fr read from file:
     /home/lorenzo/pseudos/Fr/Fr.pbe-spdn-rrkjus_psl.1.0.0.UPF
     MD5 check sum: 07cabfa18982bd6b5b9d8ae5689d9732
     Pseudo is Ultrasoft + core correction, Zval = 19.0
     Generated using "atomic" code by A. Dal Corso v.6.2.2
     Using radial grid of 1287 points,  6 beta functions with: 
                l(1) =   0
                l(2) =   0
                l(3) =   1
                l(4) =   1
                l(5) =   2
                l(6) =   2
     Q(r) pseudized with 0 coefficients 


     atomic species   valence    mass     pseudopotential
        Fr            19.00   223.00000     Fr( 1.00)

     48 Sym. Ops., with inversion, found



   Cartesian axes

     site n.     atom                  positions (alat units)
         1           Fr  tau(   1) = (   0.0000000   0.0000000   0.0000000  )

     number of k points=    10  gaussian smearing, width (Ry)=  0.0100
                       cart. coord. in units 2pi/alat
        k(    1) = (   0.0000000   0.0000000   0.0000000), wk =   0.0160000
        k(    2) = (  -0.2000000   0.2000000  -0.2000000), wk =   0.1280000
        k(    3) = (  -0.4000000   0.4000000  -0.4000000), wk =   0.1280000
        k(    4) = (   0.0000000   0.4000000   0.0000000), wk =   0.0960000
        k(    5) = (  -0.2000000   0.6000000  -0.2000000), wk =   0.3840000
        k(    6) = (   0.6000000  -0.2000000   0.6000000), wk =   0.3840000
        k(    7) = (   0.4000000   0.0000000   0.4000000), wk =   0.1920000
        k(    8) = (   0.0000000   0.8000000   0.0000000), wk =   0.0960000
        k(    9) = (   0.8000000   0.0000000   0.8000000), wk =   0.1920000
        k(   10) = (   0.6000000  -0.2000000   1.0000000), wk =   0.3840000

     Dense  grid:     5029 G-vectors     FFT dimensions: (  24,  24,  24)

     Estimated max dynamical RAM per process >       5.39 MB

     Estimated total dynamical RAM >      26.93 MB

     Check: negative/imaginary core charge=   -0.000002    0.000000

     Initial potential from superposition of free atoms

     starting charge   18.97009, renormalised to   19.00000
     Starting wfcs are   10 randomized atomic wfcs +    4 random wfcs

     total cpu time spent up to now is        1.1 secs

     Self-consistent Calculation

     iteration #  1     ecut=    60.00 Ry     beta= 0.70
     Davidson diagonalization with overlap
     ethr =  1.00E-02,  avg # of iterations =  4.6

     Threshold (ethr) on eigenvalues was too large:
     Diagonalizing with lowered threshold

     Davidson diagonalization with overlap
     ethr =  1.14E-04,  avg # of iterations =  1.8

     total cpu time spent up to now is        1.3 secs

     total energy              =    -282.85796995 Ry
     Harris-Foulkes estimate   =    -282.87095285 Ry
     estimated scf accuracy    <       0.02125901 Ry

     iteration #  2     ecut=    60.00 Ry     beta= 0.70
     Davidson diagonalization with overlap
     ethr =  1.12E-04,  avg # of iterations =  2.0

     total cpu time spent up to now is        1.4 secs

     total energy              =    -282.86196598 Ry
     Harris-Foulkes estimate   =    -282.86289271 Ry
     estimated scf accuracy    <       0.00130355 Ry

     iteration #  3     ecut=    60.00 Ry     beta= 0.70
     Davidson diagonalization with overlap
     ethr =  6.86E-06,  avg # of iterations =  2.1

     total cpu time spent up to now is        1.5 secs

     total energy              =    -282.86224427 Ry
     Harris-Foulkes estimate   =    -282.86225830 Ry
     estimated scf accuracy    <       0.00003609 Ry

     iteration #  4     ecut=    60.00 Ry     beta= 0.70
     Davidson diagonalization with overlap
     ethr =  1.90E-07,  avg # of iterations =  2.0

     total cpu time spent up to now is        1.6 secs

     total energy              =    -282.86224857 Ry
     Harris-Foulkes estimate   =    -282.86224863 Ry
     estimated scf accuracy    <       0.00000050 Ry

     iteration #  5     ecut=    60.00 Ry     beta= 0.70
     Davidson diagonalization with overlap
     ethr =  2.65E-09,  avg # of iterations =  2.0

     total cpu time spent up to now is        1.8 secs

     total energy              =    -282.86224867 Ry
     Harris-Foulkes estimate   =    -282.86224869 Ry
     estimated scf accuracy    <       0.00000003 Ry

     iteration #  6     ecut=    60.00 Ry     beta= 0.70
     Davidson diagonalization with overlap
     ethr =  1.73E-10,  avg # of iterations =  2.0

     total cpu time spent up to now is        1.9 secs

     End of self-consistent calculation

          k = 0.0000 0.0000 0.0000 (   609 PWs)   bands (ev):

    -9.2360  -9.2360  -9.2360  -8.8982  -8.8982   9.4842  47.3007  47.3007
    47.3007  48.3283  53.8829  53.8829  53.8829  57.7938

          k =-0.2000 0.2000-0.2000 (   628 PWs)   bands (ev):

    -9.2259  -9.1544  -9.1544  -8.8669  -8.8669  11.0909  36.8711  45.4593
    45.4593  48.2363  54.3947  55.0646  55.0646  57.2749

          k =-0.4000 0.4000-0.4000 (   619 PWs)   bands (ev):

    -9.2230  -9.1729  -9.1729  -8.6528  -8.6528  15.6974  25.9773  43.3696
    43.3696  48.1152  51.5822  52.1341  52.1341  63.6488

          k = 0.0000 0.4000 0.0000 (   613 PWs)   bands (ev):

    -9.3492  -9.0210  -9.0048  -9.0048  -8.8029  11.6256  40.9732  41.1492
    41.1492  45.4218  47.7271  60.2473  60.4374  60.4374

          k =-0.2000 0.6000-0.2000 (   623 PWs)   bands (ev):

    -9.3352  -9.1022  -8.9555  -8.8263  -8.6275  15.2955  30.2224  37.8376
    39.1994  44.9180  51.6448  58.2459  58.6548  60.6132

          k = 0.6000-0.2000 0.6000 (   624 PWs)   bands (ev):

    -9.2484  -9.0631  -8.9971  -8.7525  -8.6644  18.4642  25.1922  34.5982
    40.6544  45.5782  55.7141  55.7163  60.8534  62.5138

          k = 0.4000 0.0000 0.4000 (   630 PWs)   bands (ev):

    -9.1781  -9.1496  -8.9881  -8.9468  -8.7192  13.7377  33.2595  35.1827
    45.0942  48.6519  52.7535  54.9950  55.4859  58.0364

          k = 0.0000 0.8000 0.0000 (   628 PWs)   bands (ev):

    -9.5313  -9.2515  -8.6441  -8.6140  -8.6140  17.9144  29.0119  36.2399
    36.2399  43.0989  43.3651  64.4770  67.9644  67.9645

          k = 0.8000 0.0000 0.8000 (   632 PWs)   bands (ev):

    -9.4230  -9.1718  -8.7009  -8.6853  -8.6080  21.1326  26.2051  30.3473
    36.8099  43.4642  50.2936  61.5712  64.5323  66.5346

          k = 0.6000-0.2000 1.0000 (   635 PWs)   bands (ev):

    -9.2143  -9.1499  -8.9361  -8.7279  -8.6204  19.3899  28.5661  30.7778
    34.6266  50.7674  51.0732  54.7249  61.9095  65.9559

     the Fermi energy is    45.5897 ev

!    total energy              =    -282.86224868 Ry
     Harris-Foulkes estimate   =    -282.86224868 Ry
     estimated scf accuracy    <          2.5E-10 Ry

     The total energy is the sum of the following terms:

     one-electron contribution =      -4.13294041 Ry
     hartree contribution      =      28.20033375 Ry
     xc contribution           =     -64.59509949 Ry
     ewald contribution        =    -242.33311991 Ry
     smearing contrib. (-TS)   =      -0.00142262 Ry

     convergence has been achieved in   6 iterations

     Forces acting on atoms (cartesian axes, Ry/au):

     atom    1 type  1   force =     0.00000000    0.00000000    0.00000000

     Total force =     0.000000     Total SCF correction =     0.000000


     Computing stress (Cartesian axis) and pressure

          total   stress  (Ry/bohr**3)                   (kbar)     P= 7202.62
   0.04896242   0.00000000   0.00000000       7202.62      0.00      0.00
   0.00000000   0.04896242  -0.00000000          0.00   7202.62     -0.00
   0.00000000  -0.00000000   0.04896242          0.00     -0.00   7202.62


     Writing output data file Fr.save/

     init_run     :      0.19s CPU      0.20s WALL (       1 calls)
     electrons    :      0.76s CPU      0.80s WALL (       1 calls)
     forces       :      0.03s CPU      0.03s WALL (       1 calls)
     stress       :      0.07s CPU      0.07s WALL (       1 calls)

     Called by init_run:
     wfcinit      :      0.03s CPU      0.03s WALL (       1 calls)
     potinit      :      0.01s CPU      0.01s WALL (       1 calls)
     hinit0       :      0.15s CPU      0.15s WALL (       1 calls)

     Called by electrons:
     c_bands      :      0.58s CPU      0.61s WALL (       7 calls)
     sum_band     :      0.12s CPU      0.13s WALL (       7 calls)
     v_of_rho     :      0.02s CPU      0.02s WALL (       7 calls)
     newd         :      0.04s CPU      0.04s WALL (       7 calls)
     mix_rho      :      0.00s CPU      0.00s WALL (       7 calls)

     Called by c_bands:
     init_us_2    :      0.02s CPU      0.02s WALL (     170 calls)
     cegterg      :      0.56s CPU      0.59s WALL (      70 calls)

     Called by sum_band:
     sum_band:bec :      0.00s CPU      0.00s WALL (      70 calls)
     addusdens    :      0.03s CPU      0.04s WALL (       7 calls)

     Called by *egterg:
     h_psi        :      0.38s CPU      0.41s WALL (     245 calls)
     s_psi        :      0.01s CPU      0.01s WALL (     245 calls)
     g_psi        :      0.00s CPU      0.00s WALL (     165 calls)
     cdiaghg      :      0.10s CPU      0.10s WALL (     225 calls)

     Called by h_psi:
     h_psi:pot    :      0.38s CPU      0.40s WALL (     245 calls)
     h_psi:calbec :      0.02s CPU      0.02s WALL (     245 calls)
     vloc_psi     :      0.35s CPU      0.37s WALL (     245 calls)
     add_vuspsi   :      0.01s CPU      0.01s WALL (     245 calls)

     General routines
     calbec       :      0.03s CPU      0.04s WALL (     365 calls)
     fft          :      0.01s CPU      0.02s WALL (     104 calls)
     ffts         :      0.00s CPU      0.00s WALL (       7 calls)
     fftw         :      0.38s CPU      0.40s WALL (    6142 calls)

     Parallel routines
     fft_scatt_xy :      0.04s CPU      0.04s WALL (    6253 calls)
     fft_scatt_yz :      0.12s CPU      0.13s WALL (    6253 calls)

     PWSCF        :     1.95s CPU         2.04s WALL


   This run was terminated on:  22:42:11   7Apr2024            

=------------------------------------------------------------------------------=
   JOB DONE.
=------------------------------------------------------------------------------=
