
     Program PWSCF v.6.3MaX starts on  7Apr2024 at 22:47: 0 

     This program is part of the open-source Quantum ESPRESSO suite
     for quantum simulation of materials; please cite
         "P. Giannozzi et al., J. Phys.:Condens. Matter 21 395502 (2009);
         "P. Giannozzi et al., J. Phys.:Condens. Matter 29 465901 (2017);
          URL http://www.quantum-espresso.org", 
     in publications or presentations arising from this work. More details at
     http://www.quantum-espresso.org/quote

     Parallel version (MPI), running on     5 processors

     MPI processes distributed on     1 nodes
     R & G space division:  proc/nbgrp/npool/nimage =       5
     Waiting for input...
     Reading input from standard input

     Current dimensions of program PWSCF are:
     Max number of different atomic species (ntypx) = 10
     Max number of k-points (npk) =  40000
     Max angular momentum in pseudopotentials (lmaxx) =  3

     Subspace diagonalization in iterative solution of the eigenvalue problem:
     a serial algorithm will be used


     Parallelization info
     --------------------
     sticks:   dense  smooth     PW     G-vecs:    dense   smooth      PW
     Min          87      87     30                 1245     1245     241
     Max          88      88     31                 1247     1247     244
     Sum         439     439    151                 6231     6231    1211



     bravais-lattice index     =            2
     lattice parameter (alat)  =       6.8300  a.u.
     unit-cell volume          =      79.6530 (a.u.)^3
     number of atoms/cell      =            1
     number of atomic types    =            1
     number of electrons       =        19.00
     number of Kohn-Sham states=           14
     kinetic-energy cutoff     =      70.0000  Ry
     charge density cutoff     =     280.0000  Ry
     convergence threshold     =      1.0E-08
     mixing beta               =       0.7000
     number of iterations used =            8  plain     mixing
     Exchange-correlation      = LDA ( 1  1  0  0 0 0)

     celldm(1)=   6.830000  celldm(2)=   0.000000  celldm(3)=   0.000000
     celldm(4)=   0.000000  celldm(5)=   0.000000  celldm(6)=   0.000000

     crystal axes: (cart. coord. in units of alat)
               a(1) = (  -0.500000   0.000000   0.500000 )  
               a(2) = (   0.000000   0.500000   0.500000 )  
               a(3) = (  -0.500000   0.500000   0.000000 )  

     reciprocal axes: (cart. coord. in units 2 pi/alat)
               b(1) = ( -1.000000 -1.000000  1.000000 )  
               b(2) = (  1.000000  1.000000  1.000000 )  
               b(3) = ( -1.000000  1.000000 -1.000000 )  


     PseudoPot. # 1 for Fr read from file:
     /home/lorenzo/pseudos/Fr/Fr.pz-spdn-rrkjus_psl.1.0.0.UPF
     MD5 check sum: 5665a43a3d1ea02b0b7dc7a0ae9ace04
     Pseudo is Ultrasoft + core correction, Zval = 19.0
     Generated using "atomic" code by A. Dal Corso v.6.2.2
     Using radial grid of 1287 points,  6 beta functions with: 
                l(1) =   0
                l(2) =   0
                l(3) =   1
                l(4) =   1
                l(5) =   2
                l(6) =   2
     Q(r) pseudized with 0 coefficients 


     atomic species   valence    mass     pseudopotential
        Fr            19.00   223.00000     Fr( 1.00)

     48 Sym. Ops., with inversion, found



   Cartesian axes

     site n.     atom                  positions (alat units)
         1           Fr  tau(   1) = (   0.0000000   0.0000000   0.0000000  )

     number of k points=    56  gaussian smearing, width (Ry)=  0.0100
                       cart. coord. in units 2pi/alat
        k(    1) = (   0.0000000   0.0000000   0.0000000), wk =   0.0015026
        k(    2) = (  -0.0909091   0.0909091  -0.0909091), wk =   0.0120210
        k(    3) = (  -0.1818182   0.1818182  -0.1818182), wk =   0.0120210
        k(    4) = (  -0.2727273   0.2727273  -0.2727273), wk =   0.0120210
        k(    5) = (  -0.3636364   0.3636364  -0.3636364), wk =   0.0120210
        k(    6) = (  -0.4545455   0.4545455  -0.4545455), wk =   0.0120210
        k(    7) = (   0.0000000   0.1818182   0.0000000), wk =   0.0090158
        k(    8) = (  -0.0909091   0.2727273  -0.0909091), wk =   0.0360631
        k(    9) = (  -0.1818182   0.3636364  -0.1818182), wk =   0.0360631
        k(   10) = (  -0.2727273   0.4545455  -0.2727273), wk =   0.0360631
        k(   11) = (  -0.3636364   0.5454545  -0.3636364), wk =   0.0360631
        k(   12) = (   0.5454545  -0.3636364   0.5454545), wk =   0.0360631
        k(   13) = (   0.4545455  -0.2727273   0.4545455), wk =   0.0360631
        k(   14) = (   0.3636364  -0.1818182   0.3636364), wk =   0.0360631
        k(   15) = (   0.2727273  -0.0909091   0.2727273), wk =   0.0360631
        k(   16) = (   0.1818182  -0.0000000   0.1818182), wk =   0.0180316
        k(   17) = (   0.0000000   0.3636364   0.0000000), wk =   0.0090158
        k(   18) = (  -0.0909091   0.4545455  -0.0909091), wk =   0.0360631
        k(   19) = (  -0.1818182   0.5454545  -0.1818182), wk =   0.0360631
        k(   20) = (  -0.2727273   0.6363636  -0.2727273), wk =   0.0360631
        k(   21) = (   0.6363636  -0.2727273   0.6363636), wk =   0.0360631
        k(   22) = (   0.5454545  -0.1818182   0.5454545), wk =   0.0360631
        k(   23) = (   0.4545455  -0.0909091   0.4545455), wk =   0.0360631
        k(   24) = (   0.3636364   0.0000000   0.3636364), wk =   0.0180316
        k(   25) = (   0.0000000   0.5454545   0.0000000), wk =   0.0090158
        k(   26) = (  -0.0909091   0.6363636  -0.0909091), wk =   0.0360631
        k(   27) = (  -0.1818182   0.7272727  -0.1818182), wk =   0.0360631
        k(   28) = (   0.7272727  -0.1818182   0.7272727), wk =   0.0360631
        k(   29) = (   0.6363636  -0.0909091   0.6363636), wk =   0.0360631
        k(   30) = (   0.5454545   0.0000000   0.5454545), wk =   0.0180316
        k(   31) = (   0.0000000   0.7272727   0.0000000), wk =   0.0090158
        k(   32) = (  -0.0909091   0.8181818  -0.0909091), wk =   0.0360631
        k(   33) = (   0.8181818  -0.0909091   0.8181818), wk =   0.0360631
        k(   34) = (   0.7272727   0.0000000   0.7272727), wk =   0.0180316
        k(   35) = (   0.0000000   0.9090909   0.0000000), wk =   0.0090158
        k(   36) = (   0.9090909  -0.0000000   0.9090909), wk =   0.0180316
        k(   37) = (  -0.1818182   0.3636364   0.0000000), wk =   0.0360631
        k(   38) = (  -0.2727273   0.4545455  -0.0909091), wk =   0.0721262
        k(   39) = (  -0.3636364   0.5454545  -0.1818182), wk =   0.0721262
        k(   40) = (   0.5454545  -0.3636364   0.7272727), wk =   0.0721262
        k(   41) = (  -0.1818182   0.5454545   0.0000000), wk =   0.0360631
        k(   42) = (  -0.2727273   0.6363636  -0.0909091), wk =   0.0721262
        k(   43) = (   0.6363636  -0.2727273   0.8181818), wk =   0.0721262
        k(   44) = (   0.5454545  -0.1818182   0.7272727), wk =   0.0721262
        k(   45) = (   0.4545455  -0.0909091   0.6363636), wk =   0.0721262
        k(   46) = (   0.3636364   0.0000000   0.5454545), wk =   0.0360631
        k(   47) = (  -0.1818182   0.7272727   0.0000000), wk =   0.0360631
        k(   48) = (   0.7272727  -0.1818182   0.9090909), wk =   0.0721262
        k(   49) = (   0.6363636  -0.0909091   0.8181818), wk =   0.0721262
        k(   50) = (   0.5454545   0.0000000   0.7272727), wk =   0.0360631
        k(   51) = (   0.8181818  -0.0909091   1.0000000), wk =   0.0360631
        k(   52) = (   0.7272727   0.0000000   0.9090909), wk =   0.0360631
        k(   53) = (   0.6363636  -0.2727273   1.0000000), wk =   0.0360631
        k(   54) = (   0.5454545  -0.1818182   0.9090909), wk =   0.0721262
        k(   55) = (   0.6363636  -0.0909091   1.0000000), wk =   0.0360631
        k(   56) = (   0.5454545   0.0000000   0.9090909), wk =   0.0360631

     Dense  grid:     6231 G-vectors     FFT dimensions: (  25,  25,  25)

     Estimated max dynamical RAM per process >       7.97 MB

     Estimated total dynamical RAM >      39.83 MB

     Check: negative/imaginary core charge=   -0.000002    0.000000

     Initial potential from superposition of free atoms

     starting charge   18.97647, renormalised to   19.00000
     Starting wfcs are   10 randomized atomic wfcs +    4 random wfcs

     total cpu time spent up to now is        1.2 secs

     Self-consistent Calculation

     iteration #  1     ecut=    70.00 Ry     beta= 0.70
     Davidson diagonalization with overlap
     ethr =  1.00E-02,  avg # of iterations =  4.7

     Threshold (ethr) on eigenvalues was too large:
     Diagonalizing with lowered threshold

     Davidson diagonalization with overlap
     ethr =  9.21E-05,  avg # of iterations =  1.9

     total cpu time spent up to now is        2.9 secs

     total energy              =    -282.48742467 Ry
     Harris-Foulkes estimate   =    -282.49934163 Ry
     estimated scf accuracy    <       0.01738030 Ry

     iteration #  2     ecut=    70.00 Ry     beta= 0.70
     Davidson diagonalization with overlap
     ethr =  9.15E-05,  avg # of iterations =  2.0

     total cpu time spent up to now is        3.6 secs

     total energy              =    -282.49038312 Ry
     Harris-Foulkes estimate   =    -282.49089012 Ry
     estimated scf accuracy    <       0.00066885 Ry

     iteration #  3     ecut=    70.00 Ry     beta= 0.70
     Davidson diagonalization with overlap
     ethr =  3.52E-06,  avg # of iterations =  2.4

     total cpu time spent up to now is        4.3 secs

     total energy              =    -282.49050974 Ry
     Harris-Foulkes estimate   =    -282.49052941 Ry
     estimated scf accuracy    <       0.00003286 Ry

     iteration #  4     ecut=    70.00 Ry     beta= 0.70
     Davidson diagonalization with overlap
     ethr =  1.73E-07,  avg # of iterations =  2.0

     total cpu time spent up to now is        5.0 secs

     total energy              =    -282.49051415 Ry
     Harris-Foulkes estimate   =    -282.49051418 Ry
     estimated scf accuracy    <       0.00000012 Ry

     iteration #  5     ecut=    70.00 Ry     beta= 0.70
     Davidson diagonalization with overlap
     ethr =  6.54E-10,  avg # of iterations =  2.3

     total cpu time spent up to now is        5.7 secs

     End of self-consistent calculation

          k = 0.0000 0.0000 0.0000 (   749 PWs)   bands (ev):

    -9.4756  -9.4756  -9.4756  -9.1279  -9.1279   9.0990  46.8929  46.8929
    46.8929  48.0935  53.6766  53.6766  53.6766  57.5333

          k =-0.0909 0.0909-0.0909 (   791 PWs)   bands (ev):

    -9.4752  -9.4515  -9.4515  -9.1312  -9.1312   9.4298  43.3028  46.3900
    46.3900  47.9607  54.4969  54.4969  55.5707  57.3773

          k =-0.1818 0.1818-0.1818 (   794 PWs)   bands (ev):

    -9.4694  -9.4011  -9.4011  -9.1102  -9.1102  10.4242  37.6560  45.3079
    45.3079  47.9871  54.4973  55.2210  55.2210  56.5224

          k =-0.2727 0.2727-0.2727 (   796 PWs)   bands (ev):

    -9.4643  -9.3861  -9.3861  -9.0298  -9.0298  12.0740  32.1995  44.1640
    44.1640  47.9946  52.7678  53.4291  53.4291  59.2120

          k =-0.3636 0.3636-0.3636 (   784 PWs)   bands (ev):

    -9.4628  -9.4036  -9.4036  -8.9208  -8.9208  14.3013  27.3420  43.2403
    43.2403  47.9352  51.5835  52.2381  52.2381  62.1898

          k =-0.4545 0.4545-0.4545 (   787 PWs)   bands (ev):

    -9.4641  -9.4213  -9.4213  -8.8492  -8.8492  16.6281  23.6775  42.7249
    42.7249  47.8541  51.0306  51.6573  51.6573  64.6969

          k = 0.0000 0.1818 0.0000 (   797 PWs)   bands (ev):

    -9.5047  -9.4259  -9.4259  -9.1582  -9.1090   9.5400  44.7691  44.7691
    45.1961  47.0859  53.9548  55.4044  56.0551  56.0551

          k =-0.0909 0.2727-0.0909 (   795 PWs)   bands (ev):

    -9.5151  -9.3708  -9.3661  -9.1754  -9.0775  10.3132  39.6872  43.2570
    44.8085  47.9716  51.3287  55.2801  57.7361  58.0079

          k =-0.1818 0.3636-0.1818 (   794 PWs)   bands (ev):

    -9.5025  -9.3521  -9.3345  -9.1314  -9.0036  11.7462  34.1633  42.1095
    43.6247  47.8829  51.6122  55.2232  56.3157  56.6455

          k =-0.2727 0.4545-0.2727 (   790 PWs)   bands (ev):

    -9.4839  -9.3751  -9.3466  -9.0283  -8.9038  13.7929  29.1154  41.4572
    42.1933  46.8856  53.0605  54.5044  54.6325  57.4787

          k =-0.3636 0.5455-0.3636 (   789 PWs)   bands (ev):

    -9.4688  -9.3991  -9.3693  -8.9272  -8.8419  16.1911  24.9672  40.8555
    41.3962  46.5224  53.1077  53.3754  54.0772  60.7227

          k = 0.5455-0.3636 0.5455 (   788 PWs)   bands (ev):

    -9.4521  -9.4137  -9.3803  -8.8724  -8.8521  17.3117  23.4090  39.9403
    41.9832  46.7524  52.2788  52.5846  54.8664  63.9555

          k = 0.4545-0.2727 0.4545 (   789 PWs)   bands (ev):

    -9.4397  -9.4115  -9.3725  -8.9362  -8.8824  15.3923  26.2148  39.5925
    43.2023  47.5178  51.6718  52.2591  56.0138  61.3550

          k = 0.3636-0.1818 0.3636 (   788 PWs)   bands (ev):

    -9.4520  -9.3835  -9.3533  -9.0600  -8.9486  13.0483  30.7375  39.8306
    44.9054  48.7030  51.3139  52.4282  57.5063  58.0788

          k = 0.2727-0.0909 0.2727 (   800 PWs)   bands (ev):

    -9.4709  -9.3718  -9.3618  -9.1512  -9.0360  11.1962  35.9598  40.6228
    46.6490  49.4422  51.8360  53.2124  55.3559  57.0956

          k = 0.1818-0.0000 0.1818 (   797 PWs)   bands (ev):

    -9.4810  -9.4196  -9.4009  -9.1561  -9.0979   9.9819  41.1524  42.2619
    47.3688  48.7873  53.8186  53.9711  54.9019  56.1684

          k = 0.0000 0.3636 0.0000 (   801 PWs)   bands (ev):

    -9.5766  -9.2818  -9.2818  -9.2355  -9.0489  10.8652  41.4349  41.4349
    41.4636  45.5034  48.4024  59.1243  59.5841  59.5841

          k =-0.0909 0.4545-0.0909 (   806 PWs)   bands (ev):

    -9.5953  -9.2972  -9.2186  -9.1770  -8.9879  12.0775  36.3114  40.0950
    40.8579  45.7456  47.7160  59.0655  59.6345  60.3701

          k =-0.1818 0.5455-0.1818 (   796 PWs)   bands (ev):

    -9.5720  -9.3316  -9.2165  -9.0922  -8.8921  13.9180  31.2880  38.9556
    39.3589  45.1309  50.8327  57.9477  58.1916  59.3382

          k =-0.2727 0.6364-0.2727 (   790 PWs)   bands (ev):

    -9.5347  -9.3322  -9.2388  -9.0307  -8.8323  16.2213  26.9466  37.1026
    39.3071  44.9272  54.8288  56.4296  56.8302  59.3377

          k = 0.6364-0.2727 0.6364 (   787 PWs)   bands (ev):

    -9.4999  -9.3207  -9.2583  -8.9829  -8.8489  18.0402  24.3311  35.6994
    39.9807  45.2287  55.3223  55.3456  59.4012  60.0922

          k = 0.5455-0.1818 0.5455 (   788 PWs)   bands (ev):

    -9.4596  -9.3378  -9.2621  -8.9450  -8.9435  16.9526  25.8795  34.9093
    41.3619  46.0324  54.3628  54.6437  60.6928  61.2346

          k = 0.4545-0.0909 0.4545 (   793 PWs)   bands (ev):

    -9.4140  -9.3859  -9.2475  -9.0855  -8.9351  14.6288  29.8618  34.8295
    43.3379  47.3634  53.3065  54.3764  57.5816  59.0719

          k = 0.3636 0.0000 0.3636 (   795 PWs)   bands (ev):

    -9.4407  -9.3767  -9.2645  -9.1827  -8.9674  12.6175  34.0913  36.0292
    45.5484  49.2204  51.7021  54.1048  54.9592  57.3772

          k = 0.0000 0.5455 0.0000 (   801 PWs)   bands (ev):

    -9.6691  -9.3453  -9.0878  -9.0878  -8.9693  13.0685  36.3302  38.5386
    38.5386  44.2308  44.9733  62.6095  62.6095  63.8783

          k =-0.0909 0.6364-0.0909 (   792 PWs)   bands (ev):

    -9.6821  -9.3885  -9.0500  -9.0071  -8.8891  14.6928  32.7049  36.4696
    37.6098  43.9824  46.0571  61.5506  62.3684  64.7841

          k =-0.1818 0.7273-0.1818 (   781 PWs)   bands (ev):

    -9.6388  -9.3803  -9.0688  -8.9844  -8.8236  16.8273  28.9002  33.9261
    37.4017  43.7918  49.7534  59.8389  60.8046  64.8502

          k = 0.7273-0.1818 0.7273 (   783 PWs)   bands (ev):

    -9.5804  -9.2987  -9.0937  -9.0259  -8.8394  18.8787  26.0712  31.9118
    37.9520  44.0287  54.1757  58.5273  59.3226  65.2179

          k = 0.6364-0.0909 0.6364 (   791 PWs)   bands (ev):

    -9.5232  -9.2053  -9.1120  -9.0806  -8.9360  18.7469  26.4518  30.6349
    39.2332  44.6986  57.6239  58.0119  58.8142  62.0535

          k = 0.5455 0.0000 0.5455 (   788 PWs)   bands (ev):

    -9.4642  -9.2803  -9.1289  -9.0679  -8.9989  16.6921  29.1821  30.7876
    41.1289  45.8188  56.1334  56.8758  58.4701  59.6928

          k = 0.0000 0.7273 0.0000 (   789 PWs)   bands (ev):

    -9.7535  -9.4522  -8.9037  -8.9037  -8.8953  16.0971  30.7560  36.4613
    36.4613  43.2687  43.3913  64.2583  66.1183  66.1183

          k =-0.0909 0.8182-0.0909 (   782 PWs)   bands (ev):

    -9.7479  -9.4723  -8.9158  -8.8641  -8.8162  18.0170  28.1362  34.1286
    36.0375  43.0761  45.1833  62.9010  65.4637  68.8229

          k = 0.8182-0.0909 0.8182 (   782 PWs)   bands (ev):

    -9.6804  -9.4228  -8.9423  -8.9072  -8.8213  19.9395  26.3830  30.9325
    36.3885  43.2258  49.1816  61.3938  63.8252  67.6289

          k = 0.7273 0.0000 0.7273 (   790 PWs)   bands (ev):

    -9.5983  -9.2901  -9.0210  -8.9904  -8.8927  20.2156  26.9616  28.5020
    37.4905  43.7605  53.8944  59.8669  61.7486  64.1238

          k = 0.0000 0.9091 0.0000 (   786 PWs)   bands (ev):

    -9.8034  -9.5186  -8.8513  -8.7926  -8.7926  19.6213  25.8406  35.3799
    35.3799  42.5540  42.9794  64.0976  69.9335  69.9354

          k = 0.9091-0.0000 0.9091 (   778 PWs)   bands (ev):

    -9.7722  -9.5050  -8.8634  -8.8089  -8.7912  20.6701  24.9150  33.4616
    35.4999  42.7954  44.9054  63.3119  68.0819  69.4953

          k =-0.1818 0.3636 0.0000 (   794 PWs)   bands (ev):

    -9.5276  -9.3327  -9.2890  -9.1988  -9.0224  11.3063  37.5290  39.1349
    44.8588  48.1768  49.4585  55.9495  56.5342  58.9014

          k =-0.2727 0.4545-0.0909 (   793 PWs)   bands (ev):

    -9.5040  -9.3498  -9.2547  -9.1427  -8.9449  12.9450  32.7865  37.6294
    43.0482  47.9707  51.1823  54.3959  56.7646  60.6425

          k =-0.3636 0.5455-0.1818 (   790 PWs)   bands (ev):

    -9.4680  -9.3838  -9.2679  -9.0344  -8.8822  15.1367  28.1138  37.1434
    41.1340  47.3701  52.1530  55.5990  57.2035  59.3121

          k = 0.5455-0.3636 0.7273 (   786 PWs)   bands (ev):

    -9.4419  -9.4120  -9.2725  -8.9587  -8.8556  17.3811  24.5942  37.1017
    39.8984  47.0571  51.7506  56.9748  58.0225  60.2481

          k =-0.1818 0.5455 0.0000 (   798 PWs)   bands (ev):

    -9.6082  -9.3378  -9.1626  -9.0937  -8.9271  13.4963  34.1574  36.4925
    39.7154  46.7489  46.9615  57.7374  61.0336  63.8928

          k =-0.2727 0.6364-0.0909 (   789 PWs)   bands (ev):

    -9.5679  -9.3582  -9.1653  -9.0203  -8.8722  15.4936  30.2152  34.9184
    37.9493  46.5009  50.2800  55.9403  61.5715  63.0973

          k = 0.6364-0.2727 0.8182 (   789 PWs)   bands (ev):

    -9.5154  -9.3404  -9.1628  -9.0229  -8.8460  17.7583  26.5400  33.9242
    37.1361  46.5639  53.6541  55.3917  61.2267  62.4055

          k = 0.5455-0.1818 0.7273 (   791 PWs)   bands (ev):

    -9.4730  -9.3315  -9.1303  -9.0608  -8.8712  18.7232  25.2647  32.9999
    37.6084  47.0692  53.2668  59.1738  60.2203  60.6739

          k = 0.4545-0.0909 0.6364 (   786 PWs)   bands (ev):

    -9.4291  -9.3722  -9.1656  -9.0271  -8.9307  16.9710  27.8259  32.5549
    38.9954  48.0169  52.6038  56.3879  59.4456  62.7099

          k = 0.3636 0.0000 0.5455 (   787 PWs)   bands (ev):

    -9.4484  -9.3833  -9.1868  -9.1023  -8.9262  14.7463  31.3261  33.4233
    40.9767  49.1433  51.2627  54.0729  58.5432  61.3966

          k =-0.1818 0.7273 0.0000 (   786 PWs)   bands (ev):

    -9.6826  -9.4211  -9.0309  -8.9066  -8.8591  16.4743  30.3325  34.5880
    35.7912  45.5972  45.7236  59.8716  65.8449  66.0641

          k = 0.7273-0.1818 0.9091 (   780 PWs)   bands (ev):

    -9.6199  -9.4005  -9.0545  -8.9149  -8.8287  18.5984  27.8428  31.9896
    35.1329  45.6861  49.5180  58.1610  64.2780  66.2931

          k = 0.6364-0.0909 0.8182 (   782 PWs)   bands (ev):

    -9.5467  -9.2996  -9.1071  -9.0003  -8.8430  19.9904  26.6287  29.7839
    35.7062  46.1466  54.0783  56.8088  61.1122  63.8811

          k = 0.5455 0.0000 0.7273 (   785 PWs)   bands (ev):

    -9.4849  -9.2358  -9.1649  -9.0349  -8.9165  18.9784  28.1262  28.8951
    37.0631  47.0226  55.2592  57.6473  58.9741  62.0273

          k = 0.8182-0.0909 1.0000 (   784 PWs)   bands (ev):

    -9.7270  -9.4793  -8.9151  -8.8502  -8.7927  19.8289  26.1847  33.5902
    34.1127  44.9696  45.2133  61.7658  66.3864  68.7620

          k = 0.7273 0.0000 0.9091 (   780 PWs)   bands (ev):

    -9.6395  -9.4210  -8.9702  -8.9315  -8.7951  20.7474  25.9469  30.7263
    34.4355  45.4236  49.2520  59.8473  63.3125  66.7095

          k = 0.6364-0.2727 1.0000 (   781 PWs)   bands (ev):

    -9.4907  -9.3818  -9.1674  -8.9237  -8.9121  17.5296  29.1217  31.5619
    35.8629  49.7520  50.1604  54.5062  63.8370  63.8795

          k = 0.5455-0.1818 0.9091 (   781 PWs)   bands (ev):

    -9.4224  -9.3589  -9.1787  -9.0110  -8.8432  19.4639  27.0322  30.6431
    34.5346  49.7788  52.5202  55.4201  59.6587  65.0779

          k = 0.6364-0.0909 1.0000 (   773 PWs)   bands (ev):

    -9.5188  -9.3916  -9.1102  -8.9577  -8.7931  20.3052  27.1539  30.5910
    32.7028  49.5792  49.8256  56.4783  60.7418  68.6087

          k = 0.5455 0.0000 0.9091 (   776 PWs)   bands (ev):

    -9.4281  -9.3056  -9.2384  -9.0052  -8.7942  20.6849  27.9065  28.6288
    32.8423  50.2324  54.3104  54.6265  57.0134  67.6780

     the Fermi energy is    46.5739 ev

!    total energy              =    -282.49051419 Ry
     Harris-Foulkes estimate   =    -282.49051419 Ry
     estimated scf accuracy    <          4.0E-09 Ry

     The total energy is the sum of the following terms:

     one-electron contribution =      -4.48912151 Ry
     hartree contribution      =      28.23569127 Ry
     xc contribution           =     -63.90339675 Ry
     ewald contribution        =    -242.33311988 Ry
     smearing contrib. (-TS)   =      -0.00056732 Ry

     convergence has been achieved in   5 iterations

     Forces acting on atoms (cartesian axes, Ry/au):

     atom    1 type  1   force =     0.00000000    0.00000000    0.00000000

     Total force =     0.000000     Total SCF correction =     0.000000


     Computing stress (Cartesian axis) and pressure

          total   stress  (Ry/bohr**3)                   (kbar)     P= 7020.29
   0.04772295   0.00000000   0.00000000       7020.29      0.00      0.00
   0.00000000   0.04772295   0.00000000          0.00   7020.29      0.00
  -0.00000000   0.00000000   0.04772295         -0.00      0.00   7020.29


     Writing output data file Fr.save/

     init_run     :      0.36s CPU      0.38s WALL (       1 calls)
     electrons    :      4.19s CPU      4.41s WALL (       1 calls)
     forces       :      0.06s CPU      0.07s WALL (       1 calls)
     stress       :      0.17s CPU      0.17s WALL (       1 calls)

     Called by init_run:
     wfcinit      :      0.18s CPU      0.19s WALL (       1 calls)
     potinit      :      0.00s CPU      0.00s WALL (       1 calls)
     hinit0       :      0.16s CPU      0.16s WALL (       1 calls)

     Called by electrons:
     c_bands      :      3.56s CPU      3.75s WALL (       6 calls)
     sum_band     :      0.59s CPU      0.62s WALL (       6 calls)
     v_of_rho     :      0.00s CPU      0.00s WALL (       6 calls)
     newd         :      0.04s CPU      0.04s WALL (       6 calls)
     mix_rho      :      0.00s CPU      0.00s WALL (       6 calls)

     Called by c_bands:
     init_us_2    :      0.09s CPU      0.09s WALL (     840 calls)
     cegterg      :      3.44s CPU      3.63s WALL (     336 calls)

     Called by sum_band:
     sum_band:bec :      0.00s CPU      0.00s WALL (     336 calls)
     addusdens    :      0.03s CPU      0.04s WALL (       6 calls)

     Called by *egterg:
     h_psi        :      2.44s CPU      2.59s WALL (    1254 calls)
     s_psi        :      0.08s CPU      0.09s WALL (    1254 calls)
     g_psi        :      0.01s CPU      0.01s WALL (     862 calls)
     cdiaghg      :      0.53s CPU      0.55s WALL (    1142 calls)

     Called by h_psi:
     h_psi:pot    :      2.42s CPU      2.58s WALL (    1254 calls)
     h_psi:calbec :      0.12s CPU      0.13s WALL (    1254 calls)
     vloc_psi     :      2.21s CPU      2.35s WALL (    1254 calls)
     add_vuspsi   :      0.08s CPU      0.09s WALL (    1254 calls)

     General routines
     calbec       :      0.20s CPU      0.21s WALL (    1870 calls)
     fft          :      0.01s CPU      0.01s WALL (      34 calls)
     ffts         :      0.00s CPU      0.00s WALL (       6 calls)
     fftw         :      2.50s CPU      2.65s WALL (   30134 calls)

     Parallel routines
     fft_scatt_xy :      0.20s CPU      0.21s WALL (   30174 calls)
     fft_scatt_yz :      0.71s CPU      0.74s WALL (   30174 calls)

     PWSCF        :     5.72s CPU         6.12s WALL


   This run was terminated on:  22:47: 6   7Apr2024            

=------------------------------------------------------------------------------=
   JOB DONE.
=------------------------------------------------------------------------------=
