
     Program PWSCF v.6.3MaX starts on  7Apr2024 at 22:44:59 

     This program is part of the open-source Quantum ESPRESSO suite
     for quantum simulation of materials; please cite
         "P. Giannozzi et al., J. Phys.:Condens. Matter 21 395502 (2009);
         "P. Giannozzi et al., J. Phys.:Condens. Matter 29 465901 (2017);
          URL http://www.quantum-espresso.org", 
     in publications or presentations arising from this work. More details at
     http://www.quantum-espresso.org/quote

     Parallel version (MPI), running on     5 processors

     MPI processes distributed on     1 nodes
     R & G space division:  proc/nbgrp/npool/nimage =       5
     Waiting for input...
     Reading input from standard input

     Current dimensions of program PWSCF are:
     Max number of different atomic species (ntypx) = 10
     Max number of k-points (npk) =  40000
     Max angular momentum in pseudopotentials (lmaxx) =  3
               file Fr.pbe-spdn-kjpaw_psl.1.0.0.UPF: wavefunction(s)  6P renormalized

     Subspace diagonalization in iterative solution of the eigenvalue problem:
     a serial algorithm will be used


     Parallelization info
     --------------------
     sticks:   dense  smooth     PW     G-vecs:    dense   smooth      PW
     Min          84      84     27                 1134     1134     213
     Max          85      85     28                 1137     1137     214
     Sum         421     421    139                 5673     5673    1067



     bravais-lattice index     =            2
     lattice parameter (alat)  =       6.8300  a.u.
     unit-cell volume          =      79.6530 (a.u.)^3
     number of atoms/cell      =            1
     number of atomic types    =            1
     number of electrons       =        19.00
     number of Kohn-Sham states=           14
     kinetic-energy cutoff     =      65.0000  Ry
     charge density cutoff     =     260.0000  Ry
     convergence threshold     =      1.0E-08
     mixing beta               =       0.7000
     number of iterations used =            8  plain     mixing
     Exchange-correlation      = SLA PW PBX PBC ( 1  4  3  4 0 0)

     celldm(1)=   6.830000  celldm(2)=   0.000000  celldm(3)=   0.000000
     celldm(4)=   0.000000  celldm(5)=   0.000000  celldm(6)=   0.000000

     crystal axes: (cart. coord. in units of alat)
               a(1) = (  -0.500000   0.000000   0.500000 )  
               a(2) = (   0.000000   0.500000   0.500000 )  
               a(3) = (  -0.500000   0.500000   0.000000 )  

     reciprocal axes: (cart. coord. in units 2 pi/alat)
               b(1) = ( -1.000000 -1.000000  1.000000 )  
               b(2) = (  1.000000  1.000000  1.000000 )  
               b(3) = ( -1.000000  1.000000 -1.000000 )  


     PseudoPot. # 1 for Fr read from file:
     /home/lorenzo/pseudos/Fr/Fr.pbe-spdn-kjpaw_psl.1.0.0.UPF
     MD5 check sum: 362a188b966a64328b94f1ef5f32e8c4
     Pseudo is Projector augmented-wave + core cor, Zval = 19.0
     Generated using "atomic" code by A. Dal Corso v.6.2.2
     Shape of augmentation charge: PSQ
     Using radial grid of 1287 points,  6 beta functions with: 
                l(1) =   0
                l(2) =   0
                l(3) =   1
                l(4) =   1
                l(5) =   2
                l(6) =   2
     Q(r) pseudized with 0 coefficients 


     atomic species   valence    mass     pseudopotential
        Fr            19.00   223.00000     Fr( 1.00)

     48 Sym. Ops., with inversion, found



   Cartesian axes

     site n.     atom                  positions (alat units)
         1           Fr  tau(   1) = (   0.0000000   0.0000000   0.0000000  )

     number of k points=    16  gaussian smearing, width (Ry)=  0.0100
                       cart. coord. in units 2pi/alat
        k(    1) = (   0.0000000   0.0000000   0.0000000), wk =   0.0092593
        k(    2) = (  -0.1666667   0.1666667  -0.1666667), wk =   0.0740741
        k(    3) = (  -0.3333333   0.3333333  -0.3333333), wk =   0.0740741
        k(    4) = (   0.5000000  -0.5000000   0.5000000), wk =   0.0370370
        k(    5) = (   0.0000000   0.3333333   0.0000000), wk =   0.0555556
        k(    6) = (  -0.1666667   0.5000000  -0.1666667), wk =   0.2222222
        k(    7) = (   0.6666667  -0.3333333   0.6666667), wk =   0.2222222
        k(    8) = (   0.5000000  -0.1666667   0.5000000), wk =   0.2222222
        k(    9) = (   0.3333333   0.0000000   0.3333333), wk =   0.1111111
        k(   10) = (   0.0000000   0.6666667   0.0000000), wk =   0.0555556
        k(   11) = (   0.8333333  -0.1666667   0.8333333), wk =   0.2222222
        k(   12) = (   0.6666667  -0.0000000   0.6666667), wk =   0.1111111
        k(   13) = (   0.0000000  -1.0000000   0.0000000), wk =   0.0277778
        k(   14) = (   0.6666667  -0.3333333   1.0000000), wk =   0.2222222
        k(   15) = (   0.5000000  -0.1666667   0.8333333), wk =   0.2222222
        k(   16) = (  -0.3333333  -1.0000000   0.0000000), wk =   0.1111111

     Dense  grid:     5673 G-vectors     FFT dimensions: (  25,  25,  25)

     Estimated max dynamical RAM per process >       6.13 MB

     Estimated total dynamical RAM >      30.66 MB

     Check: negative/imaginary core charge=   -0.000003    0.000000

     Initial potential from superposition of free atoms

     starting charge   18.97009, renormalised to   19.00000
     Starting wfcs are   10 randomized atomic wfcs +    4 random wfcs
     Checking if some PAW data can be deallocated... 

     total cpu time spent up to now is        1.3 secs

     Self-consistent Calculation

     iteration #  1     ecut=    65.00 Ry     beta= 0.70
     Davidson diagonalization with overlap
     ethr =  1.00E-02,  avg # of iterations =  4.4

     Threshold (ethr) on eigenvalues was too large:
     Diagonalizing with lowered threshold

     Davidson diagonalization with overlap
     ethr =  1.13E-04,  avg # of iterations =  2.2

     total cpu time spent up to now is        1.8 secs

     total energy              =   -1069.97202633 Ry
     Harris-Foulkes estimate   =   -1069.98553226 Ry
     estimated scf accuracy    <       0.02108353 Ry

     iteration #  2     ecut=    65.00 Ry     beta= 0.70
     Davidson diagonalization with overlap
     ethr =  1.11E-04,  avg # of iterations =  2.0

     total cpu time spent up to now is        2.1 secs

     total energy              =   -1069.97605932 Ry
     Harris-Foulkes estimate   =   -1069.97653992 Ry
     estimated scf accuracy    <       0.00091975 Ry

     iteration #  3     ecut=    65.00 Ry     beta= 0.70
     Davidson diagonalization with overlap
     ethr =  4.84E-06,  avg # of iterations =  3.1

     total cpu time spent up to now is        2.5 secs

     total energy              =   -1069.97619049 Ry
     Harris-Foulkes estimate   =   -1069.97619148 Ry
     estimated scf accuracy    <       0.00002329 Ry

     iteration #  4     ecut=    65.00 Ry     beta= 0.70
     Davidson diagonalization with overlap
     ethr =  1.23E-07,  avg # of iterations =  2.0

     total cpu time spent up to now is        2.9 secs

     total energy              =   -1069.97619646 Ry
     Harris-Foulkes estimate   =   -1069.97619591 Ry
     estimated scf accuracy    <       0.00000030 Ry

     iteration #  5     ecut=    65.00 Ry     beta= 0.70
     Davidson diagonalization with overlap
     ethr =  1.59E-09,  avg # of iterations =  2.2

     total cpu time spent up to now is        3.2 secs

     total energy              =   -1069.97619662 Ry
     Harris-Foulkes estimate   =   -1069.97619657 Ry
     estimated scf accuracy    <       0.00000006 Ry

     iteration #  6     ecut=    65.00 Ry     beta= 0.70
     Davidson diagonalization with overlap
     ethr =  3.27E-10,  avg # of iterations =  2.0

     total cpu time spent up to now is        3.5 secs

     End of self-consistent calculation

          k = 0.0000 0.0000 0.0000 (   725 PWs)   bands (ev):

    -9.2345  -9.2345  -9.2345  -8.8900  -8.8900   9.4744  47.2720  47.2720
    47.2720  48.3172  53.8803  53.8803  53.8803  57.8014

          k =-0.1667 0.1667-0.1667 (   712 PWs)   bands (ev):

    -9.2237  -9.1644  -9.1644  -8.8751  -8.8751  10.5894  38.9247  45.8627
    45.8627  48.2196  55.0575  55.8202  55.8202  56.3691

          k =-0.3333 0.3333-0.3333 (   697 PWs)   bands (ev):

    -9.2173  -9.1507  -9.1507  -8.7139  -8.7139  13.8936  29.1860  43.8712
    43.8712  48.1863  52.1795  52.7782  52.7782  61.4803

          k = 0.5000-0.5000 0.5000 (   718 PWs)   bands (ev):

    -9.2198  -9.1803  -9.1803  -8.5995  -8.5995  17.5630  23.2741  43.0217
    43.0217  48.0548  51.2464  51.7837  51.7837  65.4769

          k = 0.0000 0.3333 0.0000 (   693 PWs)   bands (ev):

    -9.3151  -9.0635  -9.0635  -8.9758  -8.8182  10.9604  42.3057  42.3057
    42.5991  45.9557  49.4152  58.6522  59.3038  59.3038

          k =-0.1667 0.5000-0.1667 (   700 PWs)   bands (ev):

    -9.3174  -9.0786  -8.9914  -8.8770  -8.6837  13.5464  32.8768  40.1857
    40.4953  45.7763  50.6969  58.1244  58.1885  59.0456

          k = 0.6667-0.3333 0.6667 (   706 PWs)   bands (ev):

    -9.2589  -9.0927  -9.0312  -8.7472  -8.5923  17.7018  25.2359  37.3257
    40.2393  45.4583  55.5251  55.5397  58.4586  58.9979

          k = 0.5000-0.1667 0.5000 (   703 PWs)   bands (ev):

    -9.1911  -9.1242  -9.0369  -8.7443  -8.6843  16.2890  27.4132  35.8985
    42.6669  46.8977  53.7818  54.2671  60.2539  60.6120

          k = 0.3333 0.0000 0.3333 (   710 PWs)   bands (ev):

    -9.2067  -9.1260  -9.0496  -8.9403  -8.7478  12.4421  35.5066  37.2979
    46.5770  50.1603  51.3610  53.9594  54.9554  57.3691

          k = 0.0000 0.6667 0.0000 (   717 PWs)   bands (ev):

    -9.4799  -9.1754  -8.7193  -8.7193  -8.6780  15.3926  32.9690  37.3683
    37.3683  43.8094  43.9177  64.6243  65.1593  65.1593

          k = 0.8333-0.1667 0.8333 (   709 PWs)   bands (ev):

    -9.4348  -9.1811  -8.7333  -8.6762  -8.5735  19.0561  27.9096  32.3471
    36.8537  43.5185  48.8383  61.4879  63.3270  68.7469

          k = 0.6667-0.0000 0.6667 (   702 PWs)   bands (ev):

    -9.3018  -8.9385  -8.8686  -8.7998  -8.7019  19.8236  28.3159  28.3346
    38.8716  44.5241  57.4406  59.0101  60.0200  62.6424

          k = 0.0000-1.0000 0.0000 (   692 PWs)   bands (ev):

    -9.5573  -9.2842  -8.6046  -8.5368  -8.5368  21.1029  24.9302  35.5600
    35.5600  42.6965  43.1103  64.3805  70.3505  71.3178

          k = 0.6667-0.3333 1.0000 (   709 PWs)   bands (ev):

    -9.2678  -9.1299  -8.9310  -8.7282  -8.6666  16.7138  30.4842  32.8672
    37.5552  49.5590  49.9041  54.8444  62.6441  65.1247

          k = 0.5000-0.1667 0.8333 (   702 PWs)   bands (ev):

    -9.1827  -9.1096  -8.8986  -8.8122  -8.6075  19.9072  26.3343  31.8289
    35.4713  49.4070  52.6749  58.4322  58.4696  64.2272

          k =-0.3333-1.0000 0.0000 (   708 PWs)   bands (ev):

    -9.3179  -9.1683  -8.8086  -8.7146  -8.5385  21.3392  26.6550  31.2469
    32.7612  48.9394  49.1973  58.3160  61.2538  68.7412

     the Fermi energy is    46.7901 ev

!    total energy              =   -1069.97619663 Ry
     Harris-Foulkes estimate   =   -1069.97619663 Ry
     estimated scf accuracy    <          7.4E-10 Ry

     total all-electron energy =    -48515.586508 Ry

     The total energy is the sum of the following terms:

     one-electron contribution =       1.48209681 Ry
     hartree contribution      =      28.18122850 Ry
     xc contribution           =     -64.59040344 Ry
     ewald contribution        =    -242.33311988 Ry
     one-center paw contrib.   =    -792.71563628 Ry
     smearing contrib. (-TS)   =      -0.00036234 Ry

     convergence has been achieved in   6 iterations

     Forces acting on atoms (cartesian axes, Ry/au):

     atom    1 type  1   force =     0.00000000    0.00000000    0.00000000

     Total force =     0.000000     Total SCF correction =     0.000000


     Computing stress (Cartesian axis) and pressure

          total   stress  (Ry/bohr**3)                   (kbar)     P= 7147.67
   0.04858887   0.00000000   0.00000000       7147.67      0.00      0.00
   0.00000000   0.04858887  -0.00000000          0.00   7147.67     -0.00
   0.00000000   0.00000000   0.04858887          0.00      0.00   7147.67


     Writing output data file Fr.save/

     init_run     :      0.35s CPU      0.36s WALL (       1 calls)
     electrons    :      2.09s CPU      2.25s WALL (       1 calls)
     forces       :      0.04s CPU      0.04s WALL (       1 calls)
     stress       :      0.12s CPU      0.12s WALL (       1 calls)

     Called by init_run:
     wfcinit      :      0.05s CPU      0.06s WALL (       1 calls)
     potinit      :      0.11s CPU      0.12s WALL (       1 calls)
     hinit0       :      0.15s CPU      0.15s WALL (       1 calls)

     Called by electrons:
     c_bands      :      1.20s CPU      1.27s WALL (       7 calls)
     sum_band     :      0.22s CPU      0.23s WALL (       7 calls)
     v_of_rho     :      0.02s CPU      0.02s WALL (       7 calls)
     newd         :      0.04s CPU      0.05s WALL (       7 calls)
     PAW_pot      :      0.71s CPU      0.80s WALL (       7 calls)
     mix_rho      :      0.00s CPU      0.00s WALL (       7 calls)

     Called by c_bands:
     init_us_2    :      0.03s CPU      0.03s WALL (     272 calls)
     cegterg      :      1.15s CPU      1.22s WALL (     112 calls)

     Called by sum_band:
     sum_band:bec :      0.00s CPU      0.00s WALL (     112 calls)
     addusdens    :      0.04s CPU      0.04s WALL (       7 calls)

     Called by *egterg:
     h_psi        :      0.83s CPU      0.88s WALL (     415 calls)
     s_psi        :      0.03s CPU      0.03s WALL (     415 calls)
     g_psi        :      0.00s CPU      0.00s WALL (     287 calls)
     cdiaghg      :      0.17s CPU      0.17s WALL (     383 calls)

     Called by h_psi:
     h_psi:pot    :      0.82s CPU      0.88s WALL (     415 calls)
     h_psi:calbec :      0.05s CPU      0.05s WALL (     415 calls)
     vloc_psi     :      0.75s CPU      0.80s WALL (     415 calls)
     add_vuspsi   :      0.02s CPU      0.03s WALL (     415 calls)

     General routines
     calbec       :      0.07s CPU      0.08s WALL (     607 calls)
     fft          :      0.02s CPU      0.02s WALL (     104 calls)
     ffts         :      0.00s CPU      0.00s WALL (       7 calls)
     fftw         :      0.83s CPU      0.89s WALL (    9854 calls)

     Parallel routines
     fft_scatt_xy :      0.07s CPU      0.07s WALL (    9965 calls)
     fft_scatt_yz :      0.25s CPU      0.26s WALL (    9965 calls)

     PWSCF        :     3.51s CPU         3.73s WALL


   This run was terminated on:  22:45: 3   7Apr2024            

=------------------------------------------------------------------------------=
   JOB DONE.
=------------------------------------------------------------------------------=
