
     Program PWSCF v.6.3MaX starts on  7Apr2024 at 22:16:33 

     This program is part of the open-source Quantum ESPRESSO suite
     for quantum simulation of materials; please cite
         "P. Giannozzi et al., J. Phys.:Condens. Matter 21 395502 (2009);
         "P. Giannozzi et al., J. Phys.:Condens. Matter 29 465901 (2017);
          URL http://www.quantum-espresso.org", 
     in publications or presentations arising from this work. More details at
     http://www.quantum-espresso.org/quote

     Parallel version (MPI), running on     5 processors

     MPI processes distributed on     1 nodes
     R & G space division:  proc/nbgrp/npool/nimage =       5
     Waiting for input...
     Reading input from standard input

     Current dimensions of program PWSCF are:
     Max number of different atomic species (ntypx) = 10
     Max number of k-points (npk) =  40000
     Max angular momentum in pseudopotentials (lmaxx) =  3

     Subspace diagonalization in iterative solution of the eigenvalue problem:
     a serial algorithm will be used


     Parallelization info
     --------------------
     sticks:   dense  smooth     PW     G-vecs:    dense   smooth      PW
     Min         129     129     39                 2168     2168     361
     Max         130     130     40                 2171     2171     363
     Sum         649     649    199                10849    10849    1807



     bravais-lattice index     =            2
     lattice parameter (alat)  =       6.8300  a.u.
     unit-cell volume          =      79.6530 (a.u.)^3
     number of atoms/cell      =            1
     number of atomic types    =            1
     number of electrons       =        19.00
     number of Kohn-Sham states=           14
     kinetic-energy cutoff     =     100.0000  Ry
     charge density cutoff     =     400.0000  Ry
     convergence threshold     =      1.0E-08
     mixing beta               =       0.7000
     number of iterations used =            8  plain     mixing
     Exchange-correlation      = PBE ( 1  4  3  4 0 0)

     celldm(1)=   6.830000  celldm(2)=   0.000000  celldm(3)=   0.000000
     celldm(4)=   0.000000  celldm(5)=   0.000000  celldm(6)=   0.000000

     crystal axes: (cart. coord. in units of alat)
               a(1) = (  -0.500000   0.000000   0.500000 )  
               a(2) = (   0.000000   0.500000   0.500000 )  
               a(3) = (  -0.500000   0.500000   0.000000 )  

     reciprocal axes: (cart. coord. in units 2 pi/alat)
               b(1) = ( -1.000000 -1.000000  1.000000 )  
               b(2) = (  1.000000  1.000000  1.000000 )  
               b(3) = ( -1.000000  1.000000 -1.000000 )  


     PseudoPot. # 1 for Fr read from file:
     /home/lorenzo/pseudos/Fr/Fr.pbe-spdn-rrkjus_psl.1.0.0.UPF
     MD5 check sum: 07cabfa18982bd6b5b9d8ae5689d9732
     Pseudo is Ultrasoft + core correction, Zval = 19.0
     Generated using "atomic" code by A. Dal Corso v.6.2.2
     Using radial grid of 1287 points,  6 beta functions with: 
                l(1) =   0
                l(2) =   0
                l(3) =   1
                l(4) =   1
                l(5) =   2
                l(6) =   2
     Q(r) pseudized with 0 coefficients 


     atomic species   valence    mass     pseudopotential
        Fr            19.00   223.00000     Fr( 1.00)

     48 Sym. Ops., with inversion, found



   Cartesian axes

     site n.     atom                  positions (alat units)
         1           Fr  tau(   1) = (   0.0000000   0.0000000   0.0000000  )

     number of k points=     8  gaussian smearing, width (Ry)=  0.0100
                       cart. coord. in units 2pi/alat
        k(    1) = (   0.0000000   0.0000000   0.0000000), wk =   0.0312500
        k(    2) = (  -0.2500000   0.2500000  -0.2500000), wk =   0.2500000
        k(    3) = (   0.5000000  -0.5000000   0.5000000), wk =   0.1250000
        k(    4) = (   0.0000000   0.5000000   0.0000000), wk =   0.1875000
        k(    5) = (   0.7500000  -0.2500000   0.7500000), wk =   0.7500000
        k(    6) = (   0.5000000   0.0000000   0.5000000), wk =   0.3750000
        k(    7) = (   0.0000000  -1.0000000   0.0000000), wk =   0.0937500
        k(    8) = (  -0.5000000  -1.0000000   0.0000000), wk =   0.1875000

     Dense  grid:    10849 G-vectors     FFT dimensions: (  32,  32,  32)

     Estimated max dynamical RAM per process >      10.39 MB

     Estimated total dynamical RAM >      51.95 MB

     Initial potential from superposition of free atoms

     starting charge   18.97009, renormalised to   19.00000
     Starting wfcs are   10 randomized atomic wfcs +    4 random wfcs

     total cpu time spent up to now is        1.3 secs

     Self-consistent Calculation

     iteration #  1     ecut=   100.00 Ry     beta= 0.70
     Davidson diagonalization with overlap
     ethr =  1.00E-02,  avg # of iterations =  5.0

     Threshold (ethr) on eigenvalues was too large:
     Diagonalizing with lowered threshold

     Davidson diagonalization with overlap
     ethr =  7.50E-05,  avg # of iterations =  1.8

     total cpu time spent up to now is        1.8 secs

     total energy              =    -282.86794446 Ry
     Harris-Foulkes estimate   =    -282.87654336 Ry
     estimated scf accuracy    <       0.01394959 Ry

     iteration #  2     ecut=   100.00 Ry     beta= 0.70
     Davidson diagonalization with overlap
     ethr =  7.34E-05,  avg # of iterations =  2.0

     total cpu time spent up to now is        1.9 secs

     total energy              =    -282.86982965 Ry
     Harris-Foulkes estimate   =    -282.87013256 Ry
     estimated scf accuracy    <       0.00051128 Ry

     iteration #  3     ecut=   100.00 Ry     beta= 0.70
     Davidson diagonalization with overlap
     ethr =  2.69E-06,  avg # of iterations =  2.4

     total cpu time spent up to now is        2.1 secs

     total energy              =    -282.86988701 Ry
     Harris-Foulkes estimate   =    -282.86989963 Ry
     estimated scf accuracy    <       0.00003014 Ry

     iteration #  4     ecut=   100.00 Ry     beta= 0.70
     Davidson diagonalization with overlap
     ethr =  1.59E-07,  avg # of iterations =  1.8

     total cpu time spent up to now is        2.3 secs

     total energy              =    -282.86988946 Ry
     Harris-Foulkes estimate   =    -282.86988948 Ry
     estimated scf accuracy    <       0.00000010 Ry

     iteration #  5     ecut=   100.00 Ry     beta= 0.70
     Davidson diagonalization with overlap
     ethr =  5.10E-10,  avg # of iterations =  2.5

     total cpu time spent up to now is        2.4 secs

     End of self-consistent calculation

          k = 0.0000 0.0000 0.0000 (  1363 PWs)   bands (ev):

    -9.1849  -9.1849  -9.1849  -8.8559  -8.8559   9.4980  47.2943  47.2943
    47.2943  48.3683  53.8931  53.8931  53.8931  57.7342

          k =-0.2500 0.2500-0.2500 (  1345 PWs)   bands (ev):

    -9.1712  -9.0965  -9.0965  -8.7756  -8.7756  12.0075  33.8594  44.8332
    44.8332  48.2473  53.4411  54.0465  54.0465  58.7688

          k = 0.5000-0.5000 0.5000 (  1350 PWs)   bands (ev):

    -9.1715  -9.1392  -9.1392  -8.5572  -8.5572  17.6007  23.2832  43.0674
    43.0674  48.0322  51.2924  51.7672  51.7672  65.4939

          k = 0.0000 0.5000 0.0000 (  1331 PWs)   bands (ev):

    -9.3495  -9.0394  -8.8459  -8.8459  -8.7147  12.8442  38.1547  39.5410
    39.5410  44.7370  45.7821  62.0823  62.0823  62.8877

          k = 0.7500-0.2500 0.7500 (  1340 PWs)   bands (ev):

    -9.2923  -9.0455  -8.8429  -8.7311  -8.5408  18.2031  27.1375  33.9025
    38.3892  44.3013  53.4668  58.5615  59.2448  63.9912

          k = 0.5000 0.0000 0.5000 (  1340 PWs)   bands (ev):

    -9.1505  -9.0400  -8.8768  -8.8253  -8.6813  16.0197  30.4857  32.2886
    42.5997  46.7436  55.1904  56.5452  57.4164  59.3214

          k = 0.0000-1.0000 0.0000 (  1362 PWs)   bands (ev):

    -9.5123  -9.2519  -8.5720  -8.4893  -8.4893  21.1413  24.9617  35.5840
    35.5840  42.6423  43.1414  64.4031  70.3655  71.3329

          k =-0.5000-1.0000 0.0000 (  1348 PWs)   bands (ev):

    -9.0808  -9.0208  -9.0208  -8.7318  -8.4892  21.4696  28.7049  28.7049
    32.1082  53.3291  53.5054  53.5054  56.5016  70.1899

     the Fermi energy is    44.9824 ev

!    total energy              =    -282.86988949 Ry
     Harris-Foulkes estimate   =    -282.86988950 Ry
     estimated scf accuracy    <          2.9E-09 Ry

     The total energy is the sum of the following terms:

     one-electron contribution =      -4.19114781 Ry
     hartree contribution      =      28.25991438 Ry
     xc contribution           =     -64.60509192 Ry
     ewald contribution        =    -242.33311988 Ry
     smearing contrib. (-TS)   =      -0.00044428 Ry

     convergence has been achieved in   5 iterations

     Forces acting on atoms (cartesian axes, Ry/au):

     atom    1 type  1   force =     0.00000000    0.00000000    0.00000000

     Total force =     0.000000     Total SCF correction =     0.000000


     Computing stress (Cartesian axis) and pressure

          total   stress  (Ry/bohr**3)                   (kbar)     P= 7333.80
   0.04985417  -0.00000000   0.00000000       7333.80     -0.00      0.00
  -0.00000000   0.04985417   0.00000000         -0.00   7333.80      0.00
   0.00000000   0.00000000   0.04985417          0.00      0.00   7333.80


     Writing output data file Fr.save/

     init_run     :      0.29s CPU      0.30s WALL (       1 calls)
     electrons    :      1.02s CPU      1.11s WALL (       1 calls)
     forces       :      0.04s CPU      0.04s WALL (       1 calls)
     stress       :      0.13s CPU      0.13s WALL (       1 calls)

     Called by init_run:
     wfcinit      :      0.04s CPU      0.05s WALL (       1 calls)
     potinit      :      0.01s CPU      0.01s WALL (       1 calls)
     hinit0       :      0.22s CPU      0.22s WALL (       1 calls)

     Called by electrons:
     c_bands      :      0.75s CPU      0.82s WALL (       6 calls)
     sum_band     :      0.18s CPU      0.20s WALL (       6 calls)
     v_of_rho     :      0.04s CPU      0.04s WALL (       6 calls)
     newd         :      0.06s CPU      0.06s WALL (       6 calls)
     mix_rho      :      0.00s CPU      0.00s WALL (       6 calls)

     Called by c_bands:
     init_us_2    :      0.02s CPU      0.02s WALL (     120 calls)
     cegterg      :      0.72s CPU      0.79s WALL (      48 calls)

     Called by sum_band:
     sum_band:bec :      0.00s CPU      0.00s WALL (      48 calls)
     addusdens    :      0.06s CPU      0.06s WALL (       6 calls)

     Called by *egterg:
     h_psi        :      0.53s CPU      0.59s WALL (     179 calls)
     s_psi        :      0.02s CPU      0.02s WALL (     179 calls)
     g_psi        :      0.00s CPU      0.00s WALL (     123 calls)
     cdiaghg      :      0.08s CPU      0.08s WALL (     163 calls)

     Called by h_psi:
     h_psi:pot    :      0.52s CPU      0.59s WALL (     179 calls)
     h_psi:calbec :      0.03s CPU      0.03s WALL (     179 calls)
     vloc_psi     :      0.48s CPU      0.53s WALL (     179 calls)
     add_vuspsi   :      0.02s CPU      0.02s WALL (     179 calls)

     General routines
     calbec       :      0.04s CPU      0.05s WALL (     267 calls)
     fft          :      0.02s CPU      0.03s WALL (      93 calls)
     ffts         :      0.00s CPU      0.00s WALL (       6 calls)
     fftw         :      0.53s CPU      0.59s WALL (    4208 calls)

     Parallel routines
     fft_scatt_xy :      0.05s CPU      0.05s WALL (    4307 calls)
     fft_scatt_yz :      0.20s CPU      0.23s WALL (    4307 calls)

     PWSCF        :     2.52s CPU         2.67s WALL


   This run was terminated on:  22:16:36   7Apr2024            

=------------------------------------------------------------------------------=
   JOB DONE.
=------------------------------------------------------------------------------=
