
     Program PWSCF v.6.3MaX starts on  7Apr2024 at 22:50:47 

     This program is part of the open-source Quantum ESPRESSO suite
     for quantum simulation of materials; please cite
         "P. Giannozzi et al., J. Phys.:Condens. Matter 21 395502 (2009);
         "P. Giannozzi et al., J. Phys.:Condens. Matter 29 465901 (2017);
          URL http://www.quantum-espresso.org", 
     in publications or presentations arising from this work. More details at
     http://www.quantum-espresso.org/quote

     Parallel version (MPI), running on     5 processors

     MPI processes distributed on     1 nodes
     R & G space division:  proc/nbgrp/npool/nimage =       5
     Waiting for input...
     Reading input from standard input

     Current dimensions of program PWSCF are:
     Max number of different atomic species (ntypx) = 10
     Max number of k-points (npk) =  40000
     Max angular momentum in pseudopotentials (lmaxx) =  3
               file Fr.pbe-spdn-kjpaw_psl.1.0.0.UPF: wavefunction(s)  6P renormalized

     Subspace diagonalization in iterative solution of the eigenvalue problem:
     a serial algorithm will be used


     Parallelization info
     --------------------
     sticks:   dense  smooth     PW     G-vecs:    dense   smooth      PW
     Min          95      95     30                 1375     1375     248
     Max          95      95     31                 1376     1376     251
     Sum         475     475    151                 6879     6879    1243



     bravais-lattice index     =            2
     lattice parameter (alat)  =       6.8300  a.u.
     unit-cell volume          =      79.6530 (a.u.)^3
     number of atoms/cell      =            1
     number of atomic types    =            1
     number of electrons       =        19.00
     number of Kohn-Sham states=           14
     kinetic-energy cutoff     =      75.0000  Ry
     charge density cutoff     =     300.0000  Ry
     convergence threshold     =      1.0E-08
     mixing beta               =       0.7000
     number of iterations used =            8  plain     mixing
     Exchange-correlation      = SLA PW PBX PBC ( 1  4  3  4 0 0)

     celldm(1)=   6.830000  celldm(2)=   0.000000  celldm(3)=   0.000000
     celldm(4)=   0.000000  celldm(5)=   0.000000  celldm(6)=   0.000000

     crystal axes: (cart. coord. in units of alat)
               a(1) = (  -0.500000   0.000000   0.500000 )  
               a(2) = (   0.000000   0.500000   0.500000 )  
               a(3) = (  -0.500000   0.500000   0.000000 )  

     reciprocal axes: (cart. coord. in units 2 pi/alat)
               b(1) = ( -1.000000 -1.000000  1.000000 )  
               b(2) = (  1.000000  1.000000  1.000000 )  
               b(3) = ( -1.000000  1.000000 -1.000000 )  


     PseudoPot. # 1 for Fr read from file:
     /home/lorenzo/pseudos/Fr/Fr.pbe-spdn-kjpaw_psl.1.0.0.UPF
     MD5 check sum: 362a188b966a64328b94f1ef5f32e8c4
     Pseudo is Projector augmented-wave + core cor, Zval = 19.0
     Generated using "atomic" code by A. Dal Corso v.6.2.2
     Shape of augmentation charge: PSQ
     Using radial grid of 1287 points,  6 beta functions with: 
                l(1) =   0
                l(2) =   0
                l(3) =   1
                l(4) =   1
                l(5) =   2
                l(6) =   2
     Q(r) pseudized with 0 coefficients 


     atomic species   valence    mass     pseudopotential
        Fr            19.00   223.00000     Fr( 1.00)

     48 Sym. Ops., with inversion, found



   Cartesian axes

     site n.     atom                  positions (alat units)
         1           Fr  tau(   1) = (   0.0000000   0.0000000   0.0000000  )

     number of k points=     8  gaussian smearing, width (Ry)=  0.0100
                       cart. coord. in units 2pi/alat
        k(    1) = (   0.0000000   0.0000000   0.0000000), wk =   0.0312500
        k(    2) = (  -0.2500000   0.2500000  -0.2500000), wk =   0.2500000
        k(    3) = (   0.5000000  -0.5000000   0.5000000), wk =   0.1250000
        k(    4) = (   0.0000000   0.5000000   0.0000000), wk =   0.1875000
        k(    5) = (   0.7500000  -0.2500000   0.7500000), wk =   0.7500000
        k(    6) = (   0.5000000   0.0000000   0.5000000), wk =   0.3750000
        k(    7) = (   0.0000000  -1.0000000   0.0000000), wk =   0.0937500
        k(    8) = (  -0.5000000  -1.0000000   0.0000000), wk =   0.1875000

     Dense  grid:     6879 G-vectors     FFT dimensions: (  27,  27,  27)

     Estimated max dynamical RAM per process >       6.99 MB

     Estimated total dynamical RAM >      34.93 MB

     Initial potential from superposition of free atoms

     starting charge   18.97009, renormalised to   19.00000
     Starting wfcs are   10 randomized atomic wfcs +    4 random wfcs
     Checking if some PAW data can be deallocated... 

     total cpu time spent up to now is        1.3 secs

     Self-consistent Calculation

     iteration #  1     ecut=    75.00 Ry     beta= 0.70
     Davidson diagonalization with overlap
     ethr =  1.00E-02,  avg # of iterations =  5.2

     Threshold (ethr) on eigenvalues was too large:
     Diagonalizing with lowered threshold

     Davidson diagonalization with overlap
     ethr =  7.48E-05,  avg # of iterations =  1.8

     total cpu time spent up to now is        1.8 secs

     total energy              =   -1069.97922982 Ry
     Harris-Foulkes estimate   =   -1069.98813908 Ry
     estimated scf accuracy    <       0.01389050 Ry

     iteration #  2     ecut=    75.00 Ry     beta= 0.70
     Davidson diagonalization with overlap
     ethr =  7.31E-05,  avg # of iterations =  2.0

     total cpu time spent up to now is        2.1 secs

     total energy              =   -1069.98105675 Ry
     Harris-Foulkes estimate   =   -1069.98127768 Ry
     estimated scf accuracy    <       0.00046245 Ry

     iteration #  3     ecut=    75.00 Ry     beta= 0.70
     Davidson diagonalization with overlap
     ethr =  2.43E-06,  avg # of iterations =  2.4

     total cpu time spent up to now is        2.3 secs

     total energy              =   -1069.98109174 Ry
     Harris-Foulkes estimate   =   -1069.98109788 Ry
     estimated scf accuracy    <       0.00001930 Ry

     iteration #  4     ecut=    75.00 Ry     beta= 0.70
     Davidson diagonalization with overlap
     ethr =  1.02E-07,  avg # of iterations =  2.1

     total cpu time spent up to now is        2.6 secs

     total energy              =   -1069.98109611 Ry
     Harris-Foulkes estimate   =   -1069.98109579 Ry
     estimated scf accuracy    <       0.00000022 Ry

     iteration #  5     ecut=    75.00 Ry     beta= 0.70
     Davidson diagonalization with overlap
     ethr =  1.17E-09,  avg # of iterations =  2.0

     total cpu time spent up to now is        2.9 secs

     total energy              =   -1069.98109618 Ry
     Harris-Foulkes estimate   =   -1069.98109615 Ry
     estimated scf accuracy    <       0.00000002 Ry

     iteration #  6     ecut=    75.00 Ry     beta= 0.70
     Davidson diagonalization with overlap
     ethr =  8.00E-11,  avg # of iterations =  2.0

     total cpu time spent up to now is        3.2 secs

     End of self-consistent calculation

          k = 0.0000 0.0000 0.0000 (   893 PWs)   bands (ev):

    -9.1499  -9.1499  -9.1499  -8.8187  -8.8187   9.4948  47.2716  47.2716
    47.2716  48.3674  53.9025  53.9025  53.9025  57.7263

          k =-0.2500 0.2500-0.2500 (   881 PWs)   bands (ev):

    -9.1348  -9.0606  -9.0606  -8.7383  -8.7383  12.0036  33.8492  44.8143
    44.8143  48.2469  53.4361  54.0498  54.0498  58.7691

          k = 0.5000-0.5000 0.5000 (   862 PWs)   bands (ev):

    -9.1349  -9.1028  -9.1028  -8.5181  -8.5181  17.5968  23.2741  43.0475
    43.0475  48.0310  51.2928  51.7752  51.7752  65.4839

          k = 0.0000 0.5000 0.0000 (   881 PWs)   bands (ev):

    -9.3144  -9.0025  -8.8090  -8.8090  -8.6777  12.8400  38.1378  39.5271
    39.5271  44.7426  45.7847  62.0808  62.0808  62.8909

          k = 0.7500-0.2500 0.7500 (   866 PWs)   bands (ev):

    -9.2562  -9.0085  -8.8056  -8.6932  -8.5021  18.1979  27.1281  33.8929
    38.3749  44.3046  53.4636  58.5638  59.2425  63.9880

          k = 0.5000 0.0000 0.5000 (   883 PWs)   bands (ev):

    -9.1149  -9.0034  -8.8396  -8.7886  -8.6440  16.0149  30.4753  32.2801
    42.5832  46.7445  55.1860  56.5509  57.4117  59.3195

          k = 0.0000-1.0000 0.0000 (   846 PWs)   bands (ev):

    -9.4759  -9.2147  -8.5331  -8.4493  -8.4493  21.1358  24.9517  35.5700
    35.5700  42.6444  43.1491  64.4037  70.3591  71.3198

          k =-0.5000-1.0000 0.0000 (   876 PWs)   bands (ev):

    -9.0448  -8.9844  -8.9844  -8.6938  -8.4505  21.4631  28.6956  28.6956
    32.1018  53.3155  53.5071  53.5071  56.5021  70.1863

     the Fermi energy is    44.9650 ev

!    total energy              =   -1069.98109619 Ry
     Harris-Foulkes estimate   =   -1069.98109619 Ry
     estimated scf accuracy    <          3.4E-10 Ry

     total all-electron energy =    -48515.591407 Ry

     The total energy is the sum of the following terms:

     one-electron contribution =       1.41525328 Ry
     hartree contribution      =      28.26243478 Ry
     xc contribution           =     -64.60460829 Ry
     ewald contribution        =    -242.33311988 Ry
     one-center paw contrib.   =    -792.72060609 Ry
     smearing contrib. (-TS)   =      -0.00045000 Ry

     convergence has been achieved in   6 iterations

     Forces acting on atoms (cartesian axes, Ry/au):

     atom    1 type  1   force =     0.00000000    0.00000000    0.00000000

     Total force =     0.000000     Total SCF correction =     0.000000


     Computing stress (Cartesian axis) and pressure

          total   stress  (Ry/bohr**3)                   (kbar)     P= 7295.15
   0.04959144  -0.00000000  -0.00000000       7295.15     -0.00     -0.00
  -0.00000000   0.04959144  -0.00000000         -0.00   7295.15     -0.00
  -0.00000000  -0.00000000   0.04959144         -0.00     -0.00   7295.15


     Writing output data file Fr.save/

     init_run     :      0.35s CPU      0.38s WALL (       1 calls)
     electrons    :      1.70s CPU      1.85s WALL (       1 calls)
     forces       :      0.03s CPU      0.03s WALL (       1 calls)
     stress       :      0.10s CPU      0.10s WALL (       1 calls)

     Called by init_run:
     wfcinit      :      0.04s CPU      0.04s WALL (       1 calls)
     potinit      :      0.11s CPU      0.13s WALL (       1 calls)
     hinit0       :      0.18s CPU      0.18s WALL (       1 calls)

     Called by electrons:
     c_bands      :      0.76s CPU      0.80s WALL (       7 calls)
     sum_band     :      0.18s CPU      0.19s WALL (       7 calls)
     v_of_rho     :      0.04s CPU      0.04s WALL (       7 calls)
     newd         :      0.07s CPU      0.08s WALL (       7 calls)
     PAW_pot      :      0.75s CPU      0.85s WALL (       7 calls)
     mix_rho      :      0.00s CPU      0.00s WALL (       7 calls)

     Called by c_bands:
     init_us_2    :      0.02s CPU      0.02s WALL (     136 calls)
     cegterg      :      0.74s CPU      0.77s WALL (      56 calls)

     Called by sum_band:
     sum_band:bec :      0.00s CPU      0.00s WALL (      56 calls)
     addusdens    :      0.04s CPU      0.05s WALL (       7 calls)

     Called by *egterg:
     h_psi        :      0.55s CPU      0.58s WALL (     204 calls)
     s_psi        :      0.01s CPU      0.02s WALL (     204 calls)
     g_psi        :      0.00s CPU      0.00s WALL (     140 calls)
     cdiaghg      :      0.08s CPU      0.09s WALL (     188 calls)

     Called by h_psi:
     h_psi:pot    :      0.54s CPU      0.57s WALL (     204 calls)
     h_psi:calbec :      0.02s CPU      0.03s WALL (     204 calls)
     vloc_psi     :      0.50s CPU      0.53s WALL (     204 calls)
     add_vuspsi   :      0.02s CPU      0.02s WALL (     204 calls)

     General routines
     calbec       :      0.04s CPU      0.04s WALL (     300 calls)
     fft          :      0.03s CPU      0.03s WALL (     104 calls)
     ffts         :      0.00s CPU      0.00s WALL (       7 calls)
     fftw         :      0.57s CPU      0.60s WALL (    4838 calls)

     Parallel routines
     fft_scatt_xy :      0.04s CPU      0.05s WALL (    4949 calls)
     fft_scatt_yz :      0.22s CPU      0.23s WALL (    4949 calls)

     PWSCF        :     3.14s CPU         3.36s WALL


   This run was terminated on:  22:50:51   7Apr2024            

=------------------------------------------------------------------------------=
   JOB DONE.
=------------------------------------------------------------------------------=
