
     Program PWSCF v.6.3MaX starts on  7Apr2024 at 22:32:10 

     This program is part of the open-source Quantum ESPRESSO suite
     for quantum simulation of materials; please cite
         "P. Giannozzi et al., J. Phys.:Condens. Matter 21 395502 (2009);
         "P. Giannozzi et al., J. Phys.:Condens. Matter 29 465901 (2017);
          URL http://www.quantum-espresso.org", 
     in publications or presentations arising from this work. More details at
     http://www.quantum-espresso.org/quote

     Parallel version (MPI), running on     5 processors

     MPI processes distributed on     1 nodes
     R & G space division:  proc/nbgrp/npool/nimage =       5
     Waiting for input...
     Reading input from standard input

     Current dimensions of program PWSCF are:
     Max number of different atomic species (ntypx) = 10
     Max number of k-points (npk) =  40000
     Max angular momentum in pseudopotentials (lmaxx) =  3

     Subspace diagonalization in iterative solution of the eigenvalue problem:
     a serial algorithm will be used


     Parallelization info
     --------------------
     sticks:   dense  smooth     PW     G-vecs:    dense   smooth      PW
     Min          50      50     17                  544      544     106
     Max          51      51     17                  548      548     107
     Sum         253     253     85                 2733     2733     531



     bravais-lattice index     =            2
     lattice parameter (alat)  =       6.8300  a.u.
     unit-cell volume          =      79.6530 (a.u.)^3
     number of atoms/cell      =            1
     number of atomic types    =            1
     number of electrons       =        19.00
     number of Kohn-Sham states=           14
     kinetic-energy cutoff     =      40.0000  Ry
     charge density cutoff     =     160.0000  Ry
     convergence threshold     =      1.0E-08
     mixing beta               =       0.7000
     number of iterations used =            8  plain     mixing
     Exchange-correlation      = PBE ( 1  4  3  4 0 0)

     celldm(1)=   6.830000  celldm(2)=   0.000000  celldm(3)=   0.000000
     celldm(4)=   0.000000  celldm(5)=   0.000000  celldm(6)=   0.000000

     crystal axes: (cart. coord. in units of alat)
               a(1) = (  -0.500000   0.000000   0.500000 )  
               a(2) = (   0.000000   0.500000   0.500000 )  
               a(3) = (  -0.500000   0.500000   0.000000 )  

     reciprocal axes: (cart. coord. in units 2 pi/alat)
               b(1) = ( -1.000000 -1.000000  1.000000 )  
               b(2) = (  1.000000  1.000000  1.000000 )  
               b(3) = ( -1.000000  1.000000 -1.000000 )  


     PseudoPot. # 1 for Fr read from file:
     /home/lorenzo/pseudos/Fr/Fr.pbe-spdn-rrkjus_psl.1.0.0.UPF
     MD5 check sum: 07cabfa18982bd6b5b9d8ae5689d9732
     Pseudo is Ultrasoft + core correction, Zval = 19.0
     Generated using "atomic" code by A. Dal Corso v.6.2.2
     Using radial grid of 1287 points,  6 beta functions with: 
                l(1) =   0
                l(2) =   0
                l(3) =   1
                l(4) =   1
                l(5) =   2
                l(6) =   2
     Q(r) pseudized with 0 coefficients 


     atomic species   valence    mass     pseudopotential
        Fr            19.00   223.00000     Fr( 1.00)

     48 Sym. Ops., with inversion, found



   Cartesian axes

     site n.     atom                  positions (alat units)
         1           Fr  tau(   1) = (   0.0000000   0.0000000   0.0000000  )

     number of k points=     8  gaussian smearing, width (Ry)=  0.0100
                       cart. coord. in units 2pi/alat
        k(    1) = (   0.0000000   0.0000000   0.0000000), wk =   0.0312500
        k(    2) = (  -0.2500000   0.2500000  -0.2500000), wk =   0.2500000
        k(    3) = (   0.5000000  -0.5000000   0.5000000), wk =   0.1250000
        k(    4) = (   0.0000000   0.5000000   0.0000000), wk =   0.1875000
        k(    5) = (   0.7500000  -0.2500000   0.7500000), wk =   0.7500000
        k(    6) = (   0.5000000   0.0000000   0.5000000), wk =   0.3750000
        k(    7) = (   0.0000000  -1.0000000   0.0000000), wk =   0.0937500
        k(    8) = (  -0.5000000  -1.0000000   0.0000000), wk =   0.1875000

     Dense  grid:     2733 G-vectors     FFT dimensions: (  20,  20,  20)

     Estimated max dynamical RAM per process >       3.26 MB

     Estimated total dynamical RAM >      16.31 MB

     Check: negative/imaginary core charge=   -0.000005    0.000000

     Initial potential from superposition of free atoms

     starting charge   18.97009, renormalised to   19.00000
     Starting wfcs are   10 randomized atomic wfcs +    4 random wfcs

     total cpu time spent up to now is        1.1 secs

     Self-consistent Calculation

     iteration #  1     ecut=    40.00 Ry     beta= 0.70
     Davidson diagonalization with overlap
     ethr =  1.00E-02,  avg # of iterations =  4.6

     Threshold (ethr) on eigenvalues was too large:
     Diagonalizing with lowered threshold

     Davidson diagonalization with overlap
     ethr =  1.14E-04,  avg # of iterations =  1.6

     total cpu time spent up to now is        1.2 secs

     total energy              =    -282.69239213 Ry
     Harris-Foulkes estimate   =    -282.70733721 Ry
     estimated scf accuracy    <       0.02148062 Ry

     iteration #  2     ecut=    40.00 Ry     beta= 0.70
     Davidson diagonalization with overlap
     ethr =  1.13E-04,  avg # of iterations =  2.0

     total cpu time spent up to now is        1.3 secs

     total energy              =    -282.69732716 Ry
     Harris-Foulkes estimate   =    -282.69791613 Ry
     estimated scf accuracy    <       0.00088297 Ry

     iteration #  3     ecut=    40.00 Ry     beta= 0.70
     Davidson diagonalization with overlap
     ethr =  4.65E-06,  avg # of iterations =  2.4

     total cpu time spent up to now is        1.3 secs

     total energy              =    -282.69753522 Ry
     Harris-Foulkes estimate   =    -282.69753108 Ry
     estimated scf accuracy    <       0.00002848 Ry

     iteration #  4     ecut=    40.00 Ry     beta= 0.70
     Davidson diagonalization with overlap
     ethr =  1.50E-07,  avg # of iterations =  2.0

     total cpu time spent up to now is        1.4 secs

     total energy              =    -282.69753801 Ry
     Harris-Foulkes estimate   =    -282.69753781 Ry
     estimated scf accuracy    <       0.00000023 Ry

     iteration #  5     ecut=    40.00 Ry     beta= 0.70
     Davidson diagonalization with overlap
     ethr =  1.19E-09,  avg # of iterations =  2.0

     total cpu time spent up to now is        1.5 secs

     End of self-consistent calculation

          k = 0.0000 0.0000 0.0000 (   331 PWs)   bands (ev):

    -9.2739  -9.2739  -9.2739  -8.9548  -8.9548   9.4920  47.2668  47.2668
    47.2668  48.3895  54.3000  54.3000  54.3000  57.7292

          k =-0.2500 0.2500-0.2500 (   344 PWs)   bands (ev):

    -9.2468  -9.2125  -9.2125  -8.8970  -8.8970  11.9999  33.8837  44.8371
    44.8371  48.3336  53.4979  54.2936  54.2936  58.9722

          k = 0.5000-0.5000 0.5000 (   344 PWs)   bands (ev):

    -9.3201  -9.2498  -9.2498  -8.6156  -8.6156  17.5866  23.2872  43.0414
    43.0414  48.0663  51.4390  52.0817  52.0817  65.5042

          k = 0.0000 0.5000 0.0000 (   343 PWs)   bands (ev):

    -9.4643  -9.1464  -8.9599  -8.9599  -8.8124  12.8354  38.1211  39.5579
    39.5579  44.9487  45.9363  62.1159  62.1159  63.0600

          k = 0.7500-0.2500 0.7500 (   346 PWs)   bands (ev):

    -9.3792  -9.1083  -8.9619  -8.8509  -8.6449  18.1881  27.1437  33.9391
    38.3926  44.4943  53.6279  58.7537  59.3491  64.1249

          k = 0.5000 0.0000 0.5000 (   339 PWs)   bands (ev):

    -9.2239  -9.0943  -8.9786  -8.8826  -8.7598  16.0092  30.4858  32.3395
    42.6145  46.8966  55.2675  56.8159  57.6127  59.4567

          k = 0.0000-1.0000 0.0000 (   342 PWs)   bands (ev):

    -9.5706  -9.3604  -8.6310  -8.6066  -8.6066  21.1207  24.9592  35.5748
    35.5748  42.8065  43.4662  64.4362  70.3823  71.3362

          k =-0.5000-1.0000 0.0000 (   360 PWs)   bands (ev):

    -9.1637  -9.1550  -9.1550  -8.9168  -8.6799  21.4356  28.7192  28.7192
    32.1733  53.4068  53.6601  53.6601  56.6087  70.2132

     the Fermi energy is    45.0548 ev

!    total energy              =    -282.69753804 Ry
     Harris-Foulkes estimate   =    -282.69753804 Ry
     estimated scf accuracy    <          2.1E-09 Ry

     The total energy is the sum of the following terms:

     one-electron contribution =      -3.89272461 Ry
     hartree contribution      =      28.04365091 Ry
     xc contribution           =     -64.51494728 Ry
     ewald contribution        =    -242.33311992 Ry
     smearing contrib. (-TS)   =      -0.00039715 Ry

     convergence has been achieved in   5 iterations

     Forces acting on atoms (cartesian axes, Ry/au):

     atom    1 type  1   force =     0.00000000    0.00000000    0.00000000

     Total force =     0.000000     Total SCF correction =     0.000000


     Computing stress (Cartesian axis) and pressure

          total   stress  (Ry/bohr**3)                   (kbar)     P= 5232.80
   0.03557189   0.00000000   0.00000000       5232.80      0.00      0.00
   0.00000000   0.03557189  -0.00000000          0.00   5232.80     -0.00
  -0.00000000  -0.00000000   0.03557189         -0.00     -0.00   5232.80


     Writing output data file Fr.save/

     init_run     :      0.15s CPU      0.15s WALL (       1 calls)
     electrons    :      0.36s CPU      0.38s WALL (       1 calls)
     forces       :      0.01s CPU      0.01s WALL (       1 calls)
     stress       :      0.04s CPU      0.04s WALL (       1 calls)

     Called by init_run:
     wfcinit      :      0.01s CPU      0.02s WALL (       1 calls)
     potinit      :      0.00s CPU      0.00s WALL (       1 calls)
     hinit0       :      0.12s CPU      0.12s WALL (       1 calls)

     Called by electrons:
     c_bands      :      0.28s CPU      0.30s WALL (       6 calls)
     sum_band     :      0.06s CPU      0.06s WALL (       6 calls)
     v_of_rho     :      0.01s CPU      0.01s WALL (       6 calls)
     newd         :      0.02s CPU      0.02s WALL (       6 calls)
     mix_rho      :      0.00s CPU      0.00s WALL (       6 calls)

     Called by c_bands:
     init_us_2    :      0.01s CPU      0.01s WALL (     120 calls)
     cegterg      :      0.27s CPU      0.29s WALL (      48 calls)

     Called by sum_band:
     sum_band:bec :      0.00s CPU      0.00s WALL (      48 calls)
     addusdens    :      0.01s CPU      0.02s WALL (       6 calls)

     Called by *egterg:
     h_psi        :      0.17s CPU      0.19s WALL (     173 calls)
     s_psi        :      0.01s CPU      0.01s WALL (     173 calls)
     g_psi        :      0.00s CPU      0.00s WALL (     117 calls)
     cdiaghg      :      0.07s CPU      0.07s WALL (     157 calls)

     Called by h_psi:
     h_psi:pot    :      0.17s CPU      0.19s WALL (     173 calls)
     h_psi:calbec :      0.01s CPU      0.01s WALL (     173 calls)
     vloc_psi     :      0.16s CPU      0.17s WALL (     173 calls)
     add_vuspsi   :      0.01s CPU      0.01s WALL (     173 calls)

     General routines
     calbec       :      0.02s CPU      0.02s WALL (     261 calls)
     fft          :      0.01s CPU      0.01s WALL (      93 calls)
     ffts         :      0.00s CPU      0.00s WALL (       6 calls)
     fftw         :      0.17s CPU      0.19s WALL (    4278 calls)

     Parallel routines
     fft_scatt_xy :      0.02s CPU      0.02s WALL (    4377 calls)
     fft_scatt_yz :      0.05s CPU      0.06s WALL (    4377 calls)

     PWSCF        :     1.47s CPU         1.55s WALL


   This run was terminated on:  22:32:12   7Apr2024            

=------------------------------------------------------------------------------=
   JOB DONE.
=------------------------------------------------------------------------------=
