
     Program PWSCF v.6.3MaX starts on  7Apr2024 at 22:24:46 

     This program is part of the open-source Quantum ESPRESSO suite
     for quantum simulation of materials; please cite
         "P. Giannozzi et al., J. Phys.:Condens. Matter 21 395502 (2009);
         "P. Giannozzi et al., J. Phys.:Condens. Matter 29 465901 (2017);
          URL http://www.quantum-espresso.org", 
     in publications or presentations arising from this work. More details at
     http://www.quantum-espresso.org/quote

     Parallel version (MPI), running on     5 processors

     MPI processes distributed on     1 nodes
     R & G space division:  proc/nbgrp/npool/nimage =       5
     Waiting for input...
     Reading input from standard input

     Current dimensions of program PWSCF are:
     Max number of different atomic species (ntypx) = 10
     Max number of k-points (npk) =  40000
     Max angular momentum in pseudopotentials (lmaxx) =  3
               file Fr.pbe-spdn-kjpaw_psl.1.0.0.UPF: wavefunction(s)  6P renormalized

     Subspace diagonalization in iterative solution of the eigenvalue problem:
     a serial algorithm will be used


     Parallelization info
     --------------------
     sticks:   dense  smooth     PW     G-vecs:    dense   smooth      PW
     Min          32      32     12                  272      272      66
     Max          33      33     13                  273      273      67
     Sum         163     163     61                 1363     1363     331



     bravais-lattice index     =            2
     lattice parameter (alat)  =       6.8300  a.u.
     unit-cell volume          =      79.6530 (a.u.)^3
     number of atoms/cell      =            1
     number of atomic types    =            1
     number of electrons       =        19.00
     number of Kohn-Sham states=           14
     kinetic-energy cutoff     =      25.0000  Ry
     charge density cutoff     =     100.0000  Ry
     convergence threshold     =      1.0E-08
     mixing beta               =       0.7000
     number of iterations used =            8  plain     mixing
     Exchange-correlation      = SLA PW PBX PBC ( 1  4  3  4 0 0)

     celldm(1)=   6.830000  celldm(2)=   0.000000  celldm(3)=   0.000000
     celldm(4)=   0.000000  celldm(5)=   0.000000  celldm(6)=   0.000000

     crystal axes: (cart. coord. in units of alat)
               a(1) = (  -0.500000   0.000000   0.500000 )  
               a(2) = (   0.000000   0.500000   0.500000 )  
               a(3) = (  -0.500000   0.500000   0.000000 )  

     reciprocal axes: (cart. coord. in units 2 pi/alat)
               b(1) = ( -1.000000 -1.000000  1.000000 )  
               b(2) = (  1.000000  1.000000  1.000000 )  
               b(3) = ( -1.000000  1.000000 -1.000000 )  


     PseudoPot. # 1 for Fr read from file:
     /home/lorenzo/pseudos/Fr/Fr.pbe-spdn-kjpaw_psl.1.0.0.UPF
     MD5 check sum: 362a188b966a64328b94f1ef5f32e8c4
     Pseudo is Projector augmented-wave + core cor, Zval = 19.0
     Generated using "atomic" code by A. Dal Corso v.6.2.2
     Shape of augmentation charge: PSQ
     Using radial grid of 1287 points,  6 beta functions with: 
                l(1) =   0
                l(2) =   0
                l(3) =   1
                l(4) =   1
                l(5) =   2
                l(6) =   2
     Q(r) pseudized with 0 coefficients 


     atomic species   valence    mass     pseudopotential
        Fr            19.00   223.00000     Fr( 1.00)

     48 Sym. Ops., with inversion, found



   Cartesian axes

     site n.     atom                  positions (alat units)
         1           Fr  tau(   1) = (   0.0000000   0.0000000   0.0000000  )

     number of k points=    47  gaussian smearing, width (Ry)=  0.0100
                       cart. coord. in units 2pi/alat
        k(    1) = (   0.0000000   0.0000000   0.0000000), wk =   0.0020000
        k(    2) = (  -0.1000000   0.1000000  -0.1000000), wk =   0.0160000
        k(    3) = (  -0.2000000   0.2000000  -0.2000000), wk =   0.0160000
        k(    4) = (  -0.3000000   0.3000000  -0.3000000), wk =   0.0160000
        k(    5) = (  -0.4000000   0.4000000  -0.4000000), wk =   0.0160000
        k(    6) = (   0.5000000  -0.5000000   0.5000000), wk =   0.0080000
        k(    7) = (   0.0000000   0.2000000   0.0000000), wk =   0.0120000
        k(    8) = (  -0.1000000   0.3000000  -0.1000000), wk =   0.0480000
        k(    9) = (  -0.2000000   0.4000000  -0.2000000), wk =   0.0480000
        k(   10) = (  -0.3000000   0.5000000  -0.3000000), wk =   0.0480000
        k(   11) = (   0.6000000  -0.4000000   0.6000000), wk =   0.0480000
        k(   12) = (   0.5000000  -0.3000000   0.5000000), wk =   0.0480000
        k(   13) = (   0.4000000  -0.2000000   0.4000000), wk =   0.0480000
        k(   14) = (   0.3000000  -0.1000000   0.3000000), wk =   0.0480000
        k(   15) = (   0.2000000   0.0000000   0.2000000), wk =   0.0240000
        k(   16) = (   0.0000000   0.4000000   0.0000000), wk =   0.0120000
        k(   17) = (  -0.1000000   0.5000000  -0.1000000), wk =   0.0480000
        k(   18) = (  -0.2000000   0.6000000  -0.2000000), wk =   0.0480000
        k(   19) = (   0.7000000  -0.3000000   0.7000000), wk =   0.0480000
        k(   20) = (   0.6000000  -0.2000000   0.6000000), wk =   0.0480000
        k(   21) = (   0.5000000  -0.1000000   0.5000000), wk =   0.0480000
        k(   22) = (   0.4000000   0.0000000   0.4000000), wk =   0.0240000
        k(   23) = (   0.0000000   0.6000000   0.0000000), wk =   0.0120000
        k(   24) = (  -0.1000000   0.7000000  -0.1000000), wk =   0.0480000
        k(   25) = (   0.8000000  -0.2000000   0.8000000), wk =   0.0480000
        k(   26) = (   0.7000000  -0.1000000   0.7000000), wk =   0.0480000
        k(   27) = (   0.6000000  -0.0000000   0.6000000), wk =   0.0240000
        k(   28) = (   0.0000000   0.8000000   0.0000000), wk =   0.0120000
        k(   29) = (   0.9000000  -0.1000000   0.9000000), wk =   0.0480000
        k(   30) = (   0.8000000   0.0000000   0.8000000), wk =   0.0240000
        k(   31) = (   0.0000000  -1.0000000   0.0000000), wk =   0.0060000
        k(   32) = (  -0.2000000   0.4000000   0.0000000), wk =   0.0480000
        k(   33) = (  -0.3000000   0.5000000  -0.1000000), wk =   0.0960000
        k(   34) = (   0.6000000  -0.4000000   0.8000000), wk =   0.0960000
        k(   35) = (   0.5000000  -0.3000000   0.7000000), wk =   0.0480000
        k(   36) = (  -0.2000000   0.6000000   0.0000000), wk =   0.0480000
        k(   37) = (   0.7000000  -0.3000000   0.9000000), wk =   0.0960000
        k(   38) = (   0.6000000  -0.2000000   0.8000000), wk =   0.0960000
        k(   39) = (   0.5000000  -0.1000000   0.7000000), wk =   0.0960000
        k(   40) = (   0.4000000   0.0000000   0.6000000), wk =   0.0480000
        k(   41) = (   0.8000000  -0.2000000   1.0000000), wk =   0.0480000
        k(   42) = (   0.7000000  -0.1000000   0.9000000), wk =   0.0960000
        k(   43) = (   0.6000000   0.0000000   0.8000000), wk =   0.0480000
        k(   44) = (  -0.2000000  -1.0000000   0.0000000), wk =   0.0240000
        k(   45) = (   0.6000000  -0.2000000   1.0000000), wk =   0.0480000
        k(   46) = (   0.5000000  -0.1000000   0.9000000), wk =   0.0480000
        k(   47) = (  -0.4000000  -1.0000000   0.0000000), wk =   0.0240000

     Dense  grid:     1363 G-vectors     FFT dimensions: (  15,  15,  15)

     Estimated max dynamical RAM per process >       2.22 MB

     Estimated total dynamical RAM >      11.08 MB

     Check: negative/imaginary core charge=   -0.000045    0.000000

     Initial potential from superposition of free atoms

     starting charge   18.97009, renormalised to   19.00000
     Starting wfcs are   10 randomized atomic wfcs +    4 random wfcs
     Checking if some PAW data can be deallocated... 

     total cpu time spent up to now is        1.3 secs

     Self-consistent Calculation

     iteration #  1     ecut=    25.00 Ry     beta= 0.70
     Davidson diagonalization with overlap
     ethr =  1.00E-02,  avg # of iterations =  4.9

     total cpu time spent up to now is        1.9 secs

     total energy              =   -1065.33589908 Ry
     Harris-Foulkes estimate   =   -1065.94298893 Ry
     estimated scf accuracy    <       0.74920292 Ry

     iteration #  2     ecut=    25.00 Ry     beta= 0.70
     Davidson diagonalization with overlap
     ethr =  3.94E-03,  avg # of iterations =  2.0

     total cpu time spent up to now is        2.3 secs

     total energy              =   -1065.50528876 Ry
     Harris-Foulkes estimate   =   -1065.52075939 Ry
     estimated scf accuracy    <       0.04440964 Ry

     iteration #  3     ecut=    25.00 Ry     beta= 0.70
     Davidson diagonalization with overlap
     ethr =  2.34E-04,  avg # of iterations =  2.0

     total cpu time spent up to now is        2.6 secs

     total energy              =   -1065.50888992 Ry
     Harris-Foulkes estimate   =   -1065.50936938 Ry
     estimated scf accuracy    <       0.00217684 Ry

     iteration #  4     ecut=    25.00 Ry     beta= 0.70
     Davidson diagonalization with overlap
     ethr =  1.15E-05,  avg # of iterations =  2.2

     total cpu time spent up to now is        2.9 secs

     total energy              =   -1065.50902986 Ry
     Harris-Foulkes estimate   =   -1065.50902512 Ry
     estimated scf accuracy    <       0.00001102 Ry

     iteration #  5     ecut=    25.00 Ry     beta= 0.70
     Davidson diagonalization with overlap
     ethr =  5.80E-08,  avg # of iterations =  2.2

     total cpu time spent up to now is        3.3 secs

     total energy              =   -1065.50903173 Ry
     Harris-Foulkes estimate   =   -1065.50903143 Ry
     estimated scf accuracy    <       0.00000068 Ry

     iteration #  6     ecut=    25.00 Ry     beta= 0.70
     Davidson diagonalization with overlap
     ethr =  3.56E-09,  avg # of iterations =  1.7

     total cpu time spent up to now is        3.6 secs

     End of self-consistent calculation

          k = 0.0000 0.0000 0.0000 (   169 PWs)   bands (ev):

    -9.3349  -9.3349  -8.8930  -8.8930  -8.8930   9.0322  46.5494  46.5494
    46.5494  48.8246  57.1497  57.1519  57.1519  57.1519

          k =-0.1000 0.1000-0.1000 (   169 PWs)   bands (ev):

    -9.2711  -9.2711  -8.8029  -8.7722  -8.7722   9.4254  42.8696  46.1141
    46.1141  48.7883  56.6266  57.7122  57.7122  58.3562

          k =-0.2000 0.2000-0.2000 (   168 PWs)   bands (ev):

    -8.9070  -8.9070  -8.6134  -8.6134  -8.1149  10.6096  36.7765  45.0274
    45.0274  49.0566  54.7203  56.6861  56.6861  59.5868

          k =-0.3000 0.3000-0.3000 (   162 PWs)   bands (ev):

    -8.4293  -8.4293  -7.8574  -7.2027  -7.2027  12.5696  30.8883  43.7843
    43.7843  49.0973  53.3191  55.7355  55.7356  62.0989

          k =-0.4000 0.4000-0.4000 (   162 PWs)   bands (ev):

    -8.7897  -7.7137  -7.7137  -7.2497  -7.2497  15.0887  25.8891  42.8066
    42.8066  48.7861  52.5796  55.2764  55.2764  64.4489

          k = 0.5000-0.5000 0.5000 (   168 PWs)   bands (ev):

    -8.9154  -8.5873  -8.5873  -7.8681  -7.8681  16.8158  23.3265  42.4372
    42.4372  48.6365  52.3795  54.9635  54.9635  65.5201

          k = 0.0000 0.2000 0.0000 (   169 PWs)   bands (ev):

    -9.2603  -9.2146  -8.8864  -8.6873  -8.6873   9.5561  44.4083  44.5574
    44.5574  48.2363  54.4533  58.6226  58.8143  58.8143

          k =-0.1000 0.3000-0.1000 (   166 PWs)   bands (ev):

    -9.2596  -8.7182  -8.5917  -8.1708  -7.6651  10.4761  38.9144  43.0019
    44.4221  48.9775  52.2057  58.1347  59.0896  59.1860

          k =-0.2000 0.4000-0.2000 (   161 PWs)   bands (ev):

    -8.3483  -8.2880  -7.7641  -7.4057  -6.9868  12.1804  32.9952  41.8496
    43.0746  48.8350  53.1512  57.5734  58.1250  58.3373

          k =-0.3000 0.5000-0.3000 (   164 PWs)   bands (ev):

    -8.5947  -8.1511  -8.0832  -7.6227  -7.1447  14.5459  27.7318  41.2341
    41.4359  48.0069  54.8623  56.7925  57.0371  59.6489

          k = 0.6000-0.4000 0.6000 (   168 PWs)   bands (ev):

    -8.8419  -8.5010  -8.4284  -8.2531  -7.5687  16.8396  24.0667  40.0377
    41.4134  47.7853  54.3559  56.2803  57.2008  62.8982

          k = 0.5000-0.3000 0.5000 (   167 PWs)   bands (ev):

    -8.8803  -8.4014  -8.2273  -7.9764  -7.6253  16.2040  24.9827  39.3869
    42.4072  48.2359  53.6746  55.6955  58.1192  63.7878

          k = 0.4000-0.2000 0.4000 (   166 PWs)   bands (ev):

    -8.7482  -8.4378  -8.3469  -7.7674  -7.4460  13.6963  29.3941  39.5160
    44.0966  49.2728  53.0440  55.4815  59.1788  60.8194

          k = 0.3000-0.1000 0.3000 (   164 PWs)   bands (ev):

    -8.7700  -8.6555  -8.0191  -7.7351  -7.4885  11.5272  34.8939  40.3617
    45.9680  50.4439  52.4614  55.5646  58.3503  59.0990

          k = 0.2000 0.0000 0.2000 (   170 PWs)   bands (ev):

    -9.2560  -9.1557  -8.8786  -8.7009  -8.6542  10.0819  40.3164  42.2193
    46.8794  49.6687  54.2393  56.1691  57.3674  58.0710

          k = 0.0000 0.4000 0.0000 (   165 PWs)   bands (ev):

    -9.3449  -8.3023  -7.9606  -7.9606  -7.8201  11.1316  39.9326  41.0925
    41.0925  47.3570  49.2940  61.0872  61.0872  62.3416

          k =-0.1000 0.5000-0.1000 (   168 PWs)   bands (ev):

    -9.1971  -8.6280  -8.4542  -7.9229  -7.7882  12.5668  35.0547  39.6865
    39.9257  47.2631  49.1904  61.0758  61.1794  62.4430

          k =-0.2000 0.6000-0.2000 (   171 PWs)   bands (ev):

    -9.1569  -8.6631  -8.5002  -8.2896  -7.9897  14.6975  29.9648  37.7962
    39.0199  46.6347  52.8158  59.5190  59.9211  61.9171

          k = 0.7000-0.3000 0.7000 (   170 PWs)   bands (ev):

    -8.8086  -8.6720  -8.3916  -8.2233  -7.8314  17.1038  25.9489  35.8514
    39.2690  46.5501  57.2941  58.1364  58.8366  62.2277

          k = 0.6000-0.2000 0.6000 (   166 PWs)   bands (ev):

    -8.7460  -8.2375  -8.0443  -7.9205  -7.2374  17.6398  25.2678  34.5868
    40.4397  47.0750  56.7354  58.2479  61.2557  63.9576

          k = 0.5000-0.1000 0.5000 (   167 PWs)   bands (ev):

    -8.7434  -8.6061  -8.4016  -7.7027  -7.4045  15.4766  28.6910  34.2446
    42.3677  48.1052  55.4350  57.6018  60.4853  60.5325

          k = 0.4000 0.0000 0.4000 (   168 PWs)   bands (ev):

    -8.9649  -8.7387  -8.5046  -8.2332  -7.3877  13.1915  32.8118  35.5832
    44.6331  49.7076  53.3418  56.9158  57.9299  59.0057

          k = 0.0000 0.6000 0.0000 (   174 PWs)   bands (ev):

    -9.2225  -9.1895  -8.7371  -8.7371  -8.4728  13.7329  34.2713  37.9957
    37.9957  45.9059  46.5410  64.3022  64.3022  66.2788

          k =-0.1000 0.7000-0.1000 (   167 PWs)   bands (ev):

    -8.6022  -8.5170  -8.1720  -7.9371  -7.0570  15.6201  30.8429  35.7481
    37.1425  45.6767  48.1708  63.3747  64.0827  67.6389

          k = 0.8000-0.2000 0.8000 (   174 PWs)   bands (ev):

    -8.9567  -8.9203  -8.8358  -8.5683  -8.2846  17.8839  27.6833  32.7656
    37.1979  45.6218  52.1042  61.7371  62.3877  67.4358

          k = 0.7000-0.1000 0.7000 (   174 PWs)   bands (ev):

    -9.1773  -8.9010  -8.7476  -8.3589  -8.3534  19.0624  26.6038  30.4675
    38.2175  45.9960  56.7698  60.5962  60.8142  65.1592

          k = 0.6000-0.0000 0.6000 (   174 PWs)   bands (ev):

    -9.1672  -8.8828  -8.8201  -8.4885  -8.4593  17.6272  28.5632  29.9207
    40.0496  46.8308  58.6648  59.6085  60.4543  62.0325

          k = 0.0000 0.8000 0.0000 (   170 PWs)   bands (ev):

    -8.7702  -8.5684  -8.3561  -7.9129  -7.9129  17.2240  28.5400  36.0110
    36.0110  44.6221  46.1444  65.3194  68.3709  68.3709

          k = 0.9000-0.1000 0.9000 (   170 PWs)   bands (ev):

    -8.4599  -8.3716  -8.3202  -8.0893  -7.9123  19.1584  26.3158  33.8141
    35.8078  45.0456  47.6743  64.1436  67.3859  70.0810

          k = 0.8000 0.0000 0.8000 (   170 PWs)   bands (ev):

    -8.6925  -8.4517  -8.2628  -8.1255  -7.9412  19.9993  26.2296  30.6707
    36.5765  45.4385  51.9327  62.6727  65.2731  66.6217

          k = 0.0000-1.0000 0.0000 (   174 PWs)   bands (ev):

    -9.2931  -8.7891  -8.7891  -8.7652  -7.0048  20.0436  24.9052  35.3179
    35.3179  44.0273  45.8479  64.8953  70.5359  71.1764

          k =-0.2000 0.4000 0.0000 (   164 PWs)   bands (ev):

    -8.8162  -8.6423  -8.0620  -7.6895  -7.4705  11.6565  36.3506  38.9223
    44.0435  49.7907  50.4528  57.3837  59.4609  61.2604

          k =-0.3000 0.5000-0.1000 (   166 PWs)   bands (ev):

    -8.6743  -8.3538  -8.2144  -7.7927  -7.5415  13.5803  31.5393  37.1528
    42.2172  49.1762  52.8231  56.3805  59.4716  62.1473

          k = 0.6000-0.4000 0.8000 (   169 PWs)   bands (ev):

    -8.8948  -8.6629  -8.4077  -7.9935  -7.7621  16.0174  26.8910  36.6192
    40.3793  48.4880  54.2441  58.3713  59.5835  61.2359

          k = 0.5000-0.3000 0.7000 (   166 PWs)   bands (ev):

    -8.7123  -8.3737  -8.1384  -7.6438  -7.5119  17.6215  24.5252  36.5730
    39.6273  48.2703  54.2216  60.0242  60.1847  62.5519

          k =-0.2000 0.6000 0.0000 (   166 PWs)   bands (ev):

    -8.8032  -8.3754  -8.0850  -7.7590  -7.2062  14.2296  32.6026  36.0781
    38.8620  48.1141  49.0420  59.2824  63.7846  65.9874

          k = 0.7000-0.3000 0.9000 (   172 PWs)   bands (ev):

    -8.8949  -8.7595  -8.6721  -8.2302  -8.1861  16.4643  28.9667  34.1218
    37.2566  48.1511  52.4513  57.5577  64.2514  64.6347

          k = 0.6000-0.2000 0.8000 (   168 PWs)   bands (ev):

    -8.6637  -8.5391  -8.0899  -7.8020  -7.6715  18.4618  26.1926  32.7628
    37.0433  48.4061  55.9357  57.6104  62.6032  64.0160

          k = 0.5000-0.1000 0.7000 (   169 PWs)   bands (ev):

    -8.7956  -8.4690  -8.3399  -8.1130  -7.6505  17.8742  27.1298  31.9376
    38.1334  49.0328  55.3300  58.8275  61.8107  62.5430

          k = 0.4000 0.0000 0.6000 (   169 PWs)   bands (ev):

    -8.8566  -8.6000  -8.4100  -8.1552  -7.6230  15.6234  30.1296  32.8019
    40.0829  49.8712  53.5994  56.4078  61.2516  63.3433

          k = 0.8000-0.2000 1.0000 (   172 PWs)   bands (ev):

    -8.9148  -8.6890  -8.6263  -8.2071  -8.0526  17.5903  28.4894  34.1849
    35.2805  47.0587  48.3512  61.5417  66.5297  68.6623

          k = 0.7000-0.1000 0.9000 (   171 PWs)   bands (ev):

    -9.0268  -8.8078  -8.3498  -8.0895  -7.6822  19.4500  26.9923  31.2735
    35.0335  47.7756  52.1432  59.8154  63.8676  67.2612

          k = 0.6000 0.0000 0.8000 (   173 PWs)   bands (ev):

    -9.1077  -8.8736  -8.7051  -8.4749  -7.8326  19.4924  28.1122  28.7113
    36.1573  48.3840  56.9156  58.0979  60.2857  64.9594

          k =-0.2000-1.0000 0.0000 (   168 PWs)   bands (ev):

    -9.0086  -8.1329  -7.9396  -7.6073  -7.4746  20.1057  25.5697  33.5719
    34.1855  46.6298  48.3019  62.9255  66.6284  68.8532

          k = 0.6000-0.2000 1.0000 (   163 PWs)   bands (ev):

    -8.3589  -7.7456  -7.4345  -7.2755  -7.2535  18.5241  28.3213  31.0407
    35.1585  51.4197  53.1490  56.5188  62.4899  66.7415

          k = 0.5000-0.1000 0.9000 (   166 PWs)   bands (ev):

    -8.6045  -8.1717  -7.7573  -7.6024  -7.3127  19.6628  27.6608  30.0057
    34.2120  51.8382  55.0145  57.5819  58.2536  67.8535

          k =-0.4000-1.0000 0.0000 (   170 PWs)   bands (ev):

    -8.8253  -8.6578  -8.4496  -8.0287  -7.4054  20.2049  27.4687  30.3967
    32.8101  51.8727  52.8541  57.7738  59.6637  69.5110

     the Fermi energy is    48.1769 ev

!    total energy              =   -1065.50903176 Ry
     Harris-Foulkes estimate   =   -1065.50903176 Ry
     estimated scf accuracy    <          3.8E-09 Ry

     total all-electron energy =    -48511.119343 Ry

     The total energy is the sum of the following terms:

     one-electron contribution =       7.23371939 Ry
     hartree contribution      =      24.87348625 Ry
     xc contribution           =     -63.37855108 Ry
     ewald contribution        =    -242.33311992 Ry
     one-center paw contrib.   =    -791.90361886 Ry
     smearing contrib. (-TS)   =      -0.00094754 Ry

     convergence has been achieved in   6 iterations

     Forces acting on atoms (cartesian axes, Ry/au):

     atom    1 type  1   force =     0.00000000    0.00000000    0.00000000

     Total force =     0.000000     Total SCF correction =     0.000000


     Computing stress (Cartesian axis) and pressure

          total   stress  (Ry/bohr**3)                   (kbar)     P=********
  -0.10876804  -0.00000000  -0.00000000     -16000.33     -0.00     -0.00
   0.00000000  -0.10876804   0.00000000          0.00 -16000.33      0.00
  -0.00000000   0.00000000  -0.10876804         -0.00      0.00 -16000.33


     Writing output data file Fr.save/

     init_run     :      0.27s CPU      0.30s WALL (       1 calls)
     electrons    :      2.06s CPU      2.32s WALL (       1 calls)
     forces       :      0.02s CPU      0.02s WALL (       1 calls)
     stress       :      0.05s CPU      0.05s WALL (       1 calls)

     Called by init_run:
     wfcinit      :      0.06s CPU      0.06s WALL (       1 calls)
     potinit      :      0.11s CPU      0.13s WALL (       1 calls)
     hinit0       :      0.09s CPU      0.09s WALL (       1 calls)

     Called by electrons:
     c_bands      :      1.23s CPU      1.36s WALL (       6 calls)
     sum_band     :      0.13s CPU      0.15s WALL (       6 calls)
     v_of_rho     :      0.00s CPU      0.01s WALL (       7 calls)
     newd         :      0.01s CPU      0.01s WALL (       7 calls)
     PAW_pot      :      0.80s CPU      0.89s WALL (       7 calls)
     mix_rho      :      0.00s CPU      0.00s WALL (       6 calls)

     Called by c_bands:
     init_us_2    :      0.02s CPU      0.02s WALL (     705 calls)
     cegterg      :      1.19s CPU      1.32s WALL (     282 calls)

     Called by sum_band:
     sum_band:bec :      0.00s CPU      0.00s WALL (     282 calls)
     addusdens    :      0.01s CPU      0.01s WALL (       6 calls)

     Called by *egterg:
     h_psi        :      0.61s CPU      0.69s WALL (    1032 calls)
     s_psi        :      0.02s CPU      0.02s WALL (    1032 calls)
     g_psi        :      0.00s CPU      0.00s WALL (     703 calls)
     cdiaghg      :      0.43s CPU      0.46s WALL (     985 calls)

     Called by h_psi:
     h_psi:pot    :      0.61s CPU      0.69s WALL (    1032 calls)
     h_psi:calbec :      0.04s CPU      0.04s WALL (    1032 calls)
     vloc_psi     :      0.55s CPU      0.62s WALL (    1032 calls)
     add_vuspsi   :      0.02s CPU      0.02s WALL (    1032 calls)

     General routines
     calbec       :      0.06s CPU      0.06s WALL (    1549 calls)
     fft          :      0.01s CPU      0.01s WALL (     103 calls)
     ffts         :      0.00s CPU      0.00s WALL (       6 calls)
     fftw         :      0.58s CPU      0.66s WALL (   25116 calls)

     Parallel routines
     fft_scatt_xy :      0.06s CPU      0.07s WALL (   25225 calls)
     fft_scatt_yz :      0.26s CPU      0.29s WALL (   25225 calls)

     PWSCF        :     3.43s CPU         3.78s WALL


   This run was terminated on:  22:24:50   7Apr2024            

=------------------------------------------------------------------------------=
   JOB DONE.
=------------------------------------------------------------------------------=
