
     Program PWSCF v.6.3MaX starts on  7Apr2024 at 22:31:14 

     This program is part of the open-source Quantum ESPRESSO suite
     for quantum simulation of materials; please cite
         "P. Giannozzi et al., J. Phys.:Condens. Matter 21 395502 (2009);
         "P. Giannozzi et al., J. Phys.:Condens. Matter 29 465901 (2017);
          URL http://www.quantum-espresso.org", 
     in publications or presentations arising from this work. More details at
     http://www.quantum-espresso.org/quote

     Parallel version (MPI), running on     5 processors

     MPI processes distributed on     1 nodes
     R & G space division:  proc/nbgrp/npool/nimage =       5
     Waiting for input...
     Reading input from standard input

     Current dimensions of program PWSCF are:
     Max number of different atomic species (ntypx) = 10
     Max number of k-points (npk) =  40000
     Max angular momentum in pseudopotentials (lmaxx) =  3
               file Fr.pz-spdn-kjpaw_psl.1.0.0.UPF: wavefunction(s)  6P renormalized

     Subspace diagonalization in iterative solution of the eigenvalue problem:
     a serial algorithm will be used


     Parallelization info
     --------------------
     sticks:   dense  smooth     PW     G-vecs:    dense   smooth      PW
     Min          50      50     17                  544      544     107
     Max          51      51     17                  548      548     108
     Sum         253     253     85                 2733     2733     537



     bravais-lattice index     =            2
     lattice parameter (alat)  =       6.8300  a.u.
     unit-cell volume          =      79.6530 (a.u.)^3
     number of atoms/cell      =            1
     number of atomic types    =            1
     number of electrons       =        19.00
     number of Kohn-Sham states=           14
     kinetic-energy cutoff     =      40.0000  Ry
     charge density cutoff     =     160.0000  Ry
     convergence threshold     =      1.0E-08
     mixing beta               =       0.7000
     number of iterations used =            8  plain     mixing
     Exchange-correlation      = SLA PZ NOGX NOGC ( 1  1  0  0 0 0)

     celldm(1)=   6.830000  celldm(2)=   0.000000  celldm(3)=   0.000000
     celldm(4)=   0.000000  celldm(5)=   0.000000  celldm(6)=   0.000000

     crystal axes: (cart. coord. in units of alat)
               a(1) = (  -0.500000   0.000000   0.500000 )  
               a(2) = (   0.000000   0.500000   0.500000 )  
               a(3) = (  -0.500000   0.500000   0.000000 )  

     reciprocal axes: (cart. coord. in units 2 pi/alat)
               b(1) = ( -1.000000 -1.000000  1.000000 )  
               b(2) = (  1.000000  1.000000  1.000000 )  
               b(3) = ( -1.000000  1.000000 -1.000000 )  


     PseudoPot. # 1 for Fr read from file:
     /home/lorenzo/pseudos/Fr/Fr.pz-spdn-kjpaw_psl.1.0.0.UPF
     MD5 check sum: 60dafd115682613df3cc92ec23a62a32
     Pseudo is Projector augmented-wave + core cor, Zval = 19.0
     Generated using "atomic" code by A. Dal Corso v.6.2.2
     Shape of augmentation charge: PSQ
     Using radial grid of 1287 points,  6 beta functions with: 
                l(1) =   0
                l(2) =   0
                l(3) =   1
                l(4) =   1
                l(5) =   2
                l(6) =   2
     Q(r) pseudized with 0 coefficients 


     atomic species   valence    mass     pseudopotential
        Fr            19.00   223.00000     Fr( 1.00)

     48 Sym. Ops., with inversion, found



   Cartesian axes

     site n.     atom                  positions (alat units)
         1           Fr  tau(   1) = (   0.0000000   0.0000000   0.0000000  )

     number of k points=    47  gaussian smearing, width (Ry)=  0.0100
                       cart. coord. in units 2pi/alat
        k(    1) = (   0.0000000   0.0000000   0.0000000), wk =   0.0020000
        k(    2) = (  -0.1000000   0.1000000  -0.1000000), wk =   0.0160000
        k(    3) = (  -0.2000000   0.2000000  -0.2000000), wk =   0.0160000
        k(    4) = (  -0.3000000   0.3000000  -0.3000000), wk =   0.0160000
        k(    5) = (  -0.4000000   0.4000000  -0.4000000), wk =   0.0160000
        k(    6) = (   0.5000000  -0.5000000   0.5000000), wk =   0.0080000
        k(    7) = (   0.0000000   0.2000000   0.0000000), wk =   0.0120000
        k(    8) = (  -0.1000000   0.3000000  -0.1000000), wk =   0.0480000
        k(    9) = (  -0.2000000   0.4000000  -0.2000000), wk =   0.0480000
        k(   10) = (  -0.3000000   0.5000000  -0.3000000), wk =   0.0480000
        k(   11) = (   0.6000000  -0.4000000   0.6000000), wk =   0.0480000
        k(   12) = (   0.5000000  -0.3000000   0.5000000), wk =   0.0480000
        k(   13) = (   0.4000000  -0.2000000   0.4000000), wk =   0.0480000
        k(   14) = (   0.3000000  -0.1000000   0.3000000), wk =   0.0480000
        k(   15) = (   0.2000000   0.0000000   0.2000000), wk =   0.0240000
        k(   16) = (   0.0000000   0.4000000   0.0000000), wk =   0.0120000
        k(   17) = (  -0.1000000   0.5000000  -0.1000000), wk =   0.0480000
        k(   18) = (  -0.2000000   0.6000000  -0.2000000), wk =   0.0480000
        k(   19) = (   0.7000000  -0.3000000   0.7000000), wk =   0.0480000
        k(   20) = (   0.6000000  -0.2000000   0.6000000), wk =   0.0480000
        k(   21) = (   0.5000000  -0.1000000   0.5000000), wk =   0.0480000
        k(   22) = (   0.4000000   0.0000000   0.4000000), wk =   0.0240000
        k(   23) = (   0.0000000   0.6000000   0.0000000), wk =   0.0120000
        k(   24) = (  -0.1000000   0.7000000  -0.1000000), wk =   0.0480000
        k(   25) = (   0.8000000  -0.2000000   0.8000000), wk =   0.0480000
        k(   26) = (   0.7000000  -0.1000000   0.7000000), wk =   0.0480000
        k(   27) = (   0.6000000  -0.0000000   0.6000000), wk =   0.0240000
        k(   28) = (   0.0000000   0.8000000   0.0000000), wk =   0.0120000
        k(   29) = (   0.9000000  -0.1000000   0.9000000), wk =   0.0480000
        k(   30) = (   0.8000000   0.0000000   0.8000000), wk =   0.0240000
        k(   31) = (   0.0000000  -1.0000000   0.0000000), wk =   0.0060000
        k(   32) = (  -0.2000000   0.4000000   0.0000000), wk =   0.0480000
        k(   33) = (  -0.3000000   0.5000000  -0.1000000), wk =   0.0960000
        k(   34) = (   0.6000000  -0.4000000   0.8000000), wk =   0.0960000
        k(   35) = (   0.5000000  -0.3000000   0.7000000), wk =   0.0480000
        k(   36) = (  -0.2000000   0.6000000   0.0000000), wk =   0.0480000
        k(   37) = (   0.7000000  -0.3000000   0.9000000), wk =   0.0960000
        k(   38) = (   0.6000000  -0.2000000   0.8000000), wk =   0.0960000
        k(   39) = (   0.5000000  -0.1000000   0.7000000), wk =   0.0960000
        k(   40) = (   0.4000000   0.0000000   0.6000000), wk =   0.0480000
        k(   41) = (   0.8000000  -0.2000000   1.0000000), wk =   0.0480000
        k(   42) = (   0.7000000  -0.1000000   0.9000000), wk =   0.0960000
        k(   43) = (   0.6000000   0.0000000   0.8000000), wk =   0.0480000
        k(   44) = (  -0.2000000  -1.0000000   0.0000000), wk =   0.0240000
        k(   45) = (   0.6000000  -0.2000000   1.0000000), wk =   0.0480000
        k(   46) = (   0.5000000  -0.1000000   0.9000000), wk =   0.0480000
        k(   47) = (  -0.4000000  -1.0000000   0.0000000), wk =   0.0240000

     Dense  grid:     2733 G-vectors     FFT dimensions: (  20,  20,  20)

     Estimated max dynamical RAM per process >       3.83 MB

     Estimated total dynamical RAM >      19.14 MB

     Check: negative/imaginary core charge=   -0.000005    0.000000

     Initial potential from superposition of free atoms

     starting charge   18.97647, renormalised to   19.00000
     Starting wfcs are   10 randomized atomic wfcs +    4 random wfcs
     Checking if some PAW data can be deallocated... 

     total cpu time spent up to now is        1.3 secs

     Self-consistent Calculation

     iteration #  1     ecut=    40.00 Ry     beta= 0.70
     Davidson diagonalization with overlap
     ethr =  1.00E-02,  avg # of iterations =  4.7

     Threshold (ethr) on eigenvalues was too large:
     Diagonalizing with lowered threshold

     Davidson diagonalization with overlap
     ethr =  1.34E-04,  avg # of iterations =  1.4

     total cpu time spent up to now is        2.2 secs

     total energy              =   -1045.07200615 Ry
     Harris-Foulkes estimate   =   -1045.09134588 Ry
     estimated scf accuracy    <       0.02550290 Ry

     iteration #  2     ecut=    40.00 Ry     beta= 0.70
     Davidson diagonalization with overlap
     ethr =  1.34E-04,  avg # of iterations =  2.0

     total cpu time spent up to now is        2.6 secs

     total energy              =   -1045.07847563 Ry
     Harris-Foulkes estimate   =   -1045.07893257 Ry
     estimated scf accuracy    <       0.00107480 Ry

     iteration #  3     ecut=    40.00 Ry     beta= 0.70
     Davidson diagonalization with overlap
     ethr =  5.66E-06,  avg # of iterations =  2.5

     total cpu time spent up to now is        3.0 secs

     total energy              =   -1045.07865899 Ry
     Harris-Foulkes estimate   =   -1045.07864180 Ry
     estimated scf accuracy    <       0.00002334 Ry

     iteration #  4     ecut=    40.00 Ry     beta= 0.70
     Davidson diagonalization with overlap
     ethr =  1.23E-07,  avg # of iterations =  2.0

     total cpu time spent up to now is        3.4 secs

     total energy              =   -1045.07866323 Ry
     Harris-Foulkes estimate   =   -1045.07866270 Ry
     estimated scf accuracy    <       0.00000040 Ry

     iteration #  5     ecut=    40.00 Ry     beta= 0.70
     Davidson diagonalization with overlap
     ethr =  2.10E-09,  avg # of iterations =  2.0

     total cpu time spent up to now is        3.8 secs

     End of self-consistent calculation

          k = 0.0000 0.0000 0.0000 (   331 PWs)   bands (ev):

    -9.5832  -9.5832  -9.5832  -9.2459  -9.2459   9.0718  46.8179  46.8179
    46.8179  48.1148  54.0668  54.0668  54.0668  57.5004

          k =-0.1000 0.1000-0.1000 (   335 PWs)   bands (ev):

    -9.6050  -9.5738  -9.5738  -9.2335  -9.2335   9.4716  42.7435  46.2471
    46.2471  47.9964  54.9743  54.9743  55.7297  57.2657

          k =-0.2000 0.2000-0.2000 (   332 PWs)   bands (ev):

    -9.5268  -9.5119  -9.5119  -9.1539  -9.1539  10.6735  36.5351  45.0412
    45.0412  48.0694  54.1433  55.0308  55.0308  57.2785

          k =-0.3000 0.3000-0.3000 (   344 PWs)   bands (ev):

    -9.5534  -9.5167  -9.5167  -9.1323  -9.1323  12.6583  30.6537  43.8092
    43.8092  48.0602  52.4228  53.2535  53.2535  60.2619

          k =-0.4000 0.4000-0.4000 (   344 PWs)   bands (ev):

    -9.5993  -9.5213  -9.5213  -8.9906  -8.9906  15.2508  25.6436  42.9183
    42.9183  47.9420  51.4137  52.2307  52.2307  63.4219

          k = 0.5000-0.5000 0.5000 (   344 PWs)   bands (ev):

    -9.6298  -9.5494  -9.5494  -8.9149  -8.9149  17.0896  22.9874  42.5916
    42.5916  47.8675  51.0912  51.8844  51.8844  65.1301

          k = 0.0000 0.2000 0.0000 (   335 PWs)   bands (ev):

    -9.6473  -9.5357  -9.5357  -9.2577  -9.2104   9.6048  44.4237  44.4237
    44.8137  47.0284  53.4456  55.9834  56.6872  56.6872

          k =-0.1000 0.3000-0.1000 (   335 PWs)   bands (ev):

    -9.6409  -9.4486  -9.4441  -9.2654  -9.1557  10.5393  38.7672  42.7839
    44.3778  47.9956  50.8202  55.8248  58.0206  58.1971

          k =-0.2000 0.4000-0.2000 (   338 PWs)   bands (ev):

    -9.5915  -9.4393  -9.4304  -9.2246  -9.0776  12.2666  32.7887  41.6232
    42.9521  47.4461  52.1221  55.6054  56.3056  56.7364

          k =-0.3000 0.5000-0.3000 (   339 PWs)   bands (ev):

    -9.5822  -9.4625  -9.4389  -9.1023  -8.9547  14.6891  27.4900  41.1216
    41.2890  46.6016  53.8143  54.6235  54.6277  58.3010

          k = 0.6000-0.4000 0.6000 (   342 PWs)   bands (ev):

    -9.5736  -9.5051  -9.4700  -9.0133  -8.9092  17.1114  23.7391  39.9269
    41.3801  46.5100  53.1026  53.4503  55.1009  62.1026

          k = 0.5000-0.3000 0.5000 (   340 PWs)   bands (ev):

    -9.5577  -9.4917  -9.4632  -8.9815  -8.9565  16.4285  24.6959  39.2027
    42.4463  47.0992  52.2631  52.8258  56.2041  62.7525

          k = 0.4000-0.2000 0.4000 (   344 PWs)   bands (ev):

    -9.5251  -9.5082  -9.4899  -9.1742  -9.0327  13.8175  29.1690  39.2034
    44.2106  48.3041  51.6435  52.6820  57.6756  59.1090

          k = 0.3000-0.1000 0.3000 (   333 PWs)   bands (ev):

    -9.5245  -9.4550  -9.4261  -9.2298  -9.0970  11.6047  34.7283  39.9169
    46.2613  49.6251  51.4791  53.2408  56.0159  57.6434

          k = 0.2000 0.0000 0.2000 (   331 PWs)   bands (ev):

    -9.5878  -9.4975  -9.4922  -9.2041  -9.1688  10.1390  40.3627  41.6557
    47.3053  49.0148  53.4249  54.4164  54.7070  56.4740

          k = 0.0000 0.4000 0.0000 (   343 PWs)   bands (ev):

    -9.7330  -9.3796  -9.3796  -9.3702  -9.1476  11.2062  40.4508  40.7902
    40.7902  45.3877  47.6709  60.1934  60.2429  60.2429

          k =-0.1000 0.5000-0.1000 (   340 PWs)   bands (ev):

    -9.7117  -9.4255  -9.3009  -9.2425  -9.0655  12.6676  35.1105  39.4220
    39.7179  45.4240  47.6737  59.8762  59.9968  61.0696

          k =-0.2000 0.6000-0.2000 (   339 PWs)   bands (ev):

    -9.6686  -9.4379  -9.3005  -9.1632  -8.9314  14.8574  29.8568  37.4935
    38.8301  44.8974  51.5033  58.1877  58.5046  60.4710

          k = 0.7000-0.3000 0.7000 (   345 PWs)   bands (ev):

    -9.6337  -9.4080  -9.3417  -9.1247  -8.9465  17.3827  25.6617  35.5440
    39.1032  44.9185  56.0240  56.6865  57.0941  60.8177

          k = 0.6000-0.2000 0.6000 (   348 PWs)   bands (ev):

    -9.6089  -9.4137  -9.3592  -9.1165  -8.9972  17.9722  24.8900  34.2616
    40.2687  45.5067  55.5457  55.6958  60.6068  62.3909

          k = 0.5000-0.1000 0.5000 (   339 PWs)   bands (ev):

    -9.5215  -9.4083  -9.3089  -9.1517  -9.0453  15.6653  28.4789  33.8367
    42.2304  46.7222  54.3727  55.2597  58.8257  59.9228

          k = 0.4000 0.0000 0.4000 (   333 PWs)   bands (ev):

    -9.4643  -9.4551  -9.2819  -9.2812  -9.0332  13.3091  32.8586  34.9331
    44.6580  48.5361  52.5356  54.9153  55.5836  57.9395

          k = 0.0000 0.6000 0.0000 (   339 PWs)   bands (ev):

    -9.8225  -9.4323  -9.1385  -9.1385  -9.0471  13.8625  34.5913  37.7962
    37.7962  44.1554  44.4996  63.6187  63.6187  64.6463

          k =-0.1000 0.7000-0.1000 (   333 PWs)   bands (ev):

    -9.7745  -9.4705  -9.0786  -9.0603  -8.9064  15.7960  31.0115  35.2626
    36.9697  43.8267  46.2401  62.0183  63.2004  66.5093

          k = 0.8000-0.2000 0.8000 (   342 PWs)   bands (ev):

    -9.7270  -9.4666  -9.1263  -9.0996  -8.9145  18.1890  27.5904  32.2379
    37.0473  43.7945  50.5366  60.2656  61.4395  66.7092

          k = 0.7000-0.1000 0.7000 (   343 PWs)   bands (ev):

    -9.6519  -9.3358  -9.1694  -9.1584  -8.9716  19.5462  26.2023  30.0662
    38.0489  44.2656  55.5860  58.9765  59.8757  64.2752

          k = 0.6000-0.0000 0.6000 (   343 PWs)   bands (ev):

    -9.5926  -9.3043  -9.1814  -9.1547  -9.1321  17.9496  28.3568  29.4788
    39.8768  45.2378  57.7733  57.8444  60.0567  60.3672

          k = 0.0000 0.8000 0.0000 (   335 PWs)   bands (ev):

    -9.8409  -9.5534  -8.9403  -8.9376  -8.9376  17.4588  28.6010  35.8668
    35.8668  43.0614  43.4859  64.2605  67.6989  67.6989

          k = 0.9000-0.1000 0.9000 (   340 PWs)   bands (ev):

    -9.8240  -9.5734  -8.9716  -8.9507  -8.9065  19.5424  26.1947  33.3868
    35.6789  43.1303  45.5657  63.1040  66.6051  69.4807

          k = 0.8000 0.0000 0.8000 (   341 PWs)   bands (ev):

    -9.7355  -9.5052  -9.0030  -8.9990  -8.9475  20.5816  25.8939  30.0782
    36.4369  43.4880  50.1896  61.4001  64.3331  66.2402

          k = 0.0000-1.0000 0.0000 (   342 PWs)   bands (ev):

    -9.8811  -9.6518  -8.9208  -8.9133  -8.9133  20.5800  24.6264  35.2025
    35.2025  42.6152  43.2415  64.1062  70.0425  70.9456

          k =-0.2000 0.4000 0.0000 (   335 PWs)   bands (ev):

    -9.6235  -9.4251  -9.3406  -9.2996  -9.0748  11.7378  36.4425  38.2814
    44.0671  48.4137  49.1560  55.8868  57.3256  59.7615

          k =-0.3000 0.5000-0.1000 (   338 PWs)   bands (ev):

    -9.5766  -9.4478  -9.3498  -9.2100  -9.0116  13.7013  31.4134  36.7294
    41.9220  47.9668  51.6452  54.5122  57.5999  61.2354

          k = 0.6000-0.4000 0.8000 (   341 PWs)   bands (ev):

    -9.5408  -9.4802  -9.3535  -9.1186  -8.9579  16.2268  26.6454  36.3646
    40.0075  47.4257  52.2400  56.9818  58.0402  59.7589

          k = 0.5000-0.3000 0.7000 (   346 PWs)   bands (ev):

    -9.5503  -9.5309  -9.3467  -9.0859  -8.9581  17.9586  24.1441  36.3736
    39.2003  47.2312  51.9752  58.2453  58.6846  61.5057

          k =-0.2000 0.6000 0.0000 (   331 PWs)   bands (ev):

    -9.6878  -9.4145  -9.1913  -9.1076  -8.9640  14.3673  32.7999  35.5591
    38.4127  46.9521  46.9982  57.9207  62.3608  65.1200

          k = 0.7000-0.3000 0.9000 (   337 PWs)   bands (ev):

    -9.6388  -9.4162  -9.2259  -9.0828  -8.9525  16.6916  28.8994  33.7418
    36.7293  46.7543  51.0005  56.0513  62.9519  63.8681

          k = 0.6000-0.2000 0.8000 (   348 PWs)   bands (ev):

    -9.6012  -9.4127  -9.2650  -9.1791  -8.9704  18.8562  25.8214  32.4533
    36.5047  47.0367  54.1595  56.3089  61.6061  62.7186

          k = 0.5000-0.1000 0.7000 (   346 PWs)   bands (ev):

    -9.5346  -9.4309  -9.2642  -9.1630  -9.0274  18.2087  26.8063  31.5956
    37.6263  47.8636  53.4441  57.6327  60.8349  61.2175

          k = 0.4000 0.0000 0.6000 (   341 PWs)   bands (ev):

    -9.4974  -9.4893  -9.2819  -9.1486  -9.0458  15.8159  30.1384  32.2261
    39.6094  49.0073  52.0395  54.5930  59.7663  62.6240

          k = 0.8000-0.2000 1.0000 (   336 PWs)   bands (ev):

    -9.7593  -9.4974  -9.0945  -8.9348  -8.9251  17.8579  28.5495  33.7857
    34.7763  45.8111  46.0934  60.2898  66.0362  67.7114

          k = 0.7000-0.1000 0.9000 (   343 PWs)   bands (ev):

    -9.6859  -9.4696  -9.1588  -9.0448  -8.9141  19.9349  26.7717  30.7111
    34.5690  46.1608  50.4419  58.5004  63.1360  66.2939

          k = 0.6000 0.0000 0.8000 (   342 PWs)   bands (ev):

    -9.5895  -9.3390  -9.2392  -9.1198  -8.9545  20.0236  27.7074  28.2756
    35.6930  46.8806  55.6827  56.6692  59.2201  64.0109

          k =-0.2000-1.0000 0.0000 (   346 PWs)   bands (ev):

    -9.7889  -9.6062  -9.0251  -8.9884  -8.9094  20.6754  25.2618  33.1737
    33.7305  45.4214  45.7886  61.7659  65.9621  68.1859

          k = 0.6000-0.2000 1.0000 (   343 PWs)   bands (ev):

    -9.5407  -9.4523  -9.2866  -9.0715  -8.9700  18.8945  28.1939  30.4885
    34.3897  50.5321  51.0260  54.6654  61.6713  65.7425

          k = 0.5000-0.1000 0.9000 (   344 PWs)   bands (ev):

    -9.4702  -9.4349  -9.3151  -9.1129  -8.9300  20.2111  27.2187  29.6515
    33.4453  50.6744  53.0465  56.2216  57.1502  66.9106

          k =-0.4000-1.0000 0.0000 (   344 PWs)   bands (ev):

    -9.5542  -9.4600  -9.2570  -9.0821  -8.8978  20.8433  27.0929  29.8898
    32.1365  50.6770  50.9760  56.2748  58.7069  68.9098

     the Fermi energy is    46.7684 ev

!    total energy              =   -1045.07866327 Ry
     Harris-Foulkes estimate   =   -1045.07866327 Ry
     estimated scf accuracy    <          1.7E-09 Ry

     total all-electron energy =    -48490.531636 Ry

     The total energy is the sum of the following terms:

     one-electron contribution =       1.70183272 Ry
     hartree contribution      =      28.02103251 Ry
     xc contribution           =     -63.81901833 Ry
     ewald contribution        =    -242.33311992 Ry
     one-center paw contrib.   =    -768.64884798 Ry
     smearing contrib. (-TS)   =      -0.00054226 Ry

     convergence has been achieved in   5 iterations

     Forces acting on atoms (cartesian axes, Ry/au):

     atom    1 type  1   force =     0.00000000    0.00000000    0.00000000

     Total force =     0.000000     Total SCF correction =     0.000000


     Computing stress (Cartesian axis) and pressure

          total   stress  (Ry/bohr**3)                   (kbar)     P= 4794.04
   0.03258925   0.00000000   0.00000000       4794.04      0.00      0.00
   0.00000000   0.03258925   0.00000000          0.00   4794.04      0.00
  -0.00000000   0.00000000   0.03258925         -0.00      0.00   4794.04


     Writing output data file Fr.save/

     init_run     :      0.26s CPU      0.27s WALL (       1 calls)
     electrons    :      2.34s CPU      2.51s WALL (       1 calls)
     forces       :      0.03s CPU      0.03s WALL (       1 calls)
     stress       :      0.10s CPU      0.11s WALL (       1 calls)

     Called by init_run:
     wfcinit      :      0.08s CPU      0.10s WALL (       1 calls)
     potinit      :      0.05s CPU      0.05s WALL (       1 calls)
     hinit0       :      0.12s CPU      0.12s WALL (       1 calls)

     Called by electrons:
     c_bands      :      1.84s CPU      1.97s WALL (       6 calls)
     sum_band     :      0.25s CPU      0.28s WALL (       6 calls)
     v_of_rho     :      0.00s CPU      0.00s WALL (       6 calls)
     newd         :      0.02s CPU      0.02s WALL (       6 calls)
     PAW_pot      :      0.28s CPU      0.28s WALL (       6 calls)
     mix_rho      :      0.00s CPU      0.00s WALL (       6 calls)

     Called by c_bands:
     init_us_2    :      0.04s CPU      0.04s WALL (     705 calls)
     cegterg      :      1.78s CPU      1.91s WALL (     282 calls)

     Called by sum_band:
     sum_band:bec :      0.00s CPU      0.00s WALL (     282 calls)
     addusdens    :      0.02s CPU      0.02s WALL (       6 calls)

     Called by *egterg:
     h_psi        :      1.14s CPU      1.24s WALL (    1017 calls)
     s_psi        :      0.03s CPU      0.04s WALL (    1017 calls)
     g_psi        :      0.00s CPU      0.00s WALL (     688 calls)
     cdiaghg      :      0.42s CPU      0.44s WALL (     923 calls)

     Called by h_psi:
     h_psi:pot    :      1.13s CPU      1.24s WALL (    1017 calls)
     h_psi:calbec :      0.06s CPU      0.06s WALL (    1017 calls)
     vloc_psi     :      1.04s CPU      1.13s WALL (    1017 calls)
     add_vuspsi   :      0.03s CPU      0.04s WALL (    1017 calls)

     General routines
     calbec       :      0.10s CPU      0.11s WALL (    1534 calls)
     fft          :      0.01s CPU      0.01s WALL (      34 calls)
     ffts         :      0.00s CPU      0.00s WALL (       6 calls)
     fftw         :      1.14s CPU      1.24s WALL (   25208 calls)

     Parallel routines
     fft_scatt_xy :      0.10s CPU      0.10s WALL (   25248 calls)
     fft_scatt_yz :      0.43s CPU      0.46s WALL (   25248 calls)

     PWSCF        :     3.82s CPU         4.10s WALL


   This run was terminated on:  22:31:18   7Apr2024            

=------------------------------------------------------------------------------=
   JOB DONE.
=------------------------------------------------------------------------------=
