
     Program PWSCF v.6.3MaX starts on  7Apr2024 at 22:18: 2 

     This program is part of the open-source Quantum ESPRESSO suite
     for quantum simulation of materials; please cite
         "P. Giannozzi et al., J. Phys.:Condens. Matter 21 395502 (2009);
         "P. Giannozzi et al., J. Phys.:Condens. Matter 29 465901 (2017);
          URL http://www.quantum-espresso.org", 
     in publications or presentations arising from this work. More details at
     http://www.quantum-espresso.org/quote

     Parallel version (MPI), running on     5 processors

     MPI processes distributed on     1 nodes
     R & G space division:  proc/nbgrp/npool/nimage =       5
     Waiting for input...
     Reading input from standard input

     Current dimensions of program PWSCF are:
     Max number of different atomic species (ntypx) = 10
     Max number of k-points (npk) =  40000
     Max angular momentum in pseudopotentials (lmaxx) =  3
               file Fr.pbe-spdn-kjpaw_psl.1.0.0.UPF: wavefunction(s)  6P renormalized

     Subspace diagonalization in iterative solution of the eigenvalue problem:
     a serial algorithm will be used


     Parallelization info
     --------------------
     sticks:   dense  smooth     PW     G-vecs:    dense   smooth      PW
     Min         129     129     39                 2168     2168     376
     Max         130     130     40                 2171     2171     380
     Sum         649     649    199                10849    10849    1893



     bravais-lattice index     =            2
     lattice parameter (alat)  =       6.8300  a.u.
     unit-cell volume          =      79.6530 (a.u.)^3
     number of atoms/cell      =            1
     number of atomic types    =            1
     number of electrons       =        19.00
     number of Kohn-Sham states=           14
     kinetic-energy cutoff     =     100.0000  Ry
     charge density cutoff     =     400.0000  Ry
     convergence threshold     =      1.0E-08
     mixing beta               =       0.7000
     number of iterations used =            8  plain     mixing
     Exchange-correlation      = SLA PW PBX PBC ( 1  4  3  4 0 0)

     celldm(1)=   6.830000  celldm(2)=   0.000000  celldm(3)=   0.000000
     celldm(4)=   0.000000  celldm(5)=   0.000000  celldm(6)=   0.000000

     crystal axes: (cart. coord. in units of alat)
               a(1) = (  -0.500000   0.000000   0.500000 )  
               a(2) = (   0.000000   0.500000   0.500000 )  
               a(3) = (  -0.500000   0.500000   0.000000 )  

     reciprocal axes: (cart. coord. in units 2 pi/alat)
               b(1) = ( -1.000000 -1.000000  1.000000 )  
               b(2) = (  1.000000  1.000000  1.000000 )  
               b(3) = ( -1.000000  1.000000 -1.000000 )  


     PseudoPot. # 1 for Fr read from file:
     /home/lorenzo/pseudos/Fr/Fr.pbe-spdn-kjpaw_psl.1.0.0.UPF
     MD5 check sum: 362a188b966a64328b94f1ef5f32e8c4
     Pseudo is Projector augmented-wave + core cor, Zval = 19.0
     Generated using "atomic" code by A. Dal Corso v.6.2.2
     Shape of augmentation charge: PSQ
     Using radial grid of 1287 points,  6 beta functions with: 
                l(1) =   0
                l(2) =   0
                l(3) =   1
                l(4) =   1
                l(5) =   2
                l(6) =   2
     Q(r) pseudized with 0 coefficients 


     atomic species   valence    mass     pseudopotential
        Fr            19.00   223.00000     Fr( 1.00)

     48 Sym. Ops., with inversion, found



   Cartesian axes

     site n.     atom                  positions (alat units)
         1           Fr  tau(   1) = (   0.0000000   0.0000000   0.0000000  )

     number of k points=    35  gaussian smearing, width (Ry)=  0.0100
                       cart. coord. in units 2pi/alat
        k(    1) = (   0.0000000   0.0000000   0.0000000), wk =   0.0027435
        k(    2) = (  -0.1111111   0.1111111  -0.1111111), wk =   0.0219479
        k(    3) = (  -0.2222222   0.2222222  -0.2222222), wk =   0.0219479
        k(    4) = (  -0.3333333   0.3333333  -0.3333333), wk =   0.0219479
        k(    5) = (  -0.4444444   0.4444444  -0.4444444), wk =   0.0219479
        k(    6) = (   0.0000000   0.2222222   0.0000000), wk =   0.0164609
        k(    7) = (  -0.1111111   0.3333333  -0.1111111), wk =   0.0658436
        k(    8) = (  -0.2222222   0.4444444  -0.2222222), wk =   0.0658436
        k(    9) = (  -0.3333333   0.5555556  -0.3333333), wk =   0.0658436
        k(   10) = (   0.5555556  -0.3333333   0.5555556), wk =   0.0658436
        k(   11) = (   0.4444444  -0.2222222   0.4444444), wk =   0.0658436
        k(   12) = (   0.3333333  -0.1111111   0.3333333), wk =   0.0658436
        k(   13) = (   0.2222222  -0.0000000   0.2222222), wk =   0.0329218
        k(   14) = (   0.0000000   0.4444444   0.0000000), wk =   0.0164609
        k(   15) = (  -0.1111111   0.5555556  -0.1111111), wk =   0.0658436
        k(   16) = (  -0.2222222   0.6666667  -0.2222222), wk =   0.0658436
        k(   17) = (   0.6666667  -0.2222222   0.6666667), wk =   0.0658436
        k(   18) = (   0.5555556  -0.1111111   0.5555556), wk =   0.0658436
        k(   19) = (   0.4444444   0.0000000   0.4444444), wk =   0.0329218
        k(   20) = (   0.0000000   0.6666667   0.0000000), wk =   0.0164609
        k(   21) = (  -0.1111111   0.7777778  -0.1111111), wk =   0.0658436
        k(   22) = (   0.7777778  -0.1111111   0.7777778), wk =   0.0658436
        k(   23) = (   0.6666667  -0.0000000   0.6666667), wk =   0.0329218
        k(   24) = (   0.0000000   0.8888889   0.0000000), wk =   0.0164609
        k(   25) = (   0.8888889   0.0000000   0.8888889), wk =   0.0329218
        k(   26) = (  -0.2222222   0.4444444   0.0000000), wk =   0.0658436
        k(   27) = (  -0.3333333   0.5555556  -0.1111111), wk =   0.1316872
        k(   28) = (   0.5555556  -0.3333333   0.7777778), wk =   0.1316872
        k(   29) = (  -0.2222222   0.6666667   0.0000000), wk =   0.0658436
        k(   30) = (   0.6666667  -0.2222222   0.8888889), wk =   0.1316872
        k(   31) = (   0.5555556  -0.1111111   0.7777778), wk =   0.1316872
        k(   32) = (   0.4444444   0.0000000   0.6666667), wk =   0.0658436
        k(   33) = (   0.7777778  -0.1111111   1.0000000), wk =   0.0658436
        k(   34) = (   0.6666667  -0.0000000   0.8888889), wk =   0.0658436
        k(   35) = (   0.5555556  -0.1111111   1.0000000), wk =   0.0658436

     Dense  grid:    10849 G-vectors     FFT dimensions: (  32,  32,  32)

     Estimated max dynamical RAM per process >      11.94 MB

     Estimated total dynamical RAM >      59.70 MB

     Initial potential from superposition of free atoms

     starting charge   18.97009, renormalised to   19.00000
     Starting wfcs are   10 randomized atomic wfcs +    4 random wfcs
     Checking if some PAW data can be deallocated... 

     total cpu time spent up to now is        1.5 secs

     Self-consistent Calculation

     iteration #  1     ecut=   100.00 Ry     beta= 0.70
     Davidson diagonalization with overlap
     ethr =  1.00E-02,  avg # of iterations =  4.8

     Threshold (ethr) on eigenvalues was too large:
     Diagonalizing with lowered threshold

     Davidson diagonalization with overlap
     ethr =  1.00E-04,  avg # of iterations =  1.8

     total cpu time spent up to now is        3.3 secs

     total energy              =   -1069.95752602 Ry
     Harris-Foulkes estimate   =   -1069.96972463 Ry
     estimated scf accuracy    <       0.01886808 Ry

     iteration #  2     ecut=   100.00 Ry     beta= 0.70
     Davidson diagonalization with overlap
     ethr =  9.93E-05,  avg # of iterations =  2.0

     total cpu time spent up to now is        4.0 secs

     total energy              =   -1069.96030226 Ry
     Harris-Foulkes estimate   =   -1069.96060308 Ry
     estimated scf accuracy    <       0.00055850 Ry

     iteration #  3     ecut=   100.00 Ry     beta= 0.70
     Davidson diagonalization with overlap
     ethr =  2.94E-06,  avg # of iterations =  3.0

     total cpu time spent up to now is        4.8 secs

     total energy              =   -1069.96035784 Ry
     Harris-Foulkes estimate   =   -1069.96036666 Ry
     estimated scf accuracy    <       0.00002311 Ry

     iteration #  4     ecut=   100.00 Ry     beta= 0.70
     Davidson diagonalization with overlap
     ethr =  1.22E-07,  avg # of iterations =  2.1

     total cpu time spent up to now is        5.7 secs

     total energy              =   -1069.96036286 Ry
     Harris-Foulkes estimate   =   -1069.96036250 Ry
     estimated scf accuracy    <       0.00000017 Ry

     iteration #  5     ecut=   100.00 Ry     beta= 0.70
     Davidson diagonalization with overlap
     ethr =  9.10E-10,  avg # of iterations =  2.3

     total cpu time spent up to now is        6.6 secs

     total energy              =   -1069.96036296 Ry
     Harris-Foulkes estimate   =   -1069.96036290 Ry
     estimated scf accuracy    <       0.00000002 Ry

     iteration #  6     ecut=   100.00 Ry     beta= 0.70
     Davidson diagonalization with overlap
     ethr =  9.84E-11,  avg # of iterations =  2.0

     total cpu time spent up to now is        7.3 secs

     End of self-consistent calculation

          k = 0.0000 0.0000 0.0000 (  1363 PWs)   bands (ev):

    -9.2627  -9.2627  -9.2627  -8.9182  -8.9182   9.4649  47.2628  47.2628
    47.2628  48.3054  53.8710  53.8710  53.8710  57.8169

          k =-0.1111 0.1111-0.1111 (  1351 PWs)   bands (ev):

    -9.2581  -9.2253  -9.2253  -8.9168  -8.9168   9.9598  42.3950  46.5318
    46.5318  48.1914  55.0834  55.0834  55.8535  57.1658

          k =-0.2222 0.2222-0.2222 (  1339 PWs)   bands (ev):

    -9.2503  -9.1730  -9.1730  -8.8689  -8.8689  11.4470  35.4895  45.1324
    45.1324  48.2254  53.9440  54.5898  54.5898  57.9066

          k =-0.3333 0.3333-0.3333 (  1356 PWs)   bands (ev):

    -9.2474  -9.1812  -9.1812  -8.7441  -8.7441  13.8829  29.1783  43.8568
    43.8568  48.1861  52.1698  52.7762  52.7762  61.4736

          k =-0.4444 0.4444-0.4444 (  1344 PWs)   bands (ev):

    -9.2487  -9.2044  -9.2044  -8.6429  -8.6429  16.8153  24.2546  43.1063
    43.1063  48.0817  51.3290  51.8912  51.8912  64.8136

          k = 0.0000 0.2222 0.0000 (  1347 PWs)   bands (ev):

    -9.3014  -9.1849  -9.1849  -8.9581  -8.8854  10.1246  44.3601  44.3601
    44.8807  46.9268  52.8468  56.3260  57.1188  57.1188

          k =-0.1111 0.3333-0.1111 (  1346 PWs)   bands (ev):

    -9.3127  -9.1209  -9.1120  -8.9701  -8.8329  11.2813  38.0012  42.5564
    44.1759  48.0016  50.3774  56.1103  58.2272  58.4808

          k =-0.2222 0.4444-0.2222 (  1346 PWs)   bands (ev):

    -9.2899  -9.1360  -9.1015  -8.8745  -8.7209  13.4089  31.5092  41.4575
    42.4016  46.9114  53.0392  55.7454  56.1011  56.8883

          k =-0.3333 0.5556-0.3333 (  1352 PWs)   bands (ev):

    -9.2653  -9.1658  -9.1284  -8.7513  -8.6325  16.2806  26.0557  40.5369
    41.2467  46.3443  54.1724  54.3376  55.2410  59.4417

          k = 0.5556-0.3333 0.5556 (  1346 PWs)   bands (ev):

    -9.2398  -9.1841  -9.1443  -8.6772  -8.6473  17.8195  23.8713  39.2563
    42.0350  46.6810  53.0215  53.2404  56.2973  63.7884

          k = 0.4444-0.2222 0.4444 (  1345 PWs)   bands (ev):

    -9.2156  -9.1907  -9.1328  -8.7675  -8.6884  15.2772  27.7286  38.8470
    43.7951  47.8374  52.1645  52.8098  57.8076  60.3941

          k = 0.3333-0.1111 0.3333 (  1352 PWs)   bands (ev):

    -9.2402  -9.1580  -9.1171  -8.9165  -8.7705  12.5956  33.6027  39.3477
    46.1899  49.6703  51.4642  53.0752  56.5067  58.1632

          k = 0.2222-0.0000 0.2222 (  1361 PWs)   bands (ev):

    -9.2622  -9.1768  -9.1656  -8.9514  -8.8624  10.7858  39.8182  41.1094
    47.7845  49.5325  53.0273  54.3160  54.3249  56.5766

          k = 0.0000 0.4444 0.0000 (  1343 PWs)   bands (ev):

    -9.3988  -9.0668  -8.9842  -8.9842  -8.8018  12.1068  39.7126  40.3764
    40.3764  45.0706  46.8115  61.1699  61.1699  61.3597

          k =-0.1111 0.5556-0.1111 (  1336 PWs)   bands (ev):

    -9.4133  -9.1254  -8.9276  -8.8747  -8.7098  13.9087  34.0928  38.6058
    39.0276  44.9105  47.7345  60.3769  60.6937  62.1805

          k =-0.2222 0.6667-0.2222 (  1347 PWs)   bands (ev):

    -9.3660  -9.1250  -8.9485  -8.8223  -8.6214  16.5440  28.6547  36.0173
    38.6987  44.5700  52.3858  58.3410  58.8796  62.0008

          k = 0.6667-0.2222 0.6667 (  1352 PWs)   bands (ev):

    -9.3112  -9.0660  -8.9755  -8.8160  -8.6421  18.9126  25.2034  34.0500
    39.4753  44.9182  56.8734  57.0755  57.9657  62.7761

          k = 0.5556-0.1111 0.5556 (  1348 PWs)   bands (ev):

    -9.2524  -9.0802  -8.9819  -8.7760  -8.7735  17.4308  27.3819  33.0599
    41.3132  45.9707  55.7814  56.0640  60.4338  61.0287

          k = 0.4444 0.0000 0.4444 (  1334 PWs)   bands (ev):

    -9.1920  -9.1703  -8.9643  -8.9578  -8.7326  14.6788  31.9009  33.8174
    43.9379  47.7565  53.7590  55.9020  55.9817  58.5542

          k = 0.0000 0.6667 0.0000 (  1347 PWs)   bands (ev):

    -9.5088  -9.2031  -8.7485  -8.7485  -8.7062  15.3816  32.9544  37.3589
    37.3589  43.7978  43.9287  64.6163  65.1591  65.1591

          k =-0.1111 0.7778-0.1111 (  1343 PWs)   bands (ev):

    -9.5018  -9.2318  -8.7472  -8.6909  -8.6139  17.7130  29.4251  34.2516
    36.7298  43.4831  46.4021  62.4449  64.3243  68.7487

          k = 0.7778-0.1111 0.7778 (  1338 PWs)   bands (ev):

    -9.4197  -9.1539  -8.7786  -8.7492  -8.6249  20.1631  26.8774  30.6608
    37.2467  43.7022  51.5532  60.6338  62.3759  66.9067

          k = 0.6667-0.0000 0.6667 (  1316 PWs)   bands (ev):

    -9.3322  -8.9669  -8.8985  -8.8286  -8.7327  19.8093  28.3110  28.3241
    38.8607  44.5243  57.4360  59.0022  60.0136  62.6387

          k = 0.0000 0.8889 0.0000 (  1338 PWs)   bands (ev):

    -9.5801  -9.2983  -8.6433  -8.5900  -8.5900  19.6602  26.6154  35.7558
    35.7558  42.8317  43.1751  64.4020  69.8531  69.8531

          k = 0.8889 0.0000 0.8889 (  1332 PWs)   bands (ev):

    -9.5368  -9.2782  -8.6627  -8.6143  -8.5875  21.1418  25.3126  33.0999
    35.9349  43.0669  45.9754  63.2680  67.6709  69.2471

          k =-0.2222 0.4444 0.0000 (  1351 PWs)   bands (ev):

    -9.3206  -9.1128  -8.9936  -8.9899  -8.7574  12.7613  35.5991  37.4597
    43.3556  48.6634  49.0384  55.7093  58.0698  60.7224

          k =-0.3333 0.5556-0.1111 (  1349 PWs)   bands (ev):

    -9.2715  -9.1526  -9.0050  -8.8619  -8.6874  15.1556  30.2181  35.9848
    40.8387  48.0988  52.1287  54.6878  58.5279  61.9293

          k = 0.5556-0.3333 0.7778 (  1349 PWs)   bands (ev):

    -9.2280  -9.1824  -8.9986  -8.7908  -8.6520  17.9592  25.5867  35.8109
    39.0750  47.6920  52.1581  58.7826  59.0481  60.3509

          k =-0.2222 0.6667 0.0000 (  1348 PWs)   bands (ev):

    -9.4105  -9.1686  -8.8954  -8.7534  -8.6668  15.9815  31.6719  34.7368
    37.1579  47.1204  47.1208  58.0487  64.0423  66.2576

          k = 0.6667-0.2222 0.8889 (  1340 PWs)   bands (ev):

    -9.3320  -9.1471  -8.9167  -8.7498  -8.6350  18.6541  27.9790  32.5457
    35.7814  47.1301  51.9595  56.0939  63.7025  64.9199

          k = 0.5556-0.1111 0.7778 (  1337 PWs)   bands (ev):

    -9.2641  -9.0738  -8.9261  -8.8407  -8.6544  19.8712  26.5697  31.0268
    36.3709  47.7957  54.4295  57.8775  59.3111  63.0788

          k = 0.4444 0.0000 0.6667 (  1346 PWs)   bands (ev):

    -9.2056  -9.1584  -8.9535  -8.7623  -8.7567  17.6480  29.3691  31.1016
    38.2544  48.9959  52.9306  55.2742  61.3566  63.0610

          k = 0.7778-0.1111 1.0000 (  1338 PWs)   bands (ev):

    -9.4700  -9.2424  -8.7483  -8.6583  -8.5906  20.0187  27.0289  33.2813
    34.1047  46.2360  46.3205  60.7447  65.7543  68.7960

          k = 0.6667-0.0000 0.8889 (  1340 PWs)   bands (ev):

    -9.3579  -9.1565  -8.8406  -8.7533  -8.5938  21.1705  26.8357  29.9284
    34.5246  46.7872  51.6638  58.4228  61.4203  66.6076

          k = 0.5556-0.1111 1.0000 (  1349 PWs)   bands (ev):

    -9.1829  -9.1618  -8.9968  -8.7830  -8.5922  20.7683  28.0843  29.6570
    33.0856  51.8435  52.0290  54.7385  58.7413  68.2704

     the Fermi energy is    46.9433 ev

!    total energy              =   -1069.96036296 Ry
     Harris-Foulkes estimate   =   -1069.96036296 Ry
     estimated scf accuracy    <          5.9E-10 Ry

     total all-electron energy =    -48515.570674 Ry

     The total energy is the sum of the following terms:

     one-electron contribution =       1.51306333 Ry
     hartree contribution      =      28.16121172 Ry
     xc contribution           =     -64.58844432 Ry
     ewald contribution        =    -242.33311988 Ry
     one-center paw contrib.   =    -792.71265527 Ry
     smearing contrib. (-TS)   =      -0.00041855 Ry

     convergence has been achieved in   6 iterations

     Forces acting on atoms (cartesian axes, Ry/au):

     atom    1 type  1   force =     0.00000000    0.00000000    0.00000000

     Total force =     0.000000     Total SCF correction =     0.000000


     Computing stress (Cartesian axis) and pressure

          total   stress  (Ry/bohr**3)                   (kbar)     P= 7225.48
   0.04911785  -0.00000000  -0.00000000       7225.48     -0.00     -0.00
  -0.00000000   0.04911785   0.00000000         -0.00   7225.48      0.00
  -0.00000000   0.00000000   0.04911785         -0.00      0.00   7225.48


     Writing output data file Fr.save/

     init_run     :      0.55s CPU      0.58s WALL (       1 calls)
     electrons    :      5.44s CPU      5.86s WALL (       1 calls)
     forces       :      0.06s CPU      0.06s WALL (       1 calls)
     stress       :      0.22s CPU      0.22s WALL (       1 calls)

     Called by init_run:
     wfcinit      :      0.19s CPU      0.20s WALL (       1 calls)
     potinit      :      0.12s CPU      0.13s WALL (       1 calls)
     hinit0       :      0.22s CPU      0.22s WALL (       1 calls)

     Called by electrons:
     c_bands      :      3.95s CPU      4.26s WALL (       7 calls)
     sum_band     :      0.74s CPU      0.80s WALL (       7 calls)
     v_of_rho     :      0.05s CPU      0.05s WALL (       7 calls)
     newd         :      0.07s CPU      0.08s WALL (       7 calls)
     PAW_pot      :      0.73s CPU      0.78s WALL (       7 calls)
     mix_rho      :      0.00s CPU      0.00s WALL (       7 calls)

     Called by c_bands:
     init_us_2    :      0.10s CPU      0.10s WALL (     595 calls)
     cegterg      :      3.80s CPU      4.10s WALL (     245 calls)

     Called by sum_band:
     sum_band:bec :      0.00s CPU      0.00s WALL (     245 calls)
     addusdens    :      0.08s CPU      0.09s WALL (       7 calls)

     Called by *egterg:
     h_psi        :      2.81s CPU      3.08s WALL (     904 calls)
     s_psi        :      0.09s CPU      0.10s WALL (     904 calls)
     g_psi        :      0.01s CPU      0.01s WALL (     624 calls)
     cdiaghg      :      0.41s CPU      0.42s WALL (     834 calls)

     Called by h_psi:
     h_psi:pot    :      2.79s CPU      3.06s WALL (     904 calls)
     h_psi:calbec :      0.16s CPU      0.17s WALL (     904 calls)
     vloc_psi     :      2.53s CPU      2.78s WALL (     904 calls)
     add_vuspsi   :      0.09s CPU      0.10s WALL (     904 calls)

     General routines
     calbec       :      0.27s CPU      0.29s WALL (    1324 calls)
     fft          :      0.02s CPU      0.02s WALL (     104 calls)
     ffts         :      0.00s CPU      0.00s WALL (       7 calls)
     fftw         :      2.84s CPU      3.10s WALL (   21476 calls)

     Parallel routines
     fft_scatt_xy :      0.27s CPU      0.29s WALL (   21587 calls)
     fft_scatt_yz :      1.03s CPU      1.13s WALL (   21587 calls)

     PWSCF        :     7.22s CPU         7.75s WALL


   This run was terminated on:  22:18:10   7Apr2024            

=------------------------------------------------------------------------------=
   JOB DONE.
=------------------------------------------------------------------------------=
