
     Program PWSCF v.6.3MaX starts on  7Apr2024 at 23: 0:38 

     This program is part of the open-source Quantum ESPRESSO suite
     for quantum simulation of materials; please cite
         "P. Giannozzi et al., J. Phys.:Condens. Matter 21 395502 (2009);
         "P. Giannozzi et al., J. Phys.:Condens. Matter 29 465901 (2017);
          URL http://www.quantum-espresso.org", 
     in publications or presentations arising from this work. More details at
     http://www.quantum-espresso.org/quote

     Parallel version (MPI), running on     5 processors

     MPI processes distributed on     1 nodes
     R & G space division:  proc/nbgrp/npool/nimage =       5
     Waiting for input...
     Reading input from standard input

     Current dimensions of program PWSCF are:
     Max number of different atomic species (ntypx) = 10
     Max number of k-points (npk) =  40000
     Max angular momentum in pseudopotentials (lmaxx) =  3
               file Fr.pbe-spdn-kjpaw_psl.1.0.0.UPF: wavefunction(s)  6P renormalized

     Subspace diagonalization in iterative solution of the eigenvalue problem:
     a serial algorithm will be used


     Parallelization info
     --------------------
     sticks:   dense  smooth     PW     G-vecs:    dense   smooth      PW
     Min         116     116     32                 1850     1850     290
     Max         117     117     33                 1853     1853     293
     Sum         583     583    163                 9257     9257    1459



     bravais-lattice index     =            2
     lattice parameter (alat)  =       6.8300  a.u.
     unit-cell volume          =      79.6530 (a.u.)^3
     number of atoms/cell      =            1
     number of atomic types    =            1
     number of electrons       =        19.00
     number of Kohn-Sham states=           14
     kinetic-energy cutoff     =      90.0000  Ry
     charge density cutoff     =     360.0000  Ry
     convergence threshold     =      1.0E-08
     mixing beta               =       0.7000
     number of iterations used =            8  plain     mixing
     Exchange-correlation      = SLA PW PBX PBC ( 1  4  3  4 0 0)

     celldm(1)=   6.830000  celldm(2)=   0.000000  celldm(3)=   0.000000
     celldm(4)=   0.000000  celldm(5)=   0.000000  celldm(6)=   0.000000

     crystal axes: (cart. coord. in units of alat)
               a(1) = (  -0.500000   0.000000   0.500000 )  
               a(2) = (   0.000000   0.500000   0.500000 )  
               a(3) = (  -0.500000   0.500000   0.000000 )  

     reciprocal axes: (cart. coord. in units 2 pi/alat)
               b(1) = ( -1.000000 -1.000000  1.000000 )  
               b(2) = (  1.000000  1.000000  1.000000 )  
               b(3) = ( -1.000000  1.000000 -1.000000 )  


     PseudoPot. # 1 for Fr read from file:
     /home/lorenzo/pseudos/Fr/Fr.pbe-spdn-kjpaw_psl.1.0.0.UPF
     MD5 check sum: 362a188b966a64328b94f1ef5f32e8c4
     Pseudo is Projector augmented-wave + core cor, Zval = 19.0
     Generated using "atomic" code by A. Dal Corso v.6.2.2
     Shape of augmentation charge: PSQ
     Using radial grid of 1287 points,  6 beta functions with: 
                l(1) =   0
                l(2) =   0
                l(3) =   1
                l(4) =   1
                l(5) =   2
                l(6) =   2
     Q(r) pseudized with 0 coefficients 


     atomic species   valence    mass     pseudopotential
        Fr            19.00   223.00000     Fr( 1.00)

     48 Sym. Ops., with inversion, found



   Cartesian axes

     site n.     atom                  positions (alat units)
         1           Fr  tau(   1) = (   0.0000000   0.0000000   0.0000000  )

     number of k points=     4  gaussian smearing, width (Ry)=  0.0100
                       cart. coord. in units 2pi/alat
        k(    1) = (   0.0000000   0.0000000   0.0000000), wk =   0.0740741
        k(    2) = (  -0.3333333   0.3333333  -0.3333333), wk =   0.5925926
        k(    3) = (   0.0000000   0.6666667   0.0000000), wk =   0.4444444
        k(    4) = (   0.6666667  -0.0000000   0.6666667), wk =   0.8888889

     Dense  grid:     9257 G-vectors     FFT dimensions: (  30,  30,  30)

     Estimated max dynamical RAM per process >       8.79 MB

     Estimated total dynamical RAM >      43.93 MB

     Initial potential from superposition of free atoms

     starting charge   18.97009, renormalised to   19.00000
     Starting wfcs are   10 randomized atomic wfcs +    4 random wfcs
     Checking if some PAW data can be deallocated... 

     total cpu time spent up to now is        1.3 secs

     Self-consistent Calculation

     iteration #  1     ecut=    90.00 Ry     beta= 0.70
     Davidson diagonalization with overlap
     ethr =  1.00E-02,  avg # of iterations =  4.5

     Threshold (ethr) on eigenvalues was too large:
     Diagonalizing with lowered threshold

     Davidson diagonalization with overlap
     ethr =  6.88E-05,  avg # of iterations =  1.8

     total cpu time spent up to now is        1.6 secs

     total energy              =   -1069.89100892 Ry
     Harris-Foulkes estimate   =   -1069.89937177 Ry
     estimated scf accuracy    <       0.01294469 Ry

     iteration #  2     ecut=    90.00 Ry     beta= 0.70
     Davidson diagonalization with overlap
     ethr =  6.81E-05,  avg # of iterations =  2.0

     total cpu time spent up to now is        1.8 secs

     total energy              =   -1069.89290310 Ry
     Harris-Foulkes estimate   =   -1069.89308214 Ry
     estimated scf accuracy    <       0.00045176 Ry

     iteration #  3     ecut=    90.00 Ry     beta= 0.70
     Davidson diagonalization with overlap
     ethr =  2.38E-06,  avg # of iterations =  2.5

     total cpu time spent up to now is        2.0 secs

     total energy              =   -1069.89294048 Ry
     Harris-Foulkes estimate   =   -1069.89294360 Ry
     estimated scf accuracy    <       0.00002112 Ry

     iteration #  4     ecut=    90.00 Ry     beta= 0.70
     Davidson diagonalization with overlap
     ethr =  1.11E-07,  avg # of iterations =  2.2

     total cpu time spent up to now is        2.2 secs

     total energy              =   -1069.89294493 Ry
     Harris-Foulkes estimate   =   -1069.89294468 Ry
     estimated scf accuracy    <       0.00000027 Ry

     iteration #  5     ecut=    90.00 Ry     beta= 0.70
     Davidson diagonalization with overlap
     ethr =  1.42E-09,  avg # of iterations =  2.0

     total cpu time spent up to now is        2.5 secs

     total energy              =   -1069.89294500 Ry
     Harris-Foulkes estimate   =   -1069.89294498 Ry
     estimated scf accuracy    <       0.00000003 Ry

     iteration #  6     ecut=    90.00 Ry     beta= 0.70
     Davidson diagonalization with overlap
     ethr =  1.53E-10,  avg # of iterations =  2.0

     total cpu time spent up to now is        2.7 secs

     End of self-consistent calculation

          k = 0.0000 0.0000 0.0000 (  1139 PWs)   bands (ev):

    -9.1365  -9.1365  -9.1365  -8.7958  -8.7958   9.4921  47.2862  47.2862
    47.2862  48.3238  53.8866  53.8866  53.8866  57.7753

          k =-0.3333 0.3333-0.3333 (  1149 PWs)   bands (ev):

    -9.1217  -9.0571  -9.0571  -8.6186  -8.6186  13.9145  29.1947  43.8878
    43.8878  48.1803  52.1907  52.7764  52.7764  61.4879

          k = 0.0000 0.6667 0.0000 (  1150 PWs)   bands (ev):

    -9.3840  -9.0829  -8.6199  -8.6199  -8.5827  15.4138  32.9910  37.3771
    37.3771  43.8181  43.9006  64.6331  65.1591  65.1591

          k = 0.6667-0.0000 0.6667 (  1141 PWs)   bands (ev):

    -9.2088  -8.8436  -8.7710  -8.7061  -8.6040  19.8563  28.3195  28.3420
    38.8823  44.5191  57.4446  59.0157  60.0258  62.6479

     the Fermi energy is    44.4884 ev

!    total energy              =   -1069.89294500 Ry
     Harris-Foulkes estimate   =   -1069.89294500 Ry
     estimated scf accuracy    <          1.0E-09 Ry

     total all-electron energy =    -48515.503256 Ry

     The total energy is the sum of the following terms:

     one-electron contribution =       1.49089683 Ry
     hartree contribution      =      28.28578632 Ry
     xc contribution           =     -64.60817175 Ry
     ewald contribution        =    -242.33311988 Ry
     one-center paw contrib.   =    -792.72595313 Ry
     smearing contrib. (-TS)   =      -0.00238339 Ry

     convergence has been achieved in   6 iterations

     Forces acting on atoms (cartesian axes, Ry/au):

     atom    1 type  1   force =     0.00000000    0.00000000    0.00000000

     Total force =     0.000000     Total SCF correction =     0.000000


     Computing stress (Cartesian axis) and pressure

          total   stress  (Ry/bohr**3)                   (kbar)     P= 7454.86
   0.05067711  -0.00000000   0.00000000       7454.86     -0.00      0.00
   0.00000000   0.05067711  -0.00000000          0.00   7454.86     -0.00
   0.00000000   0.00000000   0.05067711          0.00      0.00   7454.86


     Writing output data file Fr.save/

     init_run     :      0.36s CPU      0.38s WALL (       1 calls)
     electrons    :      1.27s CPU      1.38s WALL (       1 calls)
     forces       :      0.05s CPU      0.05s WALL (       1 calls)
     stress       :      0.15s CPU      0.15s WALL (       1 calls)

     Called by init_run:
     wfcinit      :      0.02s CPU      0.02s WALL (       1 calls)
     potinit      :      0.11s CPU      0.13s WALL (       1 calls)
     hinit0       :      0.20s CPU      0.20s WALL (       1 calls)

     Called by electrons:
     c_bands      :      0.41s CPU      0.43s WALL (       7 calls)
     sum_band     :      0.15s CPU      0.15s WALL (       7 calls)
     v_of_rho     :      0.04s CPU      0.04s WALL (       7 calls)
     newd         :      0.07s CPU      0.08s WALL (       7 calls)
     PAW_pot      :      0.70s CPU      0.80s WALL (       7 calls)
     mix_rho      :      0.00s CPU      0.00s WALL (       7 calls)

     Called by c_bands:
     init_us_2    :      0.01s CPU      0.01s WALL (      68 calls)
     cegterg      :      0.40s CPU      0.42s WALL (      28 calls)

     Called by sum_band:
     sum_band:bec :      0.00s CPU      0.00s WALL (      28 calls)
     addusdens    :      0.06s CPU      0.06s WALL (       7 calls)

     Called by *egterg:
     h_psi        :      0.30s CPU      0.31s WALL (     100 calls)
     s_psi        :      0.01s CPU      0.01s WALL (     100 calls)
     g_psi        :      0.00s CPU      0.00s WALL (      68 calls)
     cdiaghg      :      0.04s CPU      0.04s WALL (      92 calls)

     Called by h_psi:
     h_psi:pot    :      0.30s CPU      0.31s WALL (     100 calls)
     h_psi:calbec :      0.02s CPU      0.02s WALL (     100 calls)
     vloc_psi     :      0.27s CPU      0.28s WALL (     100 calls)
     add_vuspsi   :      0.01s CPU      0.01s WALL (     100 calls)

     General routines
     calbec       :      0.03s CPU      0.03s WALL (     148 calls)
     fft          :      0.03s CPU      0.03s WALL (     104 calls)
     ffts         :      0.00s CPU      0.00s WALL (       7 calls)
     fftw         :      0.31s CPU      0.32s WALL (    2450 calls)

     Parallel routines
     fft_scatt_xy :      0.03s CPU      0.03s WALL (    2561 calls)
     fft_scatt_yz :      0.11s CPU      0.12s WALL (    2561 calls)

     PWSCF        :     2.76s CPU         2.93s WALL


   This run was terminated on:  23: 0:41   7Apr2024            

=------------------------------------------------------------------------------=
   JOB DONE.
=------------------------------------------------------------------------------=
