
     Program PWSCF v.6.3MaX starts on  7Apr2024 at 22:24:33 

     This program is part of the open-source Quantum ESPRESSO suite
     for quantum simulation of materials; please cite
         "P. Giannozzi et al., J. Phys.:Condens. Matter 21 395502 (2009);
         "P. Giannozzi et al., J. Phys.:Condens. Matter 29 465901 (2017);
          URL http://www.quantum-espresso.org", 
     in publications or presentations arising from this work. More details at
     http://www.quantum-espresso.org/quote

     Parallel version (MPI), running on     5 processors

     MPI processes distributed on     1 nodes
     R & G space division:  proc/nbgrp/npool/nimage =       5
     Waiting for input...
     Reading input from standard input

     Current dimensions of program PWSCF are:
     Max number of different atomic species (ntypx) = 10
     Max number of k-points (npk) =  40000
     Max angular momentum in pseudopotentials (lmaxx) =  3
               file Fr.pbe-spdn-kjpaw_psl.1.0.0.UPF: wavefunction(s)  6P renormalized

     Subspace diagonalization in iterative solution of the eigenvalue problem:
     a serial algorithm will be used


     Parallelization info
     --------------------
     sticks:   dense  smooth     PW     G-vecs:    dense   smooth      PW
     Min          24      24     11                  187      187      51
     Max          25      25     11                  191      191      52
     Sum         121     121     55                  941      941     259



     bravais-lattice index     =            2
     lattice parameter (alat)  =       6.8300  a.u.
     unit-cell volume          =      79.6530 (a.u.)^3
     number of atoms/cell      =            1
     number of atomic types    =            1
     number of electrons       =        19.00
     number of Kohn-Sham states=           14
     kinetic-energy cutoff     =      20.0000  Ry
     charge density cutoff     =      80.0000  Ry
     convergence threshold     =      1.0E-08
     mixing beta               =       0.7000
     number of iterations used =            8  plain     mixing
     Exchange-correlation      = SLA PW PBX PBC ( 1  4  3  4 0 0)

     celldm(1)=   6.830000  celldm(2)=   0.000000  celldm(3)=   0.000000
     celldm(4)=   0.000000  celldm(5)=   0.000000  celldm(6)=   0.000000

     crystal axes: (cart. coord. in units of alat)
               a(1) = (  -0.500000   0.000000   0.500000 )  
               a(2) = (   0.000000   0.500000   0.500000 )  
               a(3) = (  -0.500000   0.500000   0.000000 )  

     reciprocal axes: (cart. coord. in units 2 pi/alat)
               b(1) = ( -1.000000 -1.000000  1.000000 )  
               b(2) = (  1.000000  1.000000  1.000000 )  
               b(3) = ( -1.000000  1.000000 -1.000000 )  


     PseudoPot. # 1 for Fr read from file:
     /home/lorenzo/pseudos/Fr/Fr.pbe-spdn-kjpaw_psl.1.0.0.UPF
     MD5 check sum: 362a188b966a64328b94f1ef5f32e8c4
     Pseudo is Projector augmented-wave + core cor, Zval = 19.0
     Generated using "atomic" code by A. Dal Corso v.6.2.2
     Shape of augmentation charge: PSQ
     Using radial grid of 1287 points,  6 beta functions with: 
                l(1) =   0
                l(2) =   0
                l(3) =   1
                l(4) =   1
                l(5) =   2
                l(6) =   2
     Q(r) pseudized with 0 coefficients 


     atomic species   valence    mass     pseudopotential
        Fr            19.00   223.00000     Fr( 1.00)

     48 Sym. Ops., with inversion, found



   Cartesian axes

     site n.     atom                  positions (alat units)
         1           Fr  tau(   1) = (   0.0000000   0.0000000   0.0000000  )

     number of k points=    35  gaussian smearing, width (Ry)=  0.0100
                       cart. coord. in units 2pi/alat
        k(    1) = (   0.0000000   0.0000000   0.0000000), wk =   0.0027435
        k(    2) = (  -0.1111111   0.1111111  -0.1111111), wk =   0.0219479
        k(    3) = (  -0.2222222   0.2222222  -0.2222222), wk =   0.0219479
        k(    4) = (  -0.3333333   0.3333333  -0.3333333), wk =   0.0219479
        k(    5) = (  -0.4444444   0.4444444  -0.4444444), wk =   0.0219479
        k(    6) = (   0.0000000   0.2222222   0.0000000), wk =   0.0164609
        k(    7) = (  -0.1111111   0.3333333  -0.1111111), wk =   0.0658436
        k(    8) = (  -0.2222222   0.4444444  -0.2222222), wk =   0.0658436
        k(    9) = (  -0.3333333   0.5555556  -0.3333333), wk =   0.0658436
        k(   10) = (   0.5555556  -0.3333333   0.5555556), wk =   0.0658436
        k(   11) = (   0.4444444  -0.2222222   0.4444444), wk =   0.0658436
        k(   12) = (   0.3333333  -0.1111111   0.3333333), wk =   0.0658436
        k(   13) = (   0.2222222  -0.0000000   0.2222222), wk =   0.0329218
        k(   14) = (   0.0000000   0.4444444   0.0000000), wk =   0.0164609
        k(   15) = (  -0.1111111   0.5555556  -0.1111111), wk =   0.0658436
        k(   16) = (  -0.2222222   0.6666667  -0.2222222), wk =   0.0658436
        k(   17) = (   0.6666667  -0.2222222   0.6666667), wk =   0.0658436
        k(   18) = (   0.5555556  -0.1111111   0.5555556), wk =   0.0658436
        k(   19) = (   0.4444444   0.0000000   0.4444444), wk =   0.0329218
        k(   20) = (   0.0000000   0.6666667   0.0000000), wk =   0.0164609
        k(   21) = (  -0.1111111   0.7777778  -0.1111111), wk =   0.0658436
        k(   22) = (   0.7777778  -0.1111111   0.7777778), wk =   0.0658436
        k(   23) = (   0.6666667  -0.0000000   0.6666667), wk =   0.0329218
        k(   24) = (   0.0000000   0.8888889   0.0000000), wk =   0.0164609
        k(   25) = (   0.8888889   0.0000000   0.8888889), wk =   0.0329218
        k(   26) = (  -0.2222222   0.4444444   0.0000000), wk =   0.0658436
        k(   27) = (  -0.3333333   0.5555556  -0.1111111), wk =   0.1316872
        k(   28) = (   0.5555556  -0.3333333   0.7777778), wk =   0.1316872
        k(   29) = (  -0.2222222   0.6666667   0.0000000), wk =   0.0658436
        k(   30) = (   0.6666667  -0.2222222   0.8888889), wk =   0.1316872
        k(   31) = (   0.5555556  -0.1111111   0.7777778), wk =   0.1316872
        k(   32) = (   0.4444444   0.0000000   0.6666667), wk =   0.0658436
        k(   33) = (   0.7777778  -0.1111111   1.0000000), wk =   0.0658436
        k(   34) = (   0.6666667  -0.0000000   0.8888889), wk =   0.0658436
        k(   35) = (   0.5555556  -0.1111111   1.0000000), wk =   0.0658436

     Dense  grid:      941 G-vectors     FFT dimensions: (  15,  15,  15)

     Estimated max dynamical RAM per process >       1.67 MB

     Estimated total dynamical RAM >       8.37 MB

     Check: negative/imaginary core charge=   -0.000222    0.000000

     Initial potential from superposition of free atoms

     starting charge   18.97009, renormalised to   19.00000
     Starting wfcs are   10 randomized atomic wfcs +    4 random wfcs
     Checking if some PAW data can be deallocated... 

     total cpu time spent up to now is        1.3 secs

     Self-consistent Calculation

     iteration #  1     ecut=    20.00 Ry     beta= 0.70
     Davidson diagonalization with overlap
     ethr =  1.00E-02,  avg # of iterations =  4.6

     total cpu time spent up to now is        1.7 secs

     total energy              =   -1059.44939138 Ry
     Harris-Foulkes estimate   =   -1061.34997798 Ry
     estimated scf accuracy    <       2.33474366 Ry

     iteration #  2     ecut=    20.00 Ry     beta= 0.70
     Davidson diagonalization with overlap
     ethr =  1.00E-02,  avg # of iterations =  2.0

     total cpu time spent up to now is        2.1 secs

     total energy              =   -1059.92764418 Ry
     Harris-Foulkes estimate   =   -1059.98204483 Ry
     estimated scf accuracy    <       0.16066117 Ry

     iteration #  3     ecut=    20.00 Ry     beta= 0.70
     Davidson diagonalization with overlap
     ethr =  8.46E-04,  avg # of iterations =  2.0

     total cpu time spent up to now is        2.3 secs

     total energy              =   -1059.93743590 Ry
     Harris-Foulkes estimate   =   -1059.94069463 Ry
     estimated scf accuracy    <       0.00877357 Ry

     iteration #  4     ecut=    20.00 Ry     beta= 0.70
     Davidson diagonalization with overlap
     ethr =  4.62E-05,  avg # of iterations =  2.2

     total cpu time spent up to now is        2.6 secs

     total energy              =   -1059.93801732 Ry
     Harris-Foulkes estimate   =   -1059.93802333 Ry
     estimated scf accuracy    <       0.00006450 Ry

     iteration #  5     ecut=    20.00 Ry     beta= 0.70
     Davidson diagonalization with overlap
     ethr =  3.39E-07,  avg # of iterations =  2.7

     total cpu time spent up to now is        2.8 secs

     total energy              =   -1059.93802412 Ry
     Harris-Foulkes estimate   =   -1059.93802509 Ry
     estimated scf accuracy    <       0.00000560 Ry

     iteration #  6     ecut=    20.00 Ry     beta= 0.70
     Davidson diagonalization with overlap
     ethr =  2.95E-08,  avg # of iterations =  2.0

     total cpu time spent up to now is        3.1 secs

     total energy              =   -1059.93802478 Ry
     Harris-Foulkes estimate   =   -1059.93802487 Ry
     estimated scf accuracy    <       0.00000014 Ry

     iteration #  7     ecut=    20.00 Ry     beta= 0.70
     Davidson diagonalization with overlap
     ethr =  7.34E-10,  avg # of iterations =  2.0

     total cpu time spent up to now is        3.3 secs

     End of self-consistent calculation

          k = 0.0000 0.0000 0.0000 (   113 PWs)   bands (ev):

    -3.4207  -3.4207  -3.4207  -3.3294  -3.3294   8.3744  45.5723  45.5723
    45.5723  49.4999  56.1184  59.3779  59.3779  59.3780

          k =-0.1111 0.1111-0.1111 (   122 PWs)   bands (ev):

    -6.1155  -6.0747  -6.0747  -4.4072  -4.4072   8.8436  41.6364  45.1404
    45.1404  49.5764  56.7041  58.3768  58.7186  58.7186

          k =-0.2222 0.2222-0.2222 (   123 PWs)   bands (ev):

    -7.3769  -5.8999  -5.8999  -4.2669  -4.2669  10.2696  34.9984  43.9986
    43.9986  49.7853  54.6872  58.0275  58.0275  60.0769

          k =-0.3333 0.3333-0.3333 (   117 PWs)   bands (ev):

    -4.9143  -4.9143  -4.0110  -3.4204  -3.4204  12.5979  28.9030  42.6862
    42.6862  49.8571  54.0982  57.7281  57.7281  64.0713

          k =-0.4444 0.4444-0.4444 (   120 PWs)   bands (ev):

    -7.0101  -7.0101  -4.2550  -3.4090  -3.4090  15.2247  24.2069  41.8138
    41.8138  49.3489  54.0288  56.9315  56.9315  65.3941

          k = 0.0000 0.2222 0.0000 (   125 PWs)   bands (ev):

    -7.1434  -6.6019  -6.6019  -5.1296  -5.0586   8.9971  42.8527  43.5985
    43.5985  49.2263  54.7114  59.8019  59.8389  59.8389

          k =-0.1111 0.3333-0.1111 (   124 PWs)   bands (ev):

    -7.2438  -6.3098  -5.6303  -5.0707  -4.6161  10.1075  37.2170  42.0110
    43.1507  49.9041  52.5377  59.5908  60.0712  60.1105

          k =-0.2222 0.4444-0.2222 (   123 PWs)   bands (ev):

    -7.1228  -6.7224  -6.2650  -4.5022  -2.7209  12.1221  31.0013  40.8409
    41.5946  49.3837  54.3391  58.4224  59.5200  59.8485

          k =-0.3333 0.5556-0.3333 (   117 PWs)   bands (ev):

    -6.4284  -4.6053  -4.2746  -3.6448  -2.3716  14.7760  25.8909  39.9325
    40.4771  48.8128  56.2465  58.9294  59.0566  61.2106

          k = 0.5556-0.3333 0.5556 (   118 PWs)   bands (ev):

    -7.3870  -5.2311  -4.2888  -3.0585  -2.8613  16.0202  24.0105  38.7577
    41.0661  48.7279  55.7335  58.3509  59.4966  64.4312

          k = 0.4444-0.2222 0.4444 (   124 PWs)   bands (ev):

    -7.8562  -7.3387  -5.1525  -5.0925  -3.5833  13.8454  27.4371  38.5175
    42.5881  49.5533  54.6930  57.2725  60.2507  62.6991

          k = 0.3333-0.1111 0.3333 (   128 PWs)   bands (ev):

    -8.2601  -7.0863  -6.5257  -6.2650  -4.8096  11.3522  32.9642  39.1980
    44.5379  51.0033  53.0251  56.9919  59.4790  60.3274

          k = 0.2222-0.0000 0.2222 (   123 PWs)   bands (ev):

    -6.9253  -6.7153  -5.2567  -4.6597  -4.3583   9.6337  38.6762  41.3459
    45.7011  50.5266  54.3527  57.3759  58.5533  60.1745

          k = 0.0000 0.4444 0.0000 (   125 PWs)   bands (ev):

    -7.5303  -6.0961  -5.8080  -5.8080  -4.9935  10.8838  37.5929  39.9949
    39.9949  48.5489  49.6912  62.2087  62.2087  64.7058

          k =-0.1111 0.5556-0.1111 (   126 PWs)   bands (ev):

    -8.2868  -6.5556  -5.9974  -5.6567  -4.7976  12.5869  32.9196  38.2549
    38.6050  48.1078  50.3011  62.0358  62.5779  64.3172

          k =-0.2222 0.6667-0.2222 (   122 PWs)   bands (ev):

    -8.2016  -7.0310  -6.1197  -3.1436  -2.8165  14.9998  28.1015  35.8821
    38.1883  47.6192  54.5786  60.3920  61.5106  64.0524

          k = 0.6667-0.2222 0.6667 (   121 PWs)   bands (ev):

    -8.3837  -6.5140  -5.1700  -3.6481  -2.8016  16.8305  25.4551  34.0452
    38.8907  47.6192  58.9577  59.6878  60.4039  64.5729

          k = 0.5556-0.1111 0.5556 (   121 PWs)   bands (ev):

    -8.2807  -6.4681  -4.8686  -4.1435  -2.3792  15.7061  27.2928  33.1429
    40.6299  48.4831  57.5944  59.9401  61.1569  62.9392

          k = 0.4444 0.0000 0.4444 (   121 PWs)   bands (ev):

    -7.4338  -6.3142  -4.5259  -4.4680  -2.6748  13.3244  30.9532  34.2940
    42.9629  49.9372  54.9717  59.3205  59.7108  60.3696

          k = 0.0000 0.6667 0.0000 (   129 PWs)   bands (ev):

    -9.7966  -6.9165  -6.7988  -6.7988  -4.7997  13.9458  31.4874  36.8924
    36.8924  46.7126  47.5055  66.0117  66.0117  66.9528

          k =-0.1111 0.7778-0.1111 (   120 PWs)   bands (ev):

    -9.0263  -6.3373  -4.3694  -3.4204  -2.3190  16.0303  28.3844  34.4441
    36.2400  46.6754  49.4951  64.6012  65.3924  69.3932

          k = 0.7778-0.1111 0.7778 (   118 PWs)   bands (ev):

    -7.6332  -5.2472  -4.8416  -2.7759  -2.4997  17.8596  26.7844  31.1749
    36.7469  47.0802  54.3215  63.1109  63.6712  67.3633

          k = 0.6667-0.0000 0.6667 (   122 PWs)   bands (ev):

    -8.3605  -6.0773  -4.7610  -4.4866  -3.8092  17.4948  28.5574  28.6609
    38.3419  47.3749  59.1662  61.5133  61.8824  64.0395

          k = 0.0000 0.8889 0.0000 (   116 PWs)   bands (ev):

    -9.7219  -5.0275  -2.6438  -2.2869  -2.2869  17.6357  26.0514  35.2056
    35.2056  46.1302  47.2239  65.6588  70.1556  70.1556

          k = 0.8889 0.0000 0.8889 (   116 PWs)   bands (ev):

    -9.5974  -4.9762  -2.6233  -2.3300  -2.2577  18.5751  25.3437  33.1951
    35.3898  46.5652  49.1292  64.7731  68.7818  68.9047

          k =-0.2222 0.4444 0.0000 (   125 PWs)   bands (ev):

    -8.3247  -7.4949  -5.5399  -4.8320  -3.6937  11.5200  34.3777  37.7386
    42.4724  50.8586  51.0643  58.3986  61.6639  62.1624

          k =-0.3333 0.5556-0.1111 (   124 PWs)   bands (ev):

    -8.2449  -7.7976  -5.2983  -4.9030  -2.9443  13.7610  29.6092  35.8678
    40.5663  49.7957  54.3325  57.7014  61.3229  63.2349

          k = 0.5556-0.3333 0.7778 (   119 PWs)   bands (ev):

    -7.6257  -5.5201  -4.7169  -3.2718  -3.0260  16.1522  25.6336  35.5558
    39.0832  49.2706  56.0589  60.3787  61.6825  62.8203

          k =-0.2222 0.6667 0.0000 (   122 PWs)   bands (ev):

    -8.3362  -6.7949  -4.6284  -4.5768  -2.8785  14.5032  30.3922  34.8996
    37.3601  49.0287  50.4381  60.4776  65.9554  66.5502

          k = 0.6667-0.2222 0.8889 (   117 PWs)   bands (ev):

    -7.3148  -5.1395  -4.3448  -2.6655  -2.4996  16.7785  27.5991  32.7313
    36.1457  49.4274  54.6476  58.9847  64.5301  66.6354

          k = 0.5556-0.1111 0.7778 (   116 PWs)   bands (ev):

    -6.4843  -4.5202  -4.2142  -3.2969  -2.4164  17.5934  26.9674  31.1235
    36.6968  50.0112  57.7051  59.5664  61.3710  65.0535

          k = 0.4444 0.0000 0.6667 (   116 PWs)   bands (ev):

    -5.9061  -4.6934  -4.1655  -3.3598  -2.3161  15.9644  28.7888  31.6376
    38.5141  50.6339  56.0458  58.1034  63.6265  63.6778

          k = 0.7778-0.1111 1.0000 (   115 PWs)   bands (ev):

    -8.3137  -4.7145  -3.1546  -2.1849  -1.6555  17.8586  26.6136  33.2869
    34.4721  48.6595  50.0628  62.8779  66.1700  69.8142

          k = 0.6667-0.0000 0.8889 (   116 PWs)   bands (ev):

    -7.9267  -4.2301  -3.8745  -3.4175  -1.6377  18.4763  27.0834  30.4507
    34.8561  49.4269  54.4098  61.0086  62.5292  67.7414

          k = 0.5556-0.1111 1.0000 (   114 PWs)   bands (ev):

    -5.4987  -5.3448  -3.5480  -3.1096  -1.4970  18.2594  28.1758  30.0016
    33.9465  53.0533  55.3766  57.8955  60.3900  69.3203

     the Fermi energy is    49.3213 ev

!    total energy              =   -1059.93802482 Ry
     Harris-Foulkes estimate   =   -1059.93802482 Ry
     estimated scf accuracy    <          1.6E-09 Ry

     total all-electron energy =    -48505.548336 Ry

     The total energy is the sum of the following terms:

     one-electron contribution =      14.17489264 Ry
     hartree contribution      =      21.98681998 Ry
     xc contribution           =     -62.46717673 Ry
     ewald contribution        =    -242.33311997 Ry
     one-center paw contrib.   =    -791.29851094 Ry
     smearing contrib. (-TS)   =      -0.00092980 Ry

     convergence has been achieved in   7 iterations

     Forces acting on atoms (cartesian axes, Ry/au):

     atom    1 type  1   force =     0.00000000    0.00000000    0.00000000

     Total force =     0.000000     Total SCF correction =     0.000000


     Computing stress (Cartesian axis) and pressure

          total   stress  (Ry/bohr**3)                   (kbar)     P=********
  -0.20756922  -0.00000000   0.00000000     -30534.48     -0.00      0.00
   0.00000000  -0.20756922  -0.00000000          0.00 -30534.48     -0.00
   0.00000000  -0.00000000  -0.20756922          0.00     -0.00 -30534.48


     Writing output data file Fr.save/

     init_run     :      0.28s CPU      0.31s WALL (       1 calls)
     electrons    :      1.82s CPU      2.07s WALL (       1 calls)
     forces       :      0.02s CPU      0.02s WALL (       1 calls)
     stress       :      0.04s CPU      0.04s WALL (       1 calls)

     Called by init_run:
     wfcinit      :      0.04s CPU      0.05s WALL (       1 calls)
     potinit      :      0.11s CPU      0.13s WALL (       1 calls)
     hinit0       :      0.11s CPU      0.11s WALL (       1 calls)

     Called by electrons:
     c_bands      :      0.96s CPU      1.08s WALL (       7 calls)
     sum_band     :      0.11s CPU      0.12s WALL (       7 calls)
     v_of_rho     :      0.01s CPU      0.01s WALL (       8 calls)
     newd         :      0.01s CPU      0.01s WALL (       8 calls)
     PAW_pot      :      0.83s CPU      0.95s WALL (       8 calls)
     mix_rho      :      0.00s CPU      0.00s WALL (       7 calls)

     Called by c_bands:
     init_us_2    :      0.02s CPU      0.02s WALL (     595 calls)
     cegterg      :      0.94s CPU      1.06s WALL (     245 calls)

     Called by sum_band:
     sum_band:bec :      0.00s CPU      0.00s WALL (     245 calls)
     addusdens    :      0.01s CPU      0.01s WALL (       7 calls)

     Called by *egterg:
     h_psi        :      0.48s CPU      0.55s WALL (     892 calls)
     s_psi        :      0.01s CPU      0.02s WALL (     892 calls)
     g_psi        :      0.00s CPU      0.00s WALL (     612 calls)
     cdiaghg      :      0.36s CPU      0.39s WALL (     857 calls)

     Called by h_psi:
     h_psi:pot    :      0.48s CPU      0.55s WALL (     892 calls)
     h_psi:calbec :      0.03s CPU      0.03s WALL (     892 calls)
     vloc_psi     :      0.43s CPU      0.50s WALL (     892 calls)
     add_vuspsi   :      0.01s CPU      0.02s WALL (     892 calls)

     General routines
     calbec       :      0.04s CPU      0.04s WALL (    1312 calls)
     fft          :      0.00s CPU      0.00s WALL (     114 calls)
     ffts         :      0.00s CPU      0.00s WALL (       7 calls)
     fftw         :      0.46s CPU      0.53s WALL (   21640 calls)

     Parallel routines
     fft_scatt_xy :      0.05s CPU      0.06s WALL (   21761 calls)
     fft_scatt_yz :      0.18s CPU      0.20s WALL (   21761 calls)

     PWSCF        :     3.15s CPU         3.50s WALL


   This run was terminated on:  22:24:37   7Apr2024            

=------------------------------------------------------------------------------=
   JOB DONE.
=------------------------------------------------------------------------------=
