
     Program PWSCF v.6.3MaX starts on  7Apr2024 at 22:36:45 

     This program is part of the open-source Quantum ESPRESSO suite
     for quantum simulation of materials; please cite
         "P. Giannozzi et al., J. Phys.:Condens. Matter 21 395502 (2009);
         "P. Giannozzi et al., J. Phys.:Condens. Matter 29 465901 (2017);
          URL http://www.quantum-espresso.org", 
     in publications or presentations arising from this work. More details at
     http://www.quantum-espresso.org/quote

     Parallel version (MPI), running on     5 processors

     MPI processes distributed on     1 nodes
     R & G space division:  proc/nbgrp/npool/nimage =       5
     Waiting for input...
     Reading input from standard input

     Current dimensions of program PWSCF are:
     Max number of different atomic species (ntypx) = 10
     Max number of k-points (npk) =  40000
     Max angular momentum in pseudopotentials (lmaxx) =  3
               file Fr.pz-spdn-kjpaw_psl.1.0.0.UPF: wavefunction(s)  6P renormalized

     Subspace diagonalization in iterative solution of the eigenvalue problem:
     a serial algorithm will be used


     Parallelization info
     --------------------
     sticks:   dense  smooth     PW     G-vecs:    dense   smooth      PW
     Min          62      62     19                  765      765     128
     Max          63      63     20                  770      770     130
     Sum         313     313     97                 3839     3839     645



     bravais-lattice index     =            2
     lattice parameter (alat)  =       6.8300  a.u.
     unit-cell volume          =      79.6530 (a.u.)^3
     number of atoms/cell      =            1
     number of atomic types    =            1
     number of electrons       =        19.00
     number of Kohn-Sham states=           14
     kinetic-energy cutoff     =      50.0000  Ry
     charge density cutoff     =     200.0000  Ry
     convergence threshold     =      1.0E-08
     mixing beta               =       0.7000
     number of iterations used =            8  plain     mixing
     Exchange-correlation      = SLA PZ NOGX NOGC ( 1  1  0  0 0 0)

     celldm(1)=   6.830000  celldm(2)=   0.000000  celldm(3)=   0.000000
     celldm(4)=   0.000000  celldm(5)=   0.000000  celldm(6)=   0.000000

     crystal axes: (cart. coord. in units of alat)
               a(1) = (  -0.500000   0.000000   0.500000 )  
               a(2) = (   0.000000   0.500000   0.500000 )  
               a(3) = (  -0.500000   0.500000   0.000000 )  

     reciprocal axes: (cart. coord. in units 2 pi/alat)
               b(1) = ( -1.000000 -1.000000  1.000000 )  
               b(2) = (  1.000000  1.000000  1.000000 )  
               b(3) = ( -1.000000  1.000000 -1.000000 )  


     PseudoPot. # 1 for Fr read from file:
     /home/lorenzo/pseudos/Fr/Fr.pz-spdn-kjpaw_psl.1.0.0.UPF
     MD5 check sum: 60dafd115682613df3cc92ec23a62a32
     Pseudo is Projector augmented-wave + core cor, Zval = 19.0
     Generated using "atomic" code by A. Dal Corso v.6.2.2
     Shape of augmentation charge: PSQ
     Using radial grid of 1287 points,  6 beta functions with: 
                l(1) =   0
                l(2) =   0
                l(3) =   1
                l(4) =   1
                l(5) =   2
                l(6) =   2
     Q(r) pseudized with 0 coefficients 


     atomic species   valence    mass     pseudopotential
        Fr            19.00   223.00000     Fr( 1.00)

     48 Sym. Ops., with inversion, found



   Cartesian axes

     site n.     atom                  positions (alat units)
         1           Fr  tau(   1) = (   0.0000000   0.0000000   0.0000000  )

     number of k points=     4  gaussian smearing, width (Ry)=  0.0100
                       cart. coord. in units 2pi/alat
        k(    1) = (   0.0000000   0.0000000   0.0000000), wk =   0.0740741
        k(    2) = (  -0.3333333   0.3333333  -0.3333333), wk =   0.5925926
        k(    3) = (   0.0000000   0.6666667   0.0000000), wk =   0.4444444
        k(    4) = (   0.6666667  -0.0000000   0.6666667), wk =   0.8888889

     Dense  grid:     3839 G-vectors     FFT dimensions: (  24,  24,  24)

     Estimated max dynamical RAM per process >       4.24 MB

     Estimated total dynamical RAM >      21.21 MB

     Check: negative/imaginary core charge=   -0.000007    0.000000

     Initial potential from superposition of free atoms

     starting charge   18.97647, renormalised to   19.00000
     Starting wfcs are   10 randomized atomic wfcs +    4 random wfcs
     Checking if some PAW data can be deallocated... 

     total cpu time spent up to now is        1.1 secs

     Self-consistent Calculation

     iteration #  1     ecut=    50.00 Ry     beta= 0.70
     Davidson diagonalization with overlap
     ethr =  1.00E-02,  avg # of iterations =  4.2

     Threshold (ethr) on eigenvalues was too large:
     Diagonalizing with lowered threshold

     Davidson diagonalization with overlap
     ethr =  6.52E-05,  avg # of iterations =  1.8

     total cpu time spent up to now is        1.2 secs

     total energy              =   -1045.17458753 Ry
     Harris-Foulkes estimate   =   -1045.18329572 Ry
     estimated scf accuracy    <       0.01224204 Ry

     iteration #  2     ecut=    50.00 Ry     beta= 0.70
     Davidson diagonalization with overlap
     ethr =  6.44E-05,  avg # of iterations =  2.0

     total cpu time spent up to now is        1.3 secs

     total energy              =   -1045.17641206 Ry
     Harris-Foulkes estimate   =   -1045.17661138 Ry
     estimated scf accuracy    <       0.00041941 Ry

     iteration #  3     ecut=    50.00 Ry     beta= 0.70
     Davidson diagonalization with overlap
     ethr =  2.21E-06,  avg # of iterations =  2.5

     total cpu time spent up to now is        1.4 secs

     total energy              =   -1045.17644706 Ry
     Harris-Foulkes estimate   =   -1045.17645215 Ry
     estimated scf accuracy    <       0.00001758 Ry

     iteration #  4     ecut=    50.00 Ry     beta= 0.70
     Davidson diagonalization with overlap
     ethr =  9.25E-08,  avg # of iterations =  2.2

     total cpu time spent up to now is        1.5 secs

     total energy              =   -1045.17645148 Ry
     Harris-Foulkes estimate   =   -1045.17645122 Ry
     estimated scf accuracy    <       0.00000030 Ry

     iteration #  5     ecut=    50.00 Ry     beta= 0.70
     Davidson diagonalization with overlap
     ethr =  1.60E-09,  avg # of iterations =  1.8

     total cpu time spent up to now is        1.6 secs

     total energy              =   -1045.17645151 Ry
     Harris-Foulkes estimate   =   -1045.17645152 Ry
     estimated scf accuracy    <       0.00000003 Ry

     iteration #  6     ecut=    50.00 Ry     beta= 0.70
     Davidson diagonalization with overlap
     ethr =  1.32E-10,  avg # of iterations =  2.0

     total cpu time spent up to now is        1.7 secs

     End of self-consistent calculation

          k = 0.0000 0.0000 0.0000 (   531 PWs)   bands (ev):

    -9.3422  -9.3422  -9.3422  -8.9991  -8.9991   9.1215  46.8992  46.8992
    46.8992  48.0974  53.7159  53.7159  53.7159  57.4862

          k =-0.3333 0.3333-0.3333 (   492 PWs)   bands (ev):

    -9.3287  -9.2619  -9.2619  -8.8218  -8.8218  13.5328  28.8826  43.5292
    43.5292  47.9556  51.9262  52.6042  52.6042  61.2313

          k = 0.0000 0.6667 0.0000 (   472 PWs)   bands (ev):

    -9.5892  -9.2868  -8.8230  -8.8230  -8.7849  15.0295  32.6159  37.0613
    37.0613  43.6773  43.7002  64.3865  64.8806  64.8806

          k = 0.6667-0.0000 0.6667 (   466 PWs)   bands (ev):

    -9.4132  -9.0464  -8.9742  -8.9065  -8.8062  19.4129  28.0306  28.0695
    38.5628  44.3334  57.1968  58.8043  59.7772  62.4030

     the Fermi energy is    44.3028 ev

!    total energy              =   -1045.17645151 Ry
     Harris-Foulkes estimate   =   -1045.17645151 Ry
     estimated scf accuracy    <          7.5E-10 Ry

     total all-electron energy =    -48490.629424 Ry

     The total energy is the sum of the following terms:

     one-electron contribution =       1.47655057 Ry
     hartree contribution      =      28.32663769 Ry
     xc contribution           =     -63.91845242 Ry
     ewald contribution        =    -242.33311993 Ry
     one-center paw contrib.   =    -768.72568402 Ry
     smearing contrib. (-TS)   =      -0.00238339 Ry

     convergence has been achieved in   6 iterations

     Forces acting on atoms (cartesian axes, Ry/au):

     atom    1 type  1   force =     0.00000000    0.00000000    0.00000000

     Total force =     0.000000     Total SCF correction =     0.000000


     Computing stress (Cartesian axis) and pressure

          total   stress  (Ry/bohr**3)                   (kbar)     P= 7148.34
   0.04859346  -0.00000000   0.00000000       7148.34     -0.00      0.00
  -0.00000000   0.04859346   0.00000000         -0.00   7148.34      0.00
   0.00000000   0.00000000   0.04859346          0.00      0.00   7148.34


     Writing output data file Fr.save/

     init_run     :      0.20s CPU      0.20s WALL (       1 calls)
     electrons    :      0.56s CPU      0.58s WALL (       1 calls)
     forces       :      0.01s CPU      0.01s WALL (       1 calls)
     stress       :      0.04s CPU      0.04s WALL (       1 calls)

     Called by init_run:
     wfcinit      :      0.01s CPU      0.01s WALL (       1 calls)
     potinit      :      0.05s CPU      0.05s WALL (       1 calls)
     hinit0       :      0.13s CPU      0.14s WALL (       1 calls)

     Called by electrons:
     c_bands      :      0.20s CPU      0.22s WALL (       7 calls)
     sum_band     :      0.06s CPU      0.07s WALL (       7 calls)
     v_of_rho     :      0.00s CPU      0.00s WALL (       7 calls)
     newd         :      0.03s CPU      0.03s WALL (       7 calls)
     PAW_pot      :      0.30s CPU      0.31s WALL (       7 calls)
     mix_rho      :      0.00s CPU      0.00s WALL (       7 calls)

     Called by c_bands:
     init_us_2    :      0.01s CPU      0.01s WALL (      68 calls)
     cegterg      :      0.19s CPU      0.21s WALL (      28 calls)

     Called by sum_band:
     sum_band:bec :      0.00s CPU      0.00s WALL (      28 calls)
     addusdens    :      0.02s CPU      0.02s WALL (       7 calls)

     Called by *egterg:
     h_psi        :      0.14s CPU      0.15s WALL (      98 calls)
     s_psi        :      0.00s CPU      0.00s WALL (      98 calls)
     g_psi        :      0.00s CPU      0.00s WALL (      66 calls)
     cdiaghg      :      0.03s CPU      0.04s WALL (      90 calls)

     Called by h_psi:
     h_psi:pot    :      0.14s CPU      0.15s WALL (      98 calls)
     h_psi:calbec :      0.01s CPU      0.01s WALL (      98 calls)
     vloc_psi     :      0.12s CPU      0.14s WALL (      98 calls)
     add_vuspsi   :      0.00s CPU      0.00s WALL (      98 calls)

     General routines
     calbec       :      0.01s CPU      0.01s WALL (     146 calls)
     fft          :      0.00s CPU      0.00s WALL (      38 calls)
     ffts         :      0.00s CPU      0.00s WALL (       7 calls)
     fftw         :      0.14s CPU      0.15s WALL (    2448 calls)

     Parallel routines
     fft_scatt_xy :      0.01s CPU      0.01s WALL (    2493 calls)
     fft_scatt_yz :      0.04s CPU      0.04s WALL (    2493 calls)

     PWSCF        :     1.70s CPU         1.77s WALL


   This run was terminated on:  22:36:47   7Apr2024            

=------------------------------------------------------------------------------=
   JOB DONE.
=------------------------------------------------------------------------------=
