
     Program PWSCF v.6.3MaX starts on  7Apr2024 at 22:47:16 

     This program is part of the open-source Quantum ESPRESSO suite
     for quantum simulation of materials; please cite
         "P. Giannozzi et al., J. Phys.:Condens. Matter 21 395502 (2009);
         "P. Giannozzi et al., J. Phys.:Condens. Matter 29 465901 (2017);
          URL http://www.quantum-espresso.org", 
     in publications or presentations arising from this work. More details at
     http://www.quantum-espresso.org/quote

     Parallel version (MPI), running on     5 processors

     MPI processes distributed on     1 nodes
     R & G space division:  proc/nbgrp/npool/nimage =       5
     Waiting for input...
     Reading input from standard input

     Current dimensions of program PWSCF are:
     Max number of different atomic species (ntypx) = 10
     Max number of k-points (npk) =  40000
     Max angular momentum in pseudopotentials (lmaxx) =  3
               file Fr.pbe-spdn-kjpaw_psl.1.0.0.UPF: wavefunction(s)  6P renormalized

     Subspace diagonalization in iterative solution of the eigenvalue problem:
     a serial algorithm will be used


     Parallelization info
     --------------------
     sticks:   dense  smooth     PW     G-vecs:    dense   smooth      PW
     Min          87      87     27                 1245     1245     213
     Max          88      88     28                 1247     1247     214
     Sum         439     439    139                 6231     6231    1067



     bravais-lattice index     =            2
     lattice parameter (alat)  =       6.8300  a.u.
     unit-cell volume          =      79.6530 (a.u.)^3
     number of atoms/cell      =            1
     number of atomic types    =            1
     number of electrons       =        19.00
     number of Kohn-Sham states=           14
     kinetic-energy cutoff     =      70.0000  Ry
     charge density cutoff     =     280.0000  Ry
     convergence threshold     =      1.0E-08
     mixing beta               =       0.7000
     number of iterations used =            8  plain     mixing
     Exchange-correlation      = SLA PW PBX PBC ( 1  4  3  4 0 0)

     celldm(1)=   6.830000  celldm(2)=   0.000000  celldm(3)=   0.000000
     celldm(4)=   0.000000  celldm(5)=   0.000000  celldm(6)=   0.000000

     crystal axes: (cart. coord. in units of alat)
               a(1) = (  -0.500000   0.000000   0.500000 )  
               a(2) = (   0.000000   0.500000   0.500000 )  
               a(3) = (  -0.500000   0.500000   0.000000 )  

     reciprocal axes: (cart. coord. in units 2 pi/alat)
               b(1) = ( -1.000000 -1.000000  1.000000 )  
               b(2) = (  1.000000  1.000000  1.000000 )  
               b(3) = ( -1.000000  1.000000 -1.000000 )  


     PseudoPot. # 1 for Fr read from file:
     /home/lorenzo/pseudos/Fr/Fr.pbe-spdn-kjpaw_psl.1.0.0.UPF
     MD5 check sum: 362a188b966a64328b94f1ef5f32e8c4
     Pseudo is Projector augmented-wave + core cor, Zval = 19.0
     Generated using "atomic" code by A. Dal Corso v.6.2.2
     Shape of augmentation charge: PSQ
     Using radial grid of 1287 points,  6 beta functions with: 
                l(1) =   0
                l(2) =   0
                l(3) =   1
                l(4) =   1
                l(5) =   2
                l(6) =   2
     Q(r) pseudized with 0 coefficients 


     atomic species   valence    mass     pseudopotential
        Fr            19.00   223.00000     Fr( 1.00)

     48 Sym. Ops., with inversion, found



   Cartesian axes

     site n.     atom                  positions (alat units)
         1           Fr  tau(   1) = (   0.0000000   0.0000000   0.0000000  )

     number of k points=     3  gaussian smearing, width (Ry)=  0.0100
                       cart. coord. in units 2pi/alat
        k(    1) = (   0.0000000   0.0000000   0.0000000), wk =   0.2500000
        k(    2) = (   0.5000000  -0.5000000   0.5000000), wk =   1.0000000
        k(    3) = (   0.0000000  -1.0000000   0.0000000), wk =   0.7500000

     Dense  grid:     6231 G-vectors     FFT dimensions: (  25,  25,  25)

     Estimated max dynamical RAM per process >       6.19 MB

     Estimated total dynamical RAM >      30.94 MB

     Check: negative/imaginary core charge=   -0.000002    0.000000

     Initial potential from superposition of free atoms

     starting charge   18.97009, renormalised to   19.00000
     Starting wfcs are   10 randomized atomic wfcs +    4 random wfcs
     Checking if some PAW data can be deallocated... 

     total cpu time spent up to now is        1.3 secs

     Self-consistent Calculation

     iteration #  1     ecut=    70.00 Ry     beta= 0.70
     Davidson diagonalization with overlap
     ethr =  1.00E-02,  avg # of iterations =  5.0

     Threshold (ethr) on eigenvalues was too large:
     Diagonalizing with lowered threshold

     Davidson diagonalization with overlap
     ethr =  5.00E-05,  avg # of iterations =  2.0

     total cpu time spent up to now is        1.5 secs

     total energy              =   -1069.59011314 Ry
     Harris-Foulkes estimate   =   -1069.59572499 Ry
     estimated scf accuracy    <       0.00955009 Ry

     iteration #  2     ecut=    70.00 Ry     beta= 0.70
     Davidson diagonalization with overlap
     ethr =  5.03E-05,  avg # of iterations =  2.3

     total cpu time spent up to now is        1.7 secs

     total energy              =   -1069.59158076 Ry
     Harris-Foulkes estimate   =   -1069.59164898 Ry
     estimated scf accuracy    <       0.00042544 Ry

     iteration #  3     ecut=    70.00 Ry     beta= 0.70
     Davidson diagonalization with overlap
     ethr =  2.24E-06,  avg # of iterations =  2.3

     total cpu time spent up to now is        1.8 secs

     total energy              =   -1069.59161944 Ry
     Harris-Foulkes estimate   =   -1069.59161375 Ry
     estimated scf accuracy    <       0.00002080 Ry

     iteration #  4     ecut=    70.00 Ry     beta= 0.70
     Davidson diagonalization with overlap
     ethr =  1.09E-07,  avg # of iterations =  2.7

     total cpu time spent up to now is        2.0 secs

     total energy              =   -1069.59162318 Ry
     Harris-Foulkes estimate   =   -1069.59162288 Ry
     estimated scf accuracy    <       0.00000035 Ry

     iteration #  5     ecut=    70.00 Ry     beta= 0.70
     Davidson diagonalization with overlap
     ethr =  1.85E-09,  avg # of iterations =  2.0

     total cpu time spent up to now is        2.2 secs

     End of self-consistent calculation

          k = 0.0000 0.0000 0.0000 (   749 PWs)   bands (ev):

    -9.0209  -9.0209  -9.0209  -8.6769  -8.6769   9.5144  47.3178  47.3178
    47.3178  48.3115  53.8960  53.8960  53.8960  57.7614

          k = 0.5000-0.5000 0.5000 (   778 PWs)   bands (ev):

    -9.0097  -8.9711  -8.9711  -8.3852  -8.3852  17.6320  23.2766  43.0636
    43.0636  48.0234  51.2865  51.7908  51.7908  65.5110

          k = 0.0000-1.0000 0.0000 (   790 PWs)   bands (ev):

    -9.3576  -9.0804  -8.3940  -8.3214  -8.3214  21.1829  24.9423  35.5848
    35.5848  42.6824  43.1210  64.3975  70.3692  71.3482

     the Fermi energy is    47.2764 ev

!    total energy              =   -1069.59162324 Ry
     Harris-Foulkes estimate   =   -1069.59162323 Ry
     estimated scf accuracy    <          6.8E-09 Ry

     total all-electron energy =    -48515.201934 Ry

     The total energy is the sum of the following terms:

     one-electron contribution =       1.70742331 Ry
     hartree contribution      =      28.40363742 Ry
     xc contribution           =     -64.62565363 Ry
     ewald contribution        =    -242.33311988 Ry
     one-center paw contrib.   =    -792.74198218 Ry
     smearing contrib. (-TS)   =      -0.00192828 Ry

     convergence has been achieved in   5 iterations

     Forces acting on atoms (cartesian axes, Ry/au):

     atom    1 type  1   force =     0.00000000    0.00000000    0.00000000

     Total force =     0.000000     Total SCF correction =     0.000000


     Computing stress (Cartesian axis) and pressure

          total   stress  (Ry/bohr**3)                   (kbar)     P= 7899.37
   0.05369881  -0.00000000   0.00000000       7899.37     -0.00      0.00
  -0.00000000   0.05369881   0.00000000         -0.00   7899.37      0.00
   0.00000000   0.00000000   0.05369881          0.00      0.00   7899.37


     Writing output data file Fr.save/

     init_run     :      0.32s CPU      0.35s WALL (       1 calls)
     electrons    :      0.80s CPU      0.90s WALL (       1 calls)
     forces       :      0.03s CPU      0.03s WALL (       1 calls)
     stress       :      0.07s CPU      0.07s WALL (       1 calls)

     Called by init_run:
     wfcinit      :      0.01s CPU      0.01s WALL (       1 calls)
     potinit      :      0.12s CPU      0.14s WALL (       1 calls)
     hinit0       :      0.17s CPU      0.17s WALL (       1 calls)

     Called by electrons:
     c_bands      :      0.19s CPU      0.20s WALL (       6 calls)
     sum_band     :      0.06s CPU      0.07s WALL (       6 calls)
     v_of_rho     :      0.02s CPU      0.02s WALL (       6 calls)
     newd         :      0.04s CPU      0.04s WALL (       6 calls)
     PAW_pot      :      0.61s CPU      0.71s WALL (       6 calls)
     mix_rho      :      0.00s CPU      0.00s WALL (       6 calls)

     Called by c_bands:
     init_us_2    :      0.01s CPU      0.01s WALL (      45 calls)
     cegterg      :      0.18s CPU      0.19s WALL (      18 calls)

     Called by sum_band:
     sum_band:bec :      0.00s CPU      0.00s WALL (      18 calls)
     addusdens    :      0.03s CPU      0.04s WALL (       6 calls)

     Called by *egterg:
     h_psi        :      0.13s CPU      0.14s WALL (      70 calls)
     s_psi        :      0.00s CPU      0.00s WALL (      70 calls)
     g_psi        :      0.00s CPU      0.00s WALL (      49 calls)
     cdiaghg      :      0.03s CPU      0.03s WALL (      64 calls)

     Called by h_psi:
     h_psi:pot    :      0.13s CPU      0.14s WALL (      70 calls)
     h_psi:calbec :      0.01s CPU      0.01s WALL (      70 calls)
     vloc_psi     :      0.11s CPU      0.12s WALL (      70 calls)
     add_vuspsi   :      0.00s CPU      0.00s WALL (      70 calls)

     General routines
     calbec       :      0.01s CPU      0.01s WALL (     103 calls)
     fft          :      0.01s CPU      0.02s WALL (      93 calls)
     ffts         :      0.00s CPU      0.00s WALL (       6 calls)
     fftw         :      0.12s CPU      0.14s WALL (    1602 calls)

     Parallel routines
     fft_scatt_xy :      0.01s CPU      0.01s WALL (    1701 calls)
     fft_scatt_yz :      0.04s CPU      0.04s WALL (    1701 calls)

     PWSCF        :     2.16s CPU         2.33s WALL


   This run was terminated on:  22:47:18   7Apr2024            

=------------------------------------------------------------------------------=
   JOB DONE.
=------------------------------------------------------------------------------=
