
     Program PWSCF v.6.3MaX starts on  7Apr2024 at 22:22:52 

     This program is part of the open-source Quantum ESPRESSO suite
     for quantum simulation of materials; please cite
         "P. Giannozzi et al., J. Phys.:Condens. Matter 21 395502 (2009);
         "P. Giannozzi et al., J. Phys.:Condens. Matter 29 465901 (2017);
          URL http://www.quantum-espresso.org", 
     in publications or presentations arising from this work. More details at
     http://www.quantum-espresso.org/quote

     Parallel version (MPI), running on     5 processors

     MPI processes distributed on     1 nodes
     R & G space division:  proc/nbgrp/npool/nimage =       5
     Waiting for input...
     Reading input from standard input

     Current dimensions of program PWSCF are:
     Max number of different atomic species (ntypx) = 10
     Max number of k-points (npk) =  40000
     Max angular momentum in pseudopotentials (lmaxx) =  3

     Subspace diagonalization in iterative solution of the eigenvalue problem:
     a serial algorithm will be used


     Parallelization info
     --------------------
     sticks:   dense  smooth     PW     G-vecs:    dense   smooth      PW
     Min          24      24     11                  187      187      51
     Max          25      25     11                  191      191      52
     Sum         121     121     55                  941      941     259



     bravais-lattice index     =            2
     lattice parameter (alat)  =       6.8300  a.u.
     unit-cell volume          =      79.6530 (a.u.)^3
     number of atoms/cell      =            1
     number of atomic types    =            1
     number of electrons       =        19.00
     number of Kohn-Sham states=           14
     kinetic-energy cutoff     =      20.0000  Ry
     charge density cutoff     =      80.0000  Ry
     convergence threshold     =      1.0E-08
     mixing beta               =       0.7000
     number of iterations used =            8  plain     mixing
     Exchange-correlation      = PBE ( 1  4  3  4 0 0)

     celldm(1)=   6.830000  celldm(2)=   0.000000  celldm(3)=   0.000000
     celldm(4)=   0.000000  celldm(5)=   0.000000  celldm(6)=   0.000000

     crystal axes: (cart. coord. in units of alat)
               a(1) = (  -0.500000   0.000000   0.500000 )  
               a(2) = (   0.000000   0.500000   0.500000 )  
               a(3) = (  -0.500000   0.500000   0.000000 )  

     reciprocal axes: (cart. coord. in units 2 pi/alat)
               b(1) = ( -1.000000 -1.000000  1.000000 )  
               b(2) = (  1.000000  1.000000  1.000000 )  
               b(3) = ( -1.000000  1.000000 -1.000000 )  


     PseudoPot. # 1 for Fr read from file:
     /home/lorenzo/pseudos/Fr/Fr.pbe-spdn-rrkjus_psl.1.0.0.UPF
     MD5 check sum: 07cabfa18982bd6b5b9d8ae5689d9732
     Pseudo is Ultrasoft + core correction, Zval = 19.0
     Generated using "atomic" code by A. Dal Corso v.6.2.2
     Using radial grid of 1287 points,  6 beta functions with: 
                l(1) =   0
                l(2) =   0
                l(3) =   1
                l(4) =   1
                l(5) =   2
                l(6) =   2
     Q(r) pseudized with 0 coefficients 


     atomic species   valence    mass     pseudopotential
        Fr            19.00   223.00000     Fr( 1.00)

     48 Sym. Ops., with inversion, found



   Cartesian axes

     site n.     atom                  positions (alat units)
         1           Fr  tau(   1) = (   0.0000000   0.0000000   0.0000000  )

     number of k points=    47  gaussian smearing, width (Ry)=  0.0100
                       cart. coord. in units 2pi/alat
        k(    1) = (   0.0000000   0.0000000   0.0000000), wk =   0.0020000
        k(    2) = (  -0.1000000   0.1000000  -0.1000000), wk =   0.0160000
        k(    3) = (  -0.2000000   0.2000000  -0.2000000), wk =   0.0160000
        k(    4) = (  -0.3000000   0.3000000  -0.3000000), wk =   0.0160000
        k(    5) = (  -0.4000000   0.4000000  -0.4000000), wk =   0.0160000
        k(    6) = (   0.5000000  -0.5000000   0.5000000), wk =   0.0080000
        k(    7) = (   0.0000000   0.2000000   0.0000000), wk =   0.0120000
        k(    8) = (  -0.1000000   0.3000000  -0.1000000), wk =   0.0480000
        k(    9) = (  -0.2000000   0.4000000  -0.2000000), wk =   0.0480000
        k(   10) = (  -0.3000000   0.5000000  -0.3000000), wk =   0.0480000
        k(   11) = (   0.6000000  -0.4000000   0.6000000), wk =   0.0480000
        k(   12) = (   0.5000000  -0.3000000   0.5000000), wk =   0.0480000
        k(   13) = (   0.4000000  -0.2000000   0.4000000), wk =   0.0480000
        k(   14) = (   0.3000000  -0.1000000   0.3000000), wk =   0.0480000
        k(   15) = (   0.2000000   0.0000000   0.2000000), wk =   0.0240000
        k(   16) = (   0.0000000   0.4000000   0.0000000), wk =   0.0120000
        k(   17) = (  -0.1000000   0.5000000  -0.1000000), wk =   0.0480000
        k(   18) = (  -0.2000000   0.6000000  -0.2000000), wk =   0.0480000
        k(   19) = (   0.7000000  -0.3000000   0.7000000), wk =   0.0480000
        k(   20) = (   0.6000000  -0.2000000   0.6000000), wk =   0.0480000
        k(   21) = (   0.5000000  -0.1000000   0.5000000), wk =   0.0480000
        k(   22) = (   0.4000000   0.0000000   0.4000000), wk =   0.0240000
        k(   23) = (   0.0000000   0.6000000   0.0000000), wk =   0.0120000
        k(   24) = (  -0.1000000   0.7000000  -0.1000000), wk =   0.0480000
        k(   25) = (   0.8000000  -0.2000000   0.8000000), wk =   0.0480000
        k(   26) = (   0.7000000  -0.1000000   0.7000000), wk =   0.0480000
        k(   27) = (   0.6000000  -0.0000000   0.6000000), wk =   0.0240000
        k(   28) = (   0.0000000   0.8000000   0.0000000), wk =   0.0120000
        k(   29) = (   0.9000000  -0.1000000   0.9000000), wk =   0.0480000
        k(   30) = (   0.8000000   0.0000000   0.8000000), wk =   0.0240000
        k(   31) = (   0.0000000  -1.0000000   0.0000000), wk =   0.0060000
        k(   32) = (  -0.2000000   0.4000000   0.0000000), wk =   0.0480000
        k(   33) = (  -0.3000000   0.5000000  -0.1000000), wk =   0.0960000
        k(   34) = (   0.6000000  -0.4000000   0.8000000), wk =   0.0960000
        k(   35) = (   0.5000000  -0.3000000   0.7000000), wk =   0.0480000
        k(   36) = (  -0.2000000   0.6000000   0.0000000), wk =   0.0480000
        k(   37) = (   0.7000000  -0.3000000   0.9000000), wk =   0.0960000
        k(   38) = (   0.6000000  -0.2000000   0.8000000), wk =   0.0960000
        k(   39) = (   0.5000000  -0.1000000   0.7000000), wk =   0.0960000
        k(   40) = (   0.4000000   0.0000000   0.6000000), wk =   0.0480000
        k(   41) = (   0.8000000  -0.2000000   1.0000000), wk =   0.0480000
        k(   42) = (   0.7000000  -0.1000000   0.9000000), wk =   0.0960000
        k(   43) = (   0.6000000   0.0000000   0.8000000), wk =   0.0480000
        k(   44) = (  -0.2000000  -1.0000000   0.0000000), wk =   0.0240000
        k(   45) = (   0.6000000  -0.2000000   1.0000000), wk =   0.0480000
        k(   46) = (   0.5000000  -0.1000000   0.9000000), wk =   0.0480000
        k(   47) = (  -0.4000000  -1.0000000   0.0000000), wk =   0.0240000

     Dense  grid:      941 G-vectors     FFT dimensions: (  15,  15,  15)

     Estimated max dynamical RAM per process >       1.74 MB

     Estimated total dynamical RAM >       8.68 MB

     Check: negative/imaginary core charge=   -0.000222    0.000000

     Initial potential from superposition of free atoms

     starting charge   18.97009, renormalised to   19.00000
     Starting wfcs are   10 randomized atomic wfcs +    4 random wfcs

     total cpu time spent up to now is        1.0 secs

     Self-consistent Calculation

     iteration #  1     ecut=    20.00 Ry     beta= 0.70
     Davidson diagonalization with overlap
     ethr =  1.00E-02,  avg # of iterations =  4.6

     total cpu time spent up to now is        1.4 secs

     total energy              =    -272.53885674 Ry
     Harris-Foulkes estimate   =    -274.26890939 Ry
     estimated scf accuracy    <       2.31682617 Ry

     iteration #  2     ecut=    20.00 Ry     beta= 0.70
     Davidson diagonalization with overlap
     ethr =  1.00E-02,  avg # of iterations =  2.0

     total cpu time spent up to now is        1.8 secs

     total energy              =    -272.98623105 Ry
     Harris-Foulkes estimate   =    -273.08205811 Ry
     estimated scf accuracy    <       0.18063594 Ry

     iteration #  3     ecut=    20.00 Ry     beta= 0.70
     Davidson diagonalization with overlap
     ethr =  9.51E-04,  avg # of iterations =  2.1

     total cpu time spent up to now is        2.0 secs

     total energy              =    -273.01229189 Ry
     Harris-Foulkes estimate   =    -273.01810317 Ry
     estimated scf accuracy    <       0.01108189 Ry

     iteration #  4     ecut=    20.00 Ry     beta= 0.70
     Davidson diagonalization with overlap
     ethr =  5.83E-05,  avg # of iterations =  2.1

     total cpu time spent up to now is        2.1 secs

     total energy              =    -273.01338000 Ry
     Harris-Foulkes estimate   =    -273.01342462 Ry
     estimated scf accuracy    <       0.00008764 Ry

     iteration #  5     ecut=    20.00 Ry     beta= 0.70
     Davidson diagonalization with overlap
     ethr =  4.61E-07,  avg # of iterations =  2.8

     total cpu time spent up to now is        2.4 secs

     total energy              =    -273.01340104 Ry
     Harris-Foulkes estimate   =    -273.01340070 Ry
     estimated scf accuracy    <       0.00000100 Ry

     iteration #  6     ecut=    20.00 Ry     beta= 0.70
     Davidson diagonalization with overlap
     ethr =  5.28E-09,  avg # of iterations =  1.5

     total cpu time spent up to now is        2.5 secs

     total energy              =    -273.01340108 Ry
     Harris-Foulkes estimate   =    -273.01340110 Ry
     estimated scf accuracy    <       0.00000006 Ry

     iteration #  7     ecut=    20.00 Ry     beta= 0.70
     Davidson diagonalization with overlap
     ethr =  2.99E-10,  avg # of iterations =  2.0

     total cpu time spent up to now is        2.7 secs

     End of self-consistent calculation

          k = 0.0000 0.0000 0.0000 (   113 PWs)   bands (ev):

    -2.9811  -2.9811  -2.9811  -2.8722  -2.8722   8.6476  45.6610  45.6610
    45.6610  49.5308  56.4819  59.4080  59.4080  59.4080

          k =-0.1000 0.1000-0.1000 (   122 PWs)   bands (ev):

    -5.5991  -5.5756  -5.5756  -3.9302  -3.9302   9.0282  42.3842  45.3132
    45.3132  49.5960  56.9167  58.6231  58.8399  58.8399

          k =-0.2000 0.2000-0.2000 (   123 PWs)   bands (ev):

    -6.8255  -5.4511  -5.4511  -3.8431  -3.8431  10.1893  36.4864  44.3577
    44.3577  49.8365  55.1480  58.2010  58.2010  59.8575

          k =-0.3000 0.3000-0.3000 (   120 PWs)   bands (ev):

    -5.5590  -4.4974  -4.4974  -3.3194  -3.3194  12.1038  30.7552  43.1544
    43.1544  49.9518  53.9904  57.9080  57.9080  62.6750

          k =-0.4000 0.4000-0.4000 (   123 PWs)   bands (ev):

    -6.4182  -6.4182  -4.2800  -4.2800  -3.9956  14.5695  25.8941  42.1562
    42.1562  49.5497  54.2110  57.1489  57.1489  64.9537

          k = 0.5000-0.5000 0.5000 (   120 PWs)   bands (ev):

    -6.5204  -6.5204  -3.8548  -2.9677  -2.9677  16.1932  23.4416  41.7807
    41.7807  49.3059  54.3062  57.0318  57.0318  65.6441

          k = 0.0000 0.2000 0.0000 (   125 PWs)   bands (ev):

    -6.5769  -6.1070  -6.1070  -4.6244  -4.5763   9.1528  43.4464  44.0200
    44.0200  49.3340  55.3457  59.5710  59.7272  59.7272

          k =-0.1000 0.3000-0.1000 (   123 PWs)   bands (ev):

    -6.4974  -5.8733  -5.0761  -4.1494  -3.8394  10.0572  38.4614  42.6132
    43.7688  49.9188  53.1875  59.5598  59.9687  60.1562

          k =-0.2000 0.4000-0.2000 (   127 PWs)   bands (ev):

    -7.5140  -6.4846  -5.9752  -5.1717  -4.1178  11.7101  32.6900  41.4360
    42.4940  49.8174  53.6887  58.4721  59.5089  59.6558

          k =-0.3000 0.5000-0.3000 (   123 PWs)   bands (ev):

    -7.5491  -5.8665  -4.5028  -4.0891  -3.1722  14.0125  27.6460  40.8043
    41.0166  49.0690  55.8638  58.0431  58.8094  60.6615

          k = 0.6000-0.4000 0.6000 (   119 PWs)   bands (ev):

    -6.8098  -4.7744  -4.0651  -3.1873  -2.5849  16.1988  24.1820  39.7481
    40.9108  48.7788  55.9298  58.5267  58.8329  63.4506

          k = 0.5000-0.3000 0.5000 (   122 PWs)   bands (ev):

    -7.0098  -6.2787  -4.4472  -3.9462  -2.9360  15.6118  25.0337  39.1278
    41.8021  49.0994  55.3597  57.7020  59.4665  64.3986

          k = 0.4000-0.2000 0.4000 (   122 PWs)   bands (ev):

    -6.6167  -5.3855  -4.9825  -3.9598  -2.8075  13.1981  29.2641  39.3384
    43.3757  50.0958  54.2474  57.2441  60.3240  62.0969

          k = 0.3000-0.1000 0.3000 (   126 PWs)   bands (ev):

    -7.6211  -6.2813  -5.7712  -4.7768  -3.6866  11.0775  34.5501  40.1563
    45.0221  51.0476  53.2466  57.2601  59.5569  60.2795

          k = 0.2000 0.0000 0.2000 (   123 PWs)   bands (ev):

    -6.4226  -6.2097  -4.7808  -4.2416  -3.9043   9.6707  39.7474  42.1286
    45.8343  50.2947  54.9267  57.6246  58.7938  60.3336

          k = 0.0000 0.4000 0.0000 (   129 PWs)   bands (ev):

    -8.0552  -6.9608  -6.3547  -6.3547  -4.6239  10.6895  38.9573  40.7765
    40.7765  48.7762  50.2378  61.6208  61.6208  63.8928

          k =-0.1000 0.5000-0.1000 (   126 PWs)   bands (ev):

    -7.7130  -5.9176  -5.4960  -5.2267  -4.3669  12.0910  34.5137  39.4362
    39.5743  48.7289  50.3689  61.6970  62.1258  63.5174

          k =-0.2000 0.6000-0.2000 (   118 PWs)   bands (ev):

    -6.5230  -5.8609  -4.2982  -2.2209  -1.2664  14.1870  29.7005  37.6924
    38.7871  48.1562  53.9945  60.4279  61.5396  63.1632

          k = 0.7000-0.3000 0.7000 (   119 PWs)   bands (ev):

    -6.7891  -5.5266  -4.6775  -2.4092  -2.3062  16.4184  26.0113  35.8990
    38.9663  47.9688  58.4543  59.1192  60.4949  63.3125

          k = 0.6000-0.2000 0.6000 (   125 PWs)   bands (ev):

    -8.2171  -6.5423  -4.9456  -4.5977  -3.8560  16.8251  25.4489  34.5952
    40.0325  48.1357  57.7607  59.5886  61.6147  64.9213

          k = 0.5000-0.1000 0.5000 (   121 PWs)   bands (ev):

    -7.0592  -5.1106  -4.9144  -3.8823  -2.2263  14.9186  28.5753  34.3310
    41.8724  49.1980  56.3284  59.6257  60.8272  61.8443

          k = 0.4000 0.0000 0.4000 (   125 PWs)   bands (ev):

    -8.0848  -6.2360  -5.8319  -4.7850  -2.4551  12.7279  32.3734  35.6573
    43.8686  50.7189  53.8981  58.0619  59.6559  60.2473

          k = 0.0000 0.6000 0.0000 (   125 PWs)   bands (ev):

    -7.0952  -6.1352  -5.0873  -5.0873  -4.3792  13.2201  33.5513  37.8016
    37.8016  47.5067  48.2941  64.7787  64.7787  67.5838

          k =-0.1000 0.7000-0.1000 (   122 PWs)   bands (ev):

    -8.5196  -6.2658  -5.2617  -3.0611  -1.9834  15.0292  30.3128  35.7245
    36.9234  47.1294  49.3837  64.3944  64.6559  68.2681

          k = 0.8000-0.2000 0.8000 (   117 PWs)   bands (ev):

    -7.3029  -4.7469  -3.5781  -2.2136  -1.6302  17.1415  27.5187  33.0474
    36.9946  47.1601  53.6096  63.0651  63.1631  67.8582

          k = 0.7000-0.1000 0.7000 (   118 PWs)   bands (ev):

    -6.6246  -4.2779  -3.7883  -3.4528  -2.5375  18.0842  26.9394  30.7679
    37.9931  47.6627  58.1001  61.7325  62.0727  65.5470

          k = 0.6000-0.0000 0.6000 (   122 PWs)   bands (ev):

    -7.6964  -5.6399  -4.3545  -4.0214  -3.2163  16.8367  28.5749  30.3044
    39.7431  48.0734  59.5103  60.6567  61.2600  63.3593

          k = 0.0000 0.8000 0.0000 (   117 PWs)   bands (ev):

    -9.0623  -5.5224  -2.1109  -1.7590  -1.7590  16.5341  28.1594  35.7956
    35.7956  46.2989  47.5017  66.0375  68.7495  68.7495

          k = 0.9000-0.1000 0.9000 (   118 PWs)   bands (ev):

    -9.0395  -4.4776  -3.3434  -2.4985  -1.9572  18.2589  26.2084  33.8114
    35.5667  46.7639  48.9534  64.9293  67.7107  70.1832

          k = 0.8000 0.0000 0.8000 (   118 PWs)   bands (ev):

    -7.6630  -4.0224  -3.2776  -3.2242  -2.3731  18.8981  26.4216  30.9507
    36.3605  47.1635  53.2304  63.6344  66.0500  66.5624

          k = 0.0000-1.0000 0.0000 (   116 PWs)   bands (ev):

    -9.2143  -4.6547  -2.2195  -1.8653  -1.8653  19.0094  24.9565  35.0555
    35.0555  46.1736  47.3264  65.4957  70.7005  70.9166

          k =-0.2000 0.4000 0.0000 (   128 PWs)   bands (ev):

    -8.2079  -7.8197  -5.6020  -5.2485  -3.9038  11.2128  35.7912  38.8307
    43.3218  50.8073  51.2732  58.4783  61.3074  61.5029

          k =-0.3000 0.5000-0.1000 (   125 PWs)   bands (ev):

    -7.8145  -7.3940  -5.3686  -4.5194  -2.4718  13.0962  31.2077  37.0202
    41.7840  50.0427  53.6586  57.8078  60.8433  62.7228

          k = 0.6000-0.4000 0.8000 (   120 PWs)   bands (ev):

    -7.0714  -5.0323  -4.2382  -3.4524  -2.6906  15.4323  26.8849  36.5621
    40.2002  49.3524  56.0358  59.4269  60.8509  62.4019

          k = 0.5000-0.3000 0.7000 (   122 PWs)   bands (ev):

    -7.4010  -6.0054  -4.4982  -3.9993  -3.1211  16.8439  24.7125  36.4664
    39.4526  49.0739  56.0578  60.8822  61.4123  63.4035

          k =-0.2000 0.6000 0.0000 (   124 PWs)   bands (ev):

    -8.1639  -6.1748  -5.3876  -4.7379  -2.3833  13.7075  32.0279  36.0260
    38.7560  49.2155  50.2760  60.3825  64.6973  66.3355

          k = 0.7000-0.3000 0.9000 (   119 PWs)   bands (ev):

    -6.9566  -6.3456  -3.9983  -2.2480  -2.0881  15.8651  28.7206  34.1375
    37.3414  49.2669  53.7097  59.1497  64.9043  65.4229

          k = 0.6000-0.2000 0.8000 (   118 PWs)   bands (ev):

    -6.8400  -4.3820  -4.1042  -3.2339  -2.2036  17.6072  26.4110  32.8895
    37.0853  49.4091  57.5536  58.7370  63.3143  64.9789

          k = 0.5000-0.1000 0.7000 (   119 PWs)   bands (ev):

    -6.5531  -4.6037  -3.7955  -3.4478  -3.0973  17.0973  27.2695  32.0714
    38.1674  49.9854  56.9152  59.7349  62.6549  63.6019

          k = 0.4000 0.0000 0.6000 (   118 PWs)   bands (ev):

    -5.7930  -5.6613  -3.6334  -2.9983  -1.9575  15.0917  29.8232  33.0625
    40.0251  50.6649  54.9887  58.0506  62.7158  63.7631

          k = 0.8000-0.2000 1.0000 (   118 PWs)   bands (ev):

    -7.8892  -6.0714  -3.6038  -1.9233  -1.3458  16.8791  28.1542  34.1654
    35.3528  48.2572  49.8625  62.6603  66.7362  69.3334

          k = 0.7000-0.1000 0.9000 (   116 PWs)   bands (ev):

    -6.9992  -4.1464  -3.3735  -2.8736  -1.1174  18.4730  27.0421  31.5740
    35.1767  49.0915  53.5979  61.1591  64.3038  67.9634

          k = 0.6000 0.0000 0.8000 (   119 PWs)   bands (ev):

    -6.9985  -4.8141  -4.1866  -3.1112  -2.5963  18.4225  28.3969  29.0844
    36.2692  49.4999  58.2035  59.5009  61.1133  65.7527

          k =-0.2000-1.0000 0.0000 (   118 PWs)   bands (ev):

    -8.9343  -4.4603  -3.3025  -2.7194  -1.8054  19.0252  25.6843  33.4388
    34.3136  48.2711  49.4092  63.8232  66.8039  69.2321

          k = 0.6000-0.2000 1.0000 (   115 PWs)   bands (ev):

    -5.4949  -4.8092  -3.3490  -2.7558  -1.0318  17.6909  28.2526  31.2762
    35.4027  51.9659  54.5903  58.0799  63.0761  67.4407

          k = 0.5000-0.1000 0.9000 (   112 PWs)   bands (ev):

    -4.9900  -3.8154  -2.6235  -2.2775  -0.8797  18.6198  28.0381  30.2081
    34.5981  52.5642  56.8424  59.1093  59.2120  68.4287

          k =-0.4000-1.0000 0.0000 (   112 PWs)   bands (ev):

    -4.8635  -3.8115  -2.7101  -2.2840  -0.8667  19.0729  27.7700  30.5716
    33.4173  52.9262  54.3781  59.4742  60.4773  69.8597

     the Fermi energy is    49.2257 ev

!    total energy              =    -273.01340109 Ry
     Harris-Foulkes estimate   =    -273.01340109 Ry
     estimated scf accuracy    <          1.1E-10 Ry

     The total energy is the sum of the following terms:

     one-electron contribution =       9.91590185 Ry
     hartree contribution      =      21.81897795 Ry
     xc contribution           =     -62.41417203 Ry
     ewald contribution        =    -242.33311997 Ry
     smearing contrib. (-TS)   =      -0.00098889 Ry

     convergence has been achieved in   7 iterations

     Forces acting on atoms (cartesian axes, Ry/au):

     atom    1 type  1   force =     0.00000000    0.00000000    0.00000000

     Total force =     0.000000     Total SCF correction =     0.000000


     Computing stress (Cartesian axis) and pressure

          total   stress  (Ry/bohr**3)                   (kbar)     P=********
  -0.20146806   0.00000000   0.00000000     -29636.97      0.00      0.00
  -0.00000000  -0.20146806  -0.00000000         -0.00 -29636.97     -0.00
   0.00000000  -0.00000000  -0.20146806          0.00     -0.00 -29636.97


     Writing output data file Fr.save/

     init_run     :      0.12s CPU      0.14s WALL (       1 calls)
     electrons    :      1.51s CPU      1.70s WALL (       1 calls)
     forces       :      0.02s CPU      0.02s WALL (       1 calls)
     stress       :      0.05s CPU      0.05s WALL (       1 calls)

     Called by init_run:
     wfcinit      :      0.04s CPU      0.06s WALL (       1 calls)
     potinit      :      0.00s CPU      0.00s WALL (       1 calls)
     hinit0       :      0.08s CPU      0.08s WALL (       1 calls)

     Called by electrons:
     c_bands      :      1.35s CPU      1.51s WALL (       7 calls)
     sum_band     :      0.14s CPU      0.17s WALL (       7 calls)
     v_of_rho     :      0.01s CPU      0.01s WALL (       8 calls)
     newd         :      0.01s CPU      0.01s WALL (       8 calls)
     mix_rho      :      0.00s CPU      0.00s WALL (       7 calls)

     Called by c_bands:
     init_us_2    :      0.02s CPU      0.02s WALL (     799 calls)
     cegterg      :      1.32s CPU      1.48s WALL (     329 calls)

     Called by sum_band:
     sum_band:bec :      0.00s CPU      0.00s WALL (     329 calls)
     addusdens    :      0.01s CPU      0.01s WALL (       7 calls)

     Called by *egterg:
     h_psi        :      0.69s CPU      0.79s WALL (    1179 calls)
     s_psi        :      0.02s CPU      0.03s WALL (    1179 calls)
     g_psi        :      0.00s CPU      0.00s WALL (     803 calls)
     cdiaghg      :      0.49s CPU      0.53s WALL (    1132 calls)

     Called by h_psi:
     h_psi:pot    :      0.68s CPU      0.79s WALL (    1179 calls)
     h_psi:calbec :      0.03s CPU      0.04s WALL (    1179 calls)
     vloc_psi     :      0.62s CPU      0.71s WALL (    1179 calls)
     add_vuspsi   :      0.02s CPU      0.03s WALL (    1179 calls)

     General routines
     calbec       :      0.05s CPU      0.06s WALL (    1743 calls)
     fft          :      0.01s CPU      0.01s WALL (     114 calls)
     ffts         :      0.00s CPU      0.00s WALL (       7 calls)
     fftw         :      0.65s CPU      0.76s WALL (   29242 calls)

     Parallel routines
     fft_scatt_xy :      0.07s CPU      0.09s WALL (   29363 calls)
     fft_scatt_yz :      0.25s CPU      0.28s WALL (   29363 calls)

     PWSCF        :     2.61s CPU         2.88s WALL


   This run was terminated on:  22:22:55   7Apr2024            

=------------------------------------------------------------------------------=
   JOB DONE.
=------------------------------------------------------------------------------=
