
     Program PWSCF v.6.3MaX starts on  7Apr2024 at 23: 1:13 

     This program is part of the open-source Quantum ESPRESSO suite
     for quantum simulation of materials; please cite
         "P. Giannozzi et al., J. Phys.:Condens. Matter 21 395502 (2009);
         "P. Giannozzi et al., J. Phys.:Condens. Matter 29 465901 (2017);
          URL http://www.quantum-espresso.org", 
     in publications or presentations arising from this work. More details at
     http://www.quantum-espresso.org/quote

     Parallel version (MPI), running on     5 processors

     MPI processes distributed on     1 nodes
     R & G space division:  proc/nbgrp/npool/nimage =       5
     Waiting for input...
     Reading input from standard input

     Current dimensions of program PWSCF are:
     Max number of different atomic species (ntypx) = 10
     Max number of k-points (npk) =  40000
     Max angular momentum in pseudopotentials (lmaxx) =  3

     Subspace diagonalization in iterative solution of the eigenvalue problem:
     a serial algorithm will be used


     Parallelization info
     --------------------
     sticks:   dense  smooth     PW     G-vecs:    dense   smooth      PW
     Min         116     116     37                 1850     1850     327
     Max         117     117     38                 1853     1853     329
     Sum         583     583    187                 9257     9257    1639



     bravais-lattice index     =            2
     lattice parameter (alat)  =       6.8300  a.u.
     unit-cell volume          =      79.6530 (a.u.)^3
     number of atoms/cell      =            1
     number of atomic types    =            1
     number of electrons       =        19.00
     number of Kohn-Sham states=           14
     kinetic-energy cutoff     =      90.0000  Ry
     charge density cutoff     =     360.0000  Ry
     convergence threshold     =      1.0E-08
     mixing beta               =       0.7000
     number of iterations used =            8  plain     mixing
     Exchange-correlation      = LDA ( 1  1  0  0 0 0)

     celldm(1)=   6.830000  celldm(2)=   0.000000  celldm(3)=   0.000000
     celldm(4)=   0.000000  celldm(5)=   0.000000  celldm(6)=   0.000000

     crystal axes: (cart. coord. in units of alat)
               a(1) = (  -0.500000   0.000000   0.500000 )  
               a(2) = (   0.000000   0.500000   0.500000 )  
               a(3) = (  -0.500000   0.500000   0.000000 )  

     reciprocal axes: (cart. coord. in units 2 pi/alat)
               b(1) = ( -1.000000 -1.000000  1.000000 )  
               b(2) = (  1.000000  1.000000  1.000000 )  
               b(3) = ( -1.000000  1.000000 -1.000000 )  


     PseudoPot. # 1 for Fr read from file:
     /home/lorenzo/pseudos/Fr/Fr.pz-spdn-rrkjus_psl.1.0.0.UPF
     MD5 check sum: 5665a43a3d1ea02b0b7dc7a0ae9ace04
     Pseudo is Ultrasoft + core correction, Zval = 19.0
     Generated using "atomic" code by A. Dal Corso v.6.2.2
     Using radial grid of 1287 points,  6 beta functions with: 
                l(1) =   0
                l(2) =   0
                l(3) =   1
                l(4) =   1
                l(5) =   2
                l(6) =   2
     Q(r) pseudized with 0 coefficients 


     atomic species   valence    mass     pseudopotential
        Fr            19.00   223.00000     Fr( 1.00)

     48 Sym. Ops., with inversion, found



   Cartesian axes

     site n.     atom                  positions (alat units)
         1           Fr  tau(   1) = (   0.0000000   0.0000000   0.0000000  )

     number of k points=    10  gaussian smearing, width (Ry)=  0.0100
                       cart. coord. in units 2pi/alat
        k(    1) = (   0.0000000   0.0000000   0.0000000), wk =   0.0160000
        k(    2) = (  -0.2000000   0.2000000  -0.2000000), wk =   0.1280000
        k(    3) = (  -0.4000000   0.4000000  -0.4000000), wk =   0.1280000
        k(    4) = (   0.0000000   0.4000000   0.0000000), wk =   0.0960000
        k(    5) = (  -0.2000000   0.6000000  -0.2000000), wk =   0.3840000
        k(    6) = (   0.6000000  -0.2000000   0.6000000), wk =   0.3840000
        k(    7) = (   0.4000000   0.0000000   0.4000000), wk =   0.1920000
        k(    8) = (   0.0000000   0.8000000   0.0000000), wk =   0.0960000
        k(    9) = (   0.8000000   0.0000000   0.8000000), wk =   0.1920000
        k(   10) = (   0.6000000  -0.2000000   1.0000000), wk =   0.3840000

     Dense  grid:     9257 G-vectors     FFT dimensions: (  30,  30,  30)

     Estimated max dynamical RAM per process >       9.07 MB

     Estimated total dynamical RAM >      45.37 MB

     Initial potential from superposition of free atoms

     starting charge   18.97647, renormalised to   19.00000
     Starting wfcs are   10 randomized atomic wfcs +    4 random wfcs

     total cpu time spent up to now is        1.6 secs

     Self-consistent Calculation

     iteration #  1     ecut=    90.00 Ry     beta= 0.70
     Davidson diagonalization with overlap
     ethr =  1.00E-02,  avg # of iterations =  4.7

     Threshold (ethr) on eigenvalues was too large:
     Diagonalizing with lowered threshold

     Davidson diagonalization with overlap
     ethr =  9.07E-05,  avg # of iterations =  1.8

     total cpu time spent up to now is        2.1 secs

     total energy              =    -282.51703070 Ry
     Harris-Foulkes estimate   =    -282.52866685 Ry
     estimated scf accuracy    <       0.01690945 Ry

     iteration #  2     ecut=    90.00 Ry     beta= 0.70
     Davidson diagonalization with overlap
     ethr =  8.90E-05,  avg # of iterations =  2.0

     total cpu time spent up to now is        2.3 secs

     total energy              =    -282.52051640 Ry
     Harris-Foulkes estimate   =    -282.52111103 Ry
     estimated scf accuracy    <       0.00079980 Ry

     iteration #  3     ecut=    90.00 Ry     beta= 0.70
     Davidson diagonalization with overlap
     ethr =  4.21E-06,  avg # of iterations =  2.3

     total cpu time spent up to now is        2.5 secs

     total energy              =    -282.52067298 Ry
     Harris-Foulkes estimate   =    -282.52068436 Ry
     estimated scf accuracy    <       0.00002163 Ry

     iteration #  4     ecut=    90.00 Ry     beta= 0.70
     Davidson diagonalization with overlap
     ethr =  1.14E-07,  avg # of iterations =  2.0

     total cpu time spent up to now is        2.8 secs

     total energy              =    -282.52067509 Ry
     Harris-Foulkes estimate   =    -282.52067525 Ry
     estimated scf accuracy    <       0.00000033 Ry

     iteration #  5     ecut=    90.00 Ry     beta= 0.70
     Davidson diagonalization with overlap
     ethr =  1.73E-09,  avg # of iterations =  2.2

     total cpu time spent up to now is        3.0 secs

     total energy              =    -282.52067516 Ry
     Harris-Foulkes estimate   =    -282.52067517 Ry
     estimated scf accuracy    <       0.00000001 Ry

     iteration #  6     ecut=    90.00 Ry     beta= 0.70
     Davidson diagonalization with overlap
     ethr =  6.95E-11,  avg # of iterations =  2.0

     total cpu time spent up to now is        3.2 secs

     End of self-consistent calculation

          k = 0.0000 0.0000 0.0000 (  1139 PWs)   bands (ev):

    -9.4402  -9.4402  -9.4402  -9.0962  -9.0962   9.1101  46.8986  46.8986
    46.8986  48.1082  53.6859  53.6859  53.6859  57.5021

          k =-0.2000 0.2000-0.2000 (  1167 PWs)   bands (ev):

    -9.4292  -9.3564  -9.3564  -9.0634  -9.0634  10.7142  36.5387  45.0835
    45.0835  47.9998  54.1250  54.8201  54.8201  57.0256

          k =-0.4000 0.4000-0.4000 (  1149 PWs)   bands (ev):

    -9.4258  -9.3755  -9.3755  -8.8484  -8.8484  15.3001  25.6685  42.9915
    42.9915  47.8906  51.3042  51.9316  51.9316  63.3359

          k = 0.0000 0.4000 0.0000 (  1146 PWs)   bands (ev):

    -9.5549  -9.2202  -9.2064  -9.2064  -8.9982  11.2479  40.5472  40.8109
    40.8109  45.2291  47.5160  60.0155  60.1827  60.1827

          k =-0.2000 0.6000-0.2000 (  1156 PWs)   bands (ev):

    -9.5398  -9.3027  -9.1544  -9.0243  -8.8229  14.9052  29.8881  37.5041
    38.8626  44.7124  51.3773  57.9946  58.3951  60.3326

          k = 0.6000-0.2000 0.6000 (  1141 PWs)   bands (ev):

    -9.4517  -9.2633  -9.1967  -8.9486  -8.8601  18.0337  24.9076  34.2773
    40.3079  45.3594  55.4519  55.4775  60.5645  62.2244

          k = 0.4000 0.0000 0.4000 (  1151 PWs)   bands (ev):

    -9.3801  -9.3513  -9.1878  -9.1447  -8.9148  13.3537  32.9001  34.8953
    44.7123  48.4178  52.4893  54.7324  55.2696  57.7568

          k = 0.0000 0.8000 0.0000 (  1154 PWs)   bands (ev):

    -9.7386  -9.4511  -8.8380  -8.8101  -8.8101  17.5115  28.6546  35.9102
    35.9102  42.8654  43.1889  64.1897  67.6655  67.6656

          k = 0.8000 0.0000 0.8000 (  1144 PWs)   bands (ev):

    -9.6285  -9.3715  -8.8955  -8.8816  -8.8027  20.6577  25.9200  30.0680
    36.4784  43.2534  50.0391  61.3067  64.2630  66.2099

          k = 0.6000-0.2000 1.0000 (  1139 PWs)   bands (ev):

    -9.4165  -9.3494  -9.1342  -8.9233  -8.8158  18.9589  28.2329  30.4902
    34.3463  50.4681  50.8450  54.4774  61.6099  65.6832

     the Fermi energy is    45.3599 ev

!    total energy              =    -282.52067517 Ry
     Harris-Foulkes estimate   =    -282.52067517 Ry
     estimated scf accuracy    <          1.9E-10 Ry

     The total energy is the sum of the following terms:

     one-electron contribution =      -4.55274410 Ry
     hartree contribution      =      28.27589595 Ry
     xc contribution           =     -63.90950486 Ry
     ewald contribution        =    -242.33311988 Ry
     smearing contrib. (-TS)   =      -0.00120228 Ry

     convergence has been achieved in   6 iterations

     Forces acting on atoms (cartesian axes, Ry/au):

     atom    1 type  1   force =     0.00000000    0.00000000    0.00000000

     Total force =     0.000000     Total SCF correction =     0.000000


     Computing stress (Cartesian axis) and pressure

          total   stress  (Ry/bohr**3)                   (kbar)     P= 7094.19
   0.04822535  -0.00000000  -0.00000000       7094.19     -0.00     -0.00
  -0.00000000   0.04822535   0.00000000         -0.00   7094.19      0.00
  -0.00000000   0.00000000   0.04822535         -0.00      0.00   7094.19


     Writing output data file Fr.save/

     init_run     :      0.27s CPU      0.28s WALL (       1 calls)
     electrons    :      1.56s CPU      1.62s WALL (       1 calls)
     forces       :      0.04s CPU      0.04s WALL (       1 calls)
     stress       :      0.11s CPU      0.11s WALL (       1 calls)

     Called by init_run:
     wfcinit      :      0.05s CPU      0.05s WALL (       1 calls)
     potinit      :      0.01s CPU      0.01s WALL (       1 calls)
     hinit0       :      0.20s CPU      0.20s WALL (       1 calls)

     Called by electrons:
     c_bands      :      1.23s CPU      1.28s WALL (       7 calls)
     sum_band     :      0.25s CPU      0.26s WALL (       7 calls)
     v_of_rho     :      0.01s CPU      0.01s WALL (       7 calls)
     newd         :      0.07s CPU      0.07s WALL (       7 calls)
     mix_rho      :      0.01s CPU      0.01s WALL (       7 calls)

     Called by c_bands:
     init_us_2    :      0.03s CPU      0.03s WALL (     170 calls)
     cegterg      :      1.19s CPU      1.24s WALL (      70 calls)

     Called by sum_band:
     sum_band:bec :      0.00s CPU      0.00s WALL (      70 calls)
     addusdens    :      0.06s CPU      0.06s WALL (       7 calls)

     Called by *egterg:
     h_psi        :      0.89s CPU      0.92s WALL (     250 calls)
     s_psi        :      0.03s CPU      0.03s WALL (     250 calls)
     g_psi        :      0.00s CPU      0.00s WALL (     170 calls)
     cdiaghg      :      0.13s CPU      0.13s WALL (     230 calls)

     Called by h_psi:
     h_psi:pot    :      0.88s CPU      0.92s WALL (     250 calls)
     h_psi:calbec :      0.05s CPU      0.05s WALL (     250 calls)
     vloc_psi     :      0.81s CPU      0.84s WALL (     250 calls)
     add_vuspsi   :      0.03s CPU      0.03s WALL (     250 calls)

     General routines
     calbec       :      0.07s CPU      0.07s WALL (     370 calls)
     fft          :      0.01s CPU      0.01s WALL (      38 calls)
     ffts         :      0.00s CPU      0.00s WALL (       7 calls)
     fftw         :      0.90s CPU      0.94s WALL (    6178 calls)

     Parallel routines
     fft_scatt_xy :      0.07s CPU      0.07s WALL (    6223 calls)
     fft_scatt_yz :      0.29s CPU      0.30s WALL (    6223 calls)

     PWSCF        :     3.33s CPU         3.44s WALL


   This run was terminated on:  23: 1:16   7Apr2024            

=------------------------------------------------------------------------------=
   JOB DONE.
=------------------------------------------------------------------------------=
