
     Program PWSCF v.6.3MaX starts on  7Apr2024 at 22:32:26 

     This program is part of the open-source Quantum ESPRESSO suite
     for quantum simulation of materials; please cite
         "P. Giannozzi et al., J. Phys.:Condens. Matter 21 395502 (2009);
         "P. Giannozzi et al., J. Phys.:Condens. Matter 29 465901 (2017);
          URL http://www.quantum-espresso.org", 
     in publications or presentations arising from this work. More details at
     http://www.quantum-espresso.org/quote

     Parallel version (MPI), running on     5 processors

     MPI processes distributed on     1 nodes
     R & G space division:  proc/nbgrp/npool/nimage =       5
     Waiting for input...
     Reading input from standard input

     Current dimensions of program PWSCF are:
     Max number of different atomic species (ntypx) = 10
     Max number of k-points (npk) =  40000
     Max angular momentum in pseudopotentials (lmaxx) =  3
               file Fr.pbe-spdn-kjpaw_psl.1.0.0.UPF: wavefunction(s)  6P renormalized

     Subspace diagonalization in iterative solution of the eigenvalue problem:
     a serial algorithm will be used


     Parallelization info
     --------------------
     sticks:   dense  smooth     PW     G-vecs:    dense   smooth      PW
     Min          50      50     17                  544      544     107
     Max          51      51     17                  548      548     108
     Sum         253     253     85                 2733     2733     537



     bravais-lattice index     =            2
     lattice parameter (alat)  =       6.8300  a.u.
     unit-cell volume          =      79.6530 (a.u.)^3
     number of atoms/cell      =            1
     number of atomic types    =            1
     number of electrons       =        19.00
     number of Kohn-Sham states=           14
     kinetic-energy cutoff     =      40.0000  Ry
     charge density cutoff     =     160.0000  Ry
     convergence threshold     =      1.0E-08
     mixing beta               =       0.7000
     number of iterations used =            8  plain     mixing
     Exchange-correlation      = SLA PW PBX PBC ( 1  4  3  4 0 0)

     celldm(1)=   6.830000  celldm(2)=   0.000000  celldm(3)=   0.000000
     celldm(4)=   0.000000  celldm(5)=   0.000000  celldm(6)=   0.000000

     crystal axes: (cart. coord. in units of alat)
               a(1) = (  -0.500000   0.000000   0.500000 )  
               a(2) = (   0.000000   0.500000   0.500000 )  
               a(3) = (  -0.500000   0.500000   0.000000 )  

     reciprocal axes: (cart. coord. in units 2 pi/alat)
               b(1) = ( -1.000000 -1.000000  1.000000 )  
               b(2) = (  1.000000  1.000000  1.000000 )  
               b(3) = ( -1.000000  1.000000 -1.000000 )  


     PseudoPot. # 1 for Fr read from file:
     /home/lorenzo/pseudos/Fr/Fr.pbe-spdn-kjpaw_psl.1.0.0.UPF
     MD5 check sum: 362a188b966a64328b94f1ef5f32e8c4
     Pseudo is Projector augmented-wave + core cor, Zval = 19.0
     Generated using "atomic" code by A. Dal Corso v.6.2.2
     Shape of augmentation charge: PSQ
     Using radial grid of 1287 points,  6 beta functions with: 
                l(1) =   0
                l(2) =   0
                l(3) =   1
                l(4) =   1
                l(5) =   2
                l(6) =   2
     Q(r) pseudized with 0 coefficients 


     atomic species   valence    mass     pseudopotential
        Fr            19.00   223.00000     Fr( 1.00)

     48 Sym. Ops., with inversion, found



   Cartesian axes

     site n.     atom                  positions (alat units)
         1           Fr  tau(   1) = (   0.0000000   0.0000000   0.0000000  )

     number of k points=    16  gaussian smearing, width (Ry)=  0.0100
                       cart. coord. in units 2pi/alat
        k(    1) = (   0.0000000   0.0000000   0.0000000), wk =   0.0092593
        k(    2) = (  -0.1666667   0.1666667  -0.1666667), wk =   0.0740741
        k(    3) = (  -0.3333333   0.3333333  -0.3333333), wk =   0.0740741
        k(    4) = (   0.5000000  -0.5000000   0.5000000), wk =   0.0370370
        k(    5) = (   0.0000000   0.3333333   0.0000000), wk =   0.0555556
        k(    6) = (  -0.1666667   0.5000000  -0.1666667), wk =   0.2222222
        k(    7) = (   0.6666667  -0.3333333   0.6666667), wk =   0.2222222
        k(    8) = (   0.5000000  -0.1666667   0.5000000), wk =   0.2222222
        k(    9) = (   0.3333333   0.0000000   0.3333333), wk =   0.1111111
        k(   10) = (   0.0000000   0.6666667   0.0000000), wk =   0.0555556
        k(   11) = (   0.8333333  -0.1666667   0.8333333), wk =   0.2222222
        k(   12) = (   0.6666667  -0.0000000   0.6666667), wk =   0.1111111
        k(   13) = (   0.0000000  -1.0000000   0.0000000), wk =   0.0277778
        k(   14) = (   0.6666667  -0.3333333   1.0000000), wk =   0.2222222
        k(   15) = (   0.5000000  -0.1666667   0.8333333), wk =   0.2222222
        k(   16) = (  -0.3333333  -1.0000000   0.0000000), wk =   0.1111111

     Dense  grid:     2733 G-vectors     FFT dimensions: (  20,  20,  20)

     Estimated max dynamical RAM per process >       3.38 MB

     Estimated total dynamical RAM >      16.89 MB

     Check: negative/imaginary core charge=   -0.000005    0.000000

     Initial potential from superposition of free atoms

     starting charge   18.97009, renormalised to   19.00000
     Starting wfcs are   10 randomized atomic wfcs +    4 random wfcs
     Checking if some PAW data can be deallocated... 

     total cpu time spent up to now is        1.3 secs

     Self-consistent Calculation

     iteration #  1     ecut=    40.00 Ry     beta= 0.70
     Davidson diagonalization with overlap
     ethr =  1.00E-02,  avg # of iterations =  4.4

     Threshold (ethr) on eigenvalues was too large:
     Diagonalizing with lowered threshold

     Davidson diagonalization with overlap
     ethr =  1.55E-04,  avg # of iterations =  1.7

     total cpu time spent up to now is        1.7 secs

     total energy              =   -1069.79130580 Ry
     Harris-Foulkes estimate   =   -1069.81177676 Ry
     estimated scf accuracy    <       0.02947154 Ry

     iteration #  2     ecut=    40.00 Ry     beta= 0.70
     Davidson diagonalization with overlap
     ethr =  1.55E-04,  avg # of iterations =  2.0

     total cpu time spent up to now is        2.0 secs

     total energy              =   -1069.79912318 Ry
     Harris-Foulkes estimate   =   -1069.79970078 Ry
     estimated scf accuracy    <       0.00139245 Ry

     iteration #  3     ecut=    40.00 Ry     beta= 0.70
     Davidson diagonalization with overlap
     ethr =  7.33E-06,  avg # of iterations =  2.3

     total cpu time spent up to now is        2.2 secs

     total energy              =   -1069.79936597 Ry
     Harris-Foulkes estimate   =   -1069.79933427 Ry
     estimated scf accuracy    <       0.00002690 Ry

     iteration #  4     ecut=    40.00 Ry     beta= 0.70
     Davidson diagonalization with overlap
     ethr =  1.42E-07,  avg # of iterations =  2.1

     total cpu time spent up to now is        2.4 secs

     total energy              =   -1069.79937143 Ry
     Harris-Foulkes estimate   =   -1069.79937045 Ry
     estimated scf accuracy    <       0.00000034 Ry

     iteration #  5     ecut=    40.00 Ry     beta= 0.70
     Davidson diagonalization with overlap
     ethr =  1.77E-09,  avg # of iterations =  2.1

     total cpu time spent up to now is        2.7 secs

     End of self-consistent calculation

          k = 0.0000 0.0000 0.0000 (   331 PWs)   bands (ev):

    -9.3998  -9.3998  -9.3998  -9.0715  -9.0715   9.4535  47.2254  47.2254
    47.2254  48.3478  54.2733  54.2733  54.2733  57.7721

          k =-0.1667 0.1667-0.1667 (   332 PWs)   bands (ev):

    -9.3737  -9.3447  -9.3447  -9.0016  -9.0016  10.5672  38.9449  45.8575
    45.8575  48.2878  55.0741  56.0043  56.0043  56.6633

          k =-0.3333 0.3333-0.3333 (   344 PWs)   bands (ev):

    -9.3628  -9.3432  -9.3432  -8.9145  -8.9145  13.8686  29.1878  43.8484
    43.8484  48.2607  52.2919  53.0426  53.0426  61.6341

          k = 0.5000-0.5000 0.5000 (   344 PWs)   bands (ev):

    -9.4460  -9.3697  -9.3697  -8.7397  -8.7397  17.5260  23.2710  42.9825
    42.9825  48.0884  51.3754  52.0827  52.0827  65.4810

          k = 0.0000 0.3333 0.0000 (   335 PWs)   bands (ev):

    -9.5127  -9.2132  -9.2132  -9.1528  -8.9771  10.9378  42.3270  42.3270
    42.5371  46.1165  49.5520  58.8723  59.4311  59.4311

          k =-0.1667 0.5000-0.1667 (   335 PWs)   bands (ev):

    -9.4763  -9.2244  -9.1287  -9.0403  -8.8254  13.5212  32.8754  40.1937
    40.5148  45.9450  50.8124  58.2758  58.4013  59.1998

          k = 0.6667-0.3333 0.6667 (   335 PWs)   bands (ev):

    -9.4153  -9.2039  -9.1520  -8.8734  -8.7117  17.6699  25.2355  37.3455
    40.2373  45.6189  55.6811  55.8118  58.5988  59.1870

          k = 0.5000-0.1667 0.5000 (   347 PWs)   bands (ev):

    -9.3687  -9.2906  -9.2117  -8.9659  -8.8776  16.2594  27.4103  35.9145
    42.6580  47.0163  53.9022  54.5242  60.3894  60.6827

          k = 0.3333 0.0000 0.3333 (   341 PWs)   bands (ev):

    -9.3704  -9.3123  -9.1973  -9.1577  -8.9136  12.4182  35.4857  37.3552
    46.5406  50.2431  51.4079  54.1186  55.2875  57.5708

          k = 0.0000 0.6667 0.0000 (   335 PWs)   bands (ev):

    -9.6148  -9.3005  -8.8647  -8.8519  -8.8519  15.3656  32.9350  37.3628
    37.3628  44.0913  44.0922  64.7809  65.1931  65.1931

          k = 0.8333-0.1667 0.8333 (   338 PWs)   bands (ev):

    -9.5813  -9.3198  -8.8656  -8.8513  -8.7059  19.0194  27.8887  32.3882
    36.8424  43.7319  49.0113  61.6400  63.4084  68.8470

          k = 0.6667-0.0000 0.6667 (   347 PWs)   bands (ev):

    -9.4643  -9.1179  -9.0350  -8.9974  -8.8841  19.7786  28.3257  28.3466
    38.8649  44.7087  57.5495  59.1736  60.1009  62.8409

          k = 0.0000-1.0000 0.0000 (   342 PWs)   bands (ev):

    -9.6947  -9.4735  -8.7488  -8.7362  -8.7362  21.0550  24.9226  35.5404
    35.5404  42.8398  43.4253  64.4166  70.3648  71.3132

          k = 0.6667-0.3333 1.0000 (   343 PWs)   bands (ev):

    -9.4264  -9.2747  -9.0934  -8.9188  -8.8685  16.6834  30.4574  32.9004
    37.6071  49.6224  50.0896  55.0478  62.7535  65.1344

          k = 0.5000-0.1667 0.8333 (   346 PWs)   bands (ev):

    -9.3205  -9.2969  -9.0917  -8.9760  -8.7725  19.8608  26.3408  31.8327
    35.5252  49.5009  52.8683  58.5338  58.6032  64.3501

          k =-0.3333-1.0000 0.0000 (   344 PWs)   bands (ev):

    -9.4761  -9.3208  -8.9668  -8.8805  -8.7246  21.2830  26.6575  31.2675
    32.8081  49.1520  49.2954  58.4595  61.3629  68.7655

     the Fermi energy is    46.9056 ev

!    total energy              =   -1069.79937150 Ry
     Harris-Foulkes estimate   =   -1069.79937149 Ry
     estimated scf accuracy    <          9.0E-09 Ry

     total all-electron energy =    -48515.409683 Ry

     The total energy is the sum of the following terms:

     one-electron contribution =       1.73013157 Ry
     hartree contribution      =      27.95222297 Ry
     xc contribution           =     -64.49682364 Ry
     ewald contribution        =    -242.33311992 Ry
     one-center paw contrib.   =    -792.65145849 Ry
     smearing contrib. (-TS)   =      -0.00032398 Ry

     convergence has been achieved in   5 iterations

     Forces acting on atoms (cartesian axes, Ry/au):

     atom    1 type  1   force =     0.00000000    0.00000000    0.00000000

     Total force =     0.000000     Total SCF correction =     0.000000


     Computing stress (Cartesian axis) and pressure

          total   stress  (Ry/bohr**3)                   (kbar)     P= 4919.83
   0.03344434   0.00000000  -0.00000000       4919.83      0.00     -0.00
  -0.00000000   0.03344434   0.00000000         -0.00   4919.83      0.00
  -0.00000000   0.00000000   0.03344434         -0.00      0.00   4919.83


     Writing output data file Fr.save/

     init_run     :      0.29s CPU      0.31s WALL (       1 calls)
     electrons    :      1.24s CPU      1.38s WALL (       1 calls)
     forces       :      0.02s CPU      0.02s WALL (       1 calls)
     stress       :      0.04s CPU      0.04s WALL (       1 calls)

     Called by init_run:
     wfcinit      :      0.03s CPU      0.03s WALL (       1 calls)
     potinit      :      0.12s CPU      0.13s WALL (       1 calls)
     hinit0       :      0.12s CPU      0.12s WALL (       1 calls)

     Called by electrons:
     c_bands      :      0.58s CPU      0.62s WALL (       6 calls)
     sum_band     :      0.11s CPU      0.12s WALL (       6 calls)
     v_of_rho     :      0.01s CPU      0.01s WALL (       6 calls)
     newd         :      0.02s CPU      0.02s WALL (       6 calls)
     PAW_pot      :      0.63s CPU      0.72s WALL (       6 calls)
     mix_rho      :      0.00s CPU      0.00s WALL (       6 calls)

     Called by c_bands:
     init_us_2    :      0.01s CPU      0.01s WALL (     240 calls)
     cegterg      :      0.56s CPU      0.60s WALL (      96 calls)

     Called by sum_band:
     sum_band:bec :      0.00s CPU      0.00s WALL (      96 calls)
     addusdens    :      0.02s CPU      0.02s WALL (       6 calls)

     Called by *egterg:
     h_psi        :      0.36s CPU      0.39s WALL (     346 calls)
     s_psi        :      0.01s CPU      0.01s WALL (     346 calls)
     g_psi        :      0.00s CPU      0.00s WALL (     234 calls)
     cdiaghg      :      0.14s CPU      0.15s WALL (     314 calls)

     Called by h_psi:
     h_psi:pot    :      0.35s CPU      0.39s WALL (     346 calls)
     h_psi:calbec :      0.02s CPU      0.02s WALL (     346 calls)
     vloc_psi     :      0.32s CPU      0.35s WALL (     346 calls)
     add_vuspsi   :      0.01s CPU      0.01s WALL (     346 calls)

     General routines
     calbec       :      0.03s CPU      0.04s WALL (     522 calls)
     fft          :      0.01s CPU      0.01s WALL (      93 calls)
     ffts         :      0.00s CPU      0.00s WALL (       6 calls)
     fftw         :      0.37s CPU      0.40s WALL (    8576 calls)

     Parallel routines
     fft_scatt_xy :      0.03s CPU      0.04s WALL (    8675 calls)
     fft_scatt_yz :      0.13s CPU      0.14s WALL (    8675 calls)

     PWSCF        :     2.60s CPU         2.81s WALL


   This run was terminated on:  22:32:28   7Apr2024            

=------------------------------------------------------------------------------=
   JOB DONE.
=------------------------------------------------------------------------------=
