
     Program PWSCF v.6.3MaX starts on 25Mar2024 at 23:48:39 

     This program is part of the open-source Quantum ESPRESSO suite
     for quantum simulation of materials; please cite
         "P. Giannozzi et al., J. Phys.:Condens. Matter 21 395502 (2009);
         "P. Giannozzi et al., J. Phys.:Condens. Matter 29 465901 (2017);
          URL http://www.quantum-espresso.org", 
     in publications or presentations arising from this work. More details at
     http://www.quantum-espresso.org/quote

     Parallel version (MPI), running on     5 processors

     MPI processes distributed on     1 nodes
     R & G space division:  proc/nbgrp/npool/nimage =       5
     Waiting for input...
     Reading input from standard input

     Current dimensions of program PWSCF are:
     Max number of different atomic species (ntypx) = 10
     Max number of k-points (npk) =  40000
     Max angular momentum in pseudopotentials (lmaxx) =  3
               file Cu.pbe-dn-kjpaw_psl.1.0.0.UPF: wavefunction(s)  4S 3D renormalized

     Subspace diagonalization in iterative solution of the eigenvalue problem:
     a serial algorithm will be used


     Parallelization info
     --------------------
     sticks:   dense  smooth     PW     G-vecs:    dense   smooth      PW
     Min         119     119     39                 1967     1967     361
     Max         119     119     40                 1969     1969     363
     Sum         595     595    199                 9841     9841    1807



     bravais-lattice index     =            2
     lattice parameter (alat)  =       6.8300  a.u.
     unit-cell volume          =      79.6530 (a.u.)^3
     number of atoms/cell      =            1
     number of atomic types    =            1
     number of electrons       =        11.00
     number of Kohn-Sham states=           10
     kinetic-energy cutoff     =      95.0000  Ry
     charge density cutoff     =     380.0000  Ry
     convergence threshold     =      1.0E-08
     mixing beta               =       0.7000
     number of iterations used =            8  plain     mixing
     Exchange-correlation      = SLA PW PBX PBC ( 1  4  3  4 0 0)

     celldm(1)=   6.830000  celldm(2)=   0.000000  celldm(3)=   0.000000
     celldm(4)=   0.000000  celldm(5)=   0.000000  celldm(6)=   0.000000

     crystal axes: (cart. coord. in units of alat)
               a(1) = (  -0.500000   0.000000   0.500000 )  
               a(2) = (   0.000000   0.500000   0.500000 )  
               a(3) = (  -0.500000   0.500000   0.000000 )  

     reciprocal axes: (cart. coord. in units 2 pi/alat)
               b(1) = ( -1.000000 -1.000000  1.000000 )  
               b(2) = (  1.000000  1.000000  1.000000 )  
               b(3) = ( -1.000000  1.000000 -1.000000 )  


     PseudoPot. # 1 for Cu read from file:
     /home/lorenzo/pseudos/Cu/Cu.pbe-dn-kjpaw_psl.1.0.0.UPF
     MD5 check sum: cfffd1f38ee05704b3e17f46f1730a6f
     Pseudo is Projector augmented-wave + core cor, Zval = 11.0
     Generated using "atomic" code by A. Dal Corso v.6.3
     Shape of augmentation charge: PSQ
     Using radial grid of 1199 points,  6 beta functions with: 
                l(1) =   0
                l(2) =   0
                l(3) =   1
                l(4) =   1
                l(5) =   2
                l(6) =   2
     Q(r) pseudized with 0 coefficients 


     atomic species   valence    mass     pseudopotential
        Cu            11.00    63.54600     Cu( 1.00)

     48 Sym. Ops., with inversion, found



   Cartesian axes

     site n.     atom                  positions (alat units)
         1           Cu  tau(   1) = (   0.0000000   0.0000000   0.0000000  )

     number of k points=    29  gaussian smearing, width (Ry)=  0.0100
                       cart. coord. in units 2pi/alat
        k(    1) = (   0.0000000   0.0000000   0.0000000), wk =   0.0039062
        k(    2) = (  -0.1250000   0.1250000  -0.1250000), wk =   0.0312500
        k(    3) = (  -0.2500000   0.2500000  -0.2500000), wk =   0.0312500
        k(    4) = (  -0.3750000   0.3750000  -0.3750000), wk =   0.0312500
        k(    5) = (   0.5000000  -0.5000000   0.5000000), wk =   0.0156250
        k(    6) = (   0.0000000   0.2500000   0.0000000), wk =   0.0234375
        k(    7) = (  -0.1250000   0.3750000  -0.1250000), wk =   0.0937500
        k(    8) = (  -0.2500000   0.5000000  -0.2500000), wk =   0.0937500
        k(    9) = (   0.6250000  -0.3750000   0.6250000), wk =   0.0937500
        k(   10) = (   0.5000000  -0.2500000   0.5000000), wk =   0.0937500
        k(   11) = (   0.3750000  -0.1250000   0.3750000), wk =   0.0937500
        k(   12) = (   0.2500000   0.0000000   0.2500000), wk =   0.0468750
        k(   13) = (   0.0000000   0.5000000   0.0000000), wk =   0.0234375
        k(   14) = (  -0.1250000   0.6250000  -0.1250000), wk =   0.0937500
        k(   15) = (   0.7500000  -0.2500000   0.7500000), wk =   0.0937500
        k(   16) = (   0.6250000  -0.1250000   0.6250000), wk =   0.0937500
        k(   17) = (   0.5000000   0.0000000   0.5000000), wk =   0.0468750
        k(   18) = (   0.0000000   0.7500000   0.0000000), wk =   0.0234375
        k(   19) = (   0.8750000  -0.1250000   0.8750000), wk =   0.0937500
        k(   20) = (   0.7500000   0.0000000   0.7500000), wk =   0.0468750
        k(   21) = (   0.0000000  -1.0000000   0.0000000), wk =   0.0117188
        k(   22) = (  -0.2500000   0.5000000   0.0000000), wk =   0.0937500
        k(   23) = (   0.6250000  -0.3750000   0.8750000), wk =   0.1875000
        k(   24) = (   0.5000000  -0.2500000   0.7500000), wk =   0.0937500
        k(   25) = (   0.7500000  -0.2500000   1.0000000), wk =   0.0937500
        k(   26) = (   0.6250000  -0.1250000   0.8750000), wk =   0.1875000
        k(   27) = (   0.5000000   0.0000000   0.7500000), wk =   0.0937500
        k(   28) = (  -0.2500000  -1.0000000   0.0000000), wk =   0.0468750
        k(   29) = (  -0.5000000  -1.0000000   0.0000000), wk =   0.0234375

     Dense  grid:     9841 G-vectors     FFT dimensions: (  30,  30,  30)

     Estimated max dynamical RAM per process >      10.14 MB

     Estimated total dynamical RAM >      50.69 MB

     Initial potential from superposition of free atoms

     starting charge   10.99977, renormalised to   11.00000
     Starting wfcs are    9 randomized atomic wfcs +    1 random wfcs
     Checking if some PAW data can be deallocated... 

     total cpu time spent up to now is        1.4 secs

     Self-consistent Calculation

     iteration #  1     ecut=    95.00 Ry     beta= 0.70
     Davidson diagonalization with overlap
     ethr =  1.00E-02,  avg # of iterations =  3.6

     Threshold (ethr) on eigenvalues was too large:
     Diagonalizing with lowered threshold

     Davidson diagonalization with overlap
     ethr =  5.70E-04,  avg # of iterations =  1.2

     total cpu time spent up to now is        2.2 secs

     total energy              =    -213.05760632 Ry
     Harris-Foulkes estimate   =    -213.10686921 Ry
     estimated scf accuracy    <       0.06252549 Ry

     iteration #  2     ecut=    95.00 Ry     beta= 0.70
     Davidson diagonalization with overlap
     ethr =  5.68E-04,  avg # of iterations =  2.1

     total cpu time spent up to now is        2.7 secs

     total energy              =    -213.05879539 Ry
     Harris-Foulkes estimate   =    -213.14712085 Ry
     estimated scf accuracy    <       0.23073190 Ry

     iteration #  3     ecut=    95.00 Ry     beta= 0.70
     Davidson diagonalization with overlap
     ethr =  5.68E-04,  avg # of iterations =  2.0

     total cpu time spent up to now is        3.2 secs

     total energy              =    -213.09490097 Ry
     Harris-Foulkes estimate   =    -213.09495349 Ry
     estimated scf accuracy    <       0.00011656 Ry

     iteration #  4     ecut=    95.00 Ry     beta= 0.70
     Davidson diagonalization with overlap
     ethr =  1.06E-06,  avg # of iterations =  2.5

     total cpu time spent up to now is        3.7 secs

     total energy              =    -213.09495749 Ry
     Harris-Foulkes estimate   =    -213.09496708 Ry
     estimated scf accuracy    <       0.00002661 Ry

     iteration #  5     ecut=    95.00 Ry     beta= 0.70
     Davidson diagonalization with overlap
     ethr =  2.42E-07,  avg # of iterations =  1.1

     total cpu time spent up to now is        4.1 secs

     total energy              =    -213.09496250 Ry
     Harris-Foulkes estimate   =    -213.09496278 Ry
     estimated scf accuracy    <       0.00000080 Ry

     iteration #  6     ecut=    95.00 Ry     beta= 0.70
     Davidson diagonalization with overlap
     ethr =  7.27E-09,  avg # of iterations =  1.6

     total cpu time spent up to now is        4.5 secs

     End of self-consistent calculation

          k = 0.0000 0.0000 0.0000 (  1243 PWs)   bands (ev):

     3.2691   9.6780   9.6780   9.6780  10.5105  10.5105  35.5887  37.9892
    37.9892  37.9892

          k =-0.1250 0.1250-0.1250 (  1254 PWs)   bands (ev):

     3.8321   9.5665   9.7725   9.7725  10.4813  10.4813  31.5246  36.1256
    36.7172  36.7172

          k =-0.2500 0.2500-0.2500 (  1257 PWs)   bands (ev):

     5.3930   9.4165   9.8357   9.8357  10.5945  10.5945  25.1184  35.3719
    35.4744  35.4744

          k =-0.3750 0.3750-0.3750 (  1254 PWs)   bands (ev):

     7.1242   9.7140   9.7140  10.0570  10.9213  10.9213  19.5593  34.4103
    34.8794  34.8794

          k = 0.5000-0.5000 0.5000 (  1224 PWs)   bands (ev):

     7.5894   9.6439   9.6439  11.0856  11.0856  11.6290  16.4333  33.9944
    34.7568  34.7568

          k = 0.0000 0.2500 0.0000 (  1259 PWs)   bands (ev):

     4.0178   9.4611   9.8571   9.8571  10.3196  10.5905  33.7008  33.9382
    33.9382  35.7542

          k =-0.1250 0.3750-0.1250 (  1255 PWs)   bands (ev):

     5.2477   9.2448   9.8899  10.0042  10.3887  10.7131  27.5711  32.1407
    33.5087  35.9477

          k =-0.2500 0.5000-0.2500 (  1247 PWs)   bands (ev):

     7.0287   9.2739   9.6504   9.9446  10.9800  11.1287  21.6514  31.4270
    32.1316  33.7896

          k = 0.6250-0.3750 0.6250 (  1235 PWs)   bands (ev):

     7.8491   9.4407   9.8331  10.0089  11.0970  12.7989  17.1128  30.1564
    31.9352  33.5150

          k = 0.5000-0.2500 0.5000 (  1243 PWs)   bands (ev):

     7.7409   9.5136   9.8325   9.8599  10.8777  12.2509  18.3673  29.0001
    33.7361  34.3610

          k = 0.3750-0.1250 0.3750 (  1251 PWs)   bands (ev):

     6.4617   9.2770   9.7221   9.9622  10.4526  11.1695  23.5405  28.9165
    36.2780  36.7256

          k = 0.2500 0.0000 0.2500 (  1265 PWs)   bands (ev):

     4.7348   9.3868   9.8523   9.9317  10.3017  10.6822  29.4337  30.1486
    38.3020  39.3101

          k = 0.0000 0.5000 0.0000 (  1283 PWs)   bands (ev):

     6.0364   8.9522  10.0410  10.3462  10.3462  10.7856  29.7674  29.7674
    31.0547  31.7025

          k =-0.1250 0.6250-0.1250 (  1255 PWs)   bands (ev):

     7.3548   8.7576   9.8587  10.4401  11.0069  11.2717  24.6066  27.8229
    28.5776  32.2189

          k = 0.7500-0.2500 0.7500 (  1240 PWs)   bands (ev):

     8.2409   8.8220   9.6904  10.3231  11.1265  13.6164  19.3765  25.2397
    28.7701  32.3148

          k = 0.6250-0.1250 0.6250 (  1240 PWs)   bands (ev):

     8.4902   9.0068   9.5181  10.2249  10.8984  14.8038  17.9208  23.6475
    30.3670  32.9813

          k = 0.5000 0.0000 0.5000 (  1243 PWs)   bands (ev):

     7.9493   9.1637   9.3737  10.1810  10.5099  12.3899  22.3760  23.5795
    33.1449  34.4489

          k = 0.0000 0.7500 0.0000 (  1250 PWs)   bands (ev):

     7.6652   8.4632  10.9411  10.9411  10.9839  11.4331  24.0856  26.8470
    26.8470  30.5980

          k = 0.8750-0.1250 0.8750 (  1242 PWs)   bands (ev):

     7.9683   8.4159  10.5833  10.8634  11.1687  13.9733  21.4110  22.9125
    26.5694  31.4295

          k = 0.7500 0.0000 0.7500 (  1250 PWs)   bands (ev):

     8.3843   8.6183   9.9310  10.6448  11.0321  16.9920  18.3990  20.5049
    27.8334  31.9889

          k = 0.0000-1.0000 0.0000 (  1234 PWs)   bands (ev):

     7.7963   8.2661  11.0670  11.2302  11.2302  14.1350  19.7842  25.7636
    25.7636  30.2555

          k =-0.2500 0.5000 0.0000 (  1254 PWs)   bands (ev):

     6.6292   9.0310   9.6687  10.3555  10.3941  11.2000  25.9853  26.6640
    31.9573  36.5632

          k = 0.6250-0.3750 0.8750 (  1244 PWs)   bands (ev):

     8.0364   9.0782   9.3980  10.2306  10.8515  12.5430  20.6661  26.1370
    29.0555  36.6300

          k = 0.5000-0.2500 0.7500 (  1244 PWs)   bands (ev):

     8.3648   9.0716   9.5995  10.1281  11.0296  14.7746  16.9265  26.8675
    27.2405  36.3531

          k = 0.7500-0.2500 1.0000 (  1240 PWs)   bands (ev):

     8.0706   8.6432   9.8268  10.7851  10.9377  12.9060  23.5891  24.3175
    24.7487  34.8649

          k = 0.6250-0.1250 0.8750 (  1236 PWs)   bands (ev):

     8.5002   8.7680   9.5672  10.5354  11.1101  16.0030  19.0439  22.4378
    24.6781  35.9911

          k = 0.5000 0.0000 0.7500 (  1237 PWs)   bands (ev):

     8.7372   8.9410   9.1807  10.4219  10.9418  15.1157  19.8449  21.8034
    26.3972  37.1503

          k =-0.2500-1.0000 0.0000 (  1242 PWs)   bands (ev):

     8.1208   8.4828  10.2885  10.8172  11.2306  15.7514  20.0768  22.6823
    23.5905  34.3061

          k =-0.5000-1.0000 0.0000 (  1232 PWs)   bands (ev):

     8.5439   9.1577   9.1577  10.4673  11.2310  18.8662  18.8662  20.9813
    21.4609  41.0726

     the Fermi energy is    12.6356 ev

!    total energy              =    -213.09496264 Ry
     Harris-Foulkes estimate   =    -213.09496264 Ry
     estimated scf accuracy    <          2.9E-10 Ry

     total all-electron energy =     -3309.974729 Ry

     The total energy is the sum of the following terms:

     one-electron contribution =     -28.01726967 Ry
     hartree contribution      =      30.62426401 Ry
     xc contribution           =     -44.62999923 Ry
     ewald contribution        =     -81.22522855 Ry
     one-center paw contrib.   =     -89.84632337 Ry
     smearing contrib. (-TS)   =      -0.00040585 Ry

     convergence has been achieved in   6 iterations

     Forces acting on atoms (cartesian axes, Ry/au):

     atom    1 type  1   force =     0.00000000    0.00000000    0.00000000

     Total force =     0.000000     Total SCF correction =     0.000000


     Computing stress (Cartesian axis) and pressure

          total   stress  (Ry/bohr**3)                   (kbar)     P=   27.45
   0.00018658   0.00000000   0.00000000         27.45      0.00      0.00
   0.00000000   0.00018658  -0.00000000          0.00     27.45     -0.00
   0.00000000  -0.00000000   0.00018658          0.00     -0.00     27.45


     Writing output data file Cu.save/

     init_run     :      0.60s CPU      0.63s WALL (       1 calls)
     electrons    :      2.96s CPU      3.14s WALL (       1 calls)
     forces       :      0.05s CPU      0.05s WALL (       1 calls)
     stress       :      0.17s CPU      0.17s WALL (       1 calls)

     Called by init_run:
     wfcinit      :      0.17s CPU      0.17s WALL (       1 calls)
     potinit      :      0.14s CPU      0.16s WALL (       1 calls)
     hinit0       :      0.25s CPU      0.25s WALL (       1 calls)

     Called by electrons:
     c_bands      :      1.88s CPU      1.95s WALL (       7 calls)
     sum_band     :      0.42s CPU      0.44s WALL (       7 calls)
     v_of_rho     :      0.05s CPU      0.05s WALL (       7 calls)
     newd         :      0.07s CPU      0.09s WALL (       7 calls)
     PAW_pot      :      0.67s CPU      0.77s WALL (       7 calls)
     mix_rho      :      0.00s CPU      0.00s WALL (       7 calls)

     Called by c_bands:
     init_us_2    :      0.08s CPU      0.08s WALL (     493 calls)
     cegterg      :      1.79s CPU      1.85s WALL (     203 calls)

     Called by sum_band:
     sum_band:bec :      0.00s CPU      0.00s WALL (     203 calls)
     addusdens    :      0.06s CPU      0.07s WALL (       7 calls)

     Called by *egterg:
     h_psi        :      1.51s CPU      1.56s WALL (     643 calls)
     s_psi        :      0.05s CPU      0.05s WALL (     643 calls)
     g_psi        :      0.01s CPU      0.01s WALL (     411 calls)
     cdiaghg      :      0.12s CPU      0.12s WALL (     585 calls)

     Called by h_psi:
     h_psi:pot    :      1.51s CPU      1.55s WALL (     643 calls)
     h_psi:calbec :      0.08s CPU      0.08s WALL (     643 calls)
     vloc_psi     :      1.37s CPU      1.41s WALL (     643 calls)
     add_vuspsi   :      0.05s CPU      0.06s WALL (     643 calls)

     General routines
     calbec       :      0.12s CPU      0.13s WALL (     991 calls)
     fft          :      0.04s CPU      0.04s WALL (     104 calls)
     ffts         :      0.00s CPU      0.00s WALL (       7 calls)
     fftw         :      1.53s CPU      1.59s WALL (   12294 calls)

     Parallel routines
     fft_scatt_xy :      0.13s CPU      0.14s WALL (   12405 calls)
     fft_scatt_yz :      0.38s CPU      0.39s WALL (   12405 calls)

     PWSCF        :     4.57s CPU         4.84s WALL


   This run was terminated on:  23:48:44  25Mar2024            

=------------------------------------------------------------------------------=
   JOB DONE.
=------------------------------------------------------------------------------=
