
     Program PWSCF v.6.3MaX starts on 25Mar2024 at 23:18:36 

     This program is part of the open-source Quantum ESPRESSO suite
     for quantum simulation of materials; please cite
         "P. Giannozzi et al., J. Phys.:Condens. Matter 21 395502 (2009);
         "P. Giannozzi et al., J. Phys.:Condens. Matter 29 465901 (2017);
          URL http://www.quantum-espresso.org", 
     in publications or presentations arising from this work. More details at
     http://www.quantum-espresso.org/quote

     Parallel version (MPI), running on     5 processors

     MPI processes distributed on     1 nodes
     R & G space division:  proc/nbgrp/npool/nimage =       5
     Waiting for input...
     Reading input from standard input

     Current dimensions of program PWSCF are:
     Max number of different atomic species (ntypx) = 10
     Max number of k-points (npk) =  40000
     Max angular momentum in pseudopotentials (lmaxx) =  3
               file Cu.pbe-dn-rrkjus_psl.1.0.0.UPF: wavefunction(s)  3D renormalized

     Subspace diagonalization in iterative solution of the eigenvalue problem:
     a serial algorithm will be used


     Parallelization info
     --------------------
     sticks:   dense  smooth     PW     G-vecs:    dense   smooth      PW
     Min          43      43     16                  445      445      91
     Max          45      45     18                  446      446      92
     Sum         223     223     85                 2229     2229     459



     bravais-lattice index     =            2
     lattice parameter (alat)  =       6.8300  a.u.
     unit-cell volume          =      79.6530 (a.u.)^3
     number of atoms/cell      =            1
     number of atomic types    =            1
     number of electrons       =        11.00
     number of Kohn-Sham states=           10
     kinetic-energy cutoff     =      35.0000  Ry
     charge density cutoff     =     140.0000  Ry
     convergence threshold     =      1.0E-08
     mixing beta               =       0.7000
     number of iterations used =            8  plain     mixing
     Exchange-correlation      = PBE ( 1  4  3  4 0 0)

     celldm(1)=   6.830000  celldm(2)=   0.000000  celldm(3)=   0.000000
     celldm(4)=   0.000000  celldm(5)=   0.000000  celldm(6)=   0.000000

     crystal axes: (cart. coord. in units of alat)
               a(1) = (  -0.500000   0.000000   0.500000 )  
               a(2) = (   0.000000   0.500000   0.500000 )  
               a(3) = (  -0.500000   0.500000   0.000000 )  

     reciprocal axes: (cart. coord. in units 2 pi/alat)
               b(1) = ( -1.000000 -1.000000  1.000000 )  
               b(2) = (  1.000000  1.000000  1.000000 )  
               b(3) = ( -1.000000  1.000000 -1.000000 )  


     PseudoPot. # 1 for Cu read from file:
     /home/lorenzo/pseudos/Cu/Cu.pbe-dn-rrkjus_psl.1.0.0.UPF
     MD5 check sum: ba3d6c84e19846e79d48cdc68ff7152b
     Pseudo is Ultrasoft + core correction, Zval = 11.0
     Generated using "atomic" code by A. Dal Corso v.6.3
     Using radial grid of 1199 points,  6 beta functions with: 
                l(1) =   0
                l(2) =   0
                l(3) =   1
                l(4) =   1
                l(5) =   2
                l(6) =   2
     Q(r) pseudized with 0 coefficients 


     atomic species   valence    mass     pseudopotential
        Cu            11.00    63.54600     Cu( 1.00)

     48 Sym. Ops., with inversion, found



   Cartesian axes

     site n.     atom                  positions (alat units)
         1           Cu  tau(   1) = (   0.0000000   0.0000000   0.0000000  )

     number of k points=    16  gaussian smearing, width (Ry)=  0.0100
                       cart. coord. in units 2pi/alat
        k(    1) = (   0.0000000   0.0000000   0.0000000), wk =   0.0092593
        k(    2) = (  -0.1666667   0.1666667  -0.1666667), wk =   0.0740741
        k(    3) = (  -0.3333333   0.3333333  -0.3333333), wk =   0.0740741
        k(    4) = (   0.5000000  -0.5000000   0.5000000), wk =   0.0370370
        k(    5) = (   0.0000000   0.3333333   0.0000000), wk =   0.0555556
        k(    6) = (  -0.1666667   0.5000000  -0.1666667), wk =   0.2222222
        k(    7) = (   0.6666667  -0.3333333   0.6666667), wk =   0.2222222
        k(    8) = (   0.5000000  -0.1666667   0.5000000), wk =   0.2222222
        k(    9) = (   0.3333333   0.0000000   0.3333333), wk =   0.1111111
        k(   10) = (   0.0000000   0.6666667   0.0000000), wk =   0.0555556
        k(   11) = (   0.8333333  -0.1666667   0.8333333), wk =   0.2222222
        k(   12) = (   0.6666667  -0.0000000   0.6666667), wk =   0.1111111
        k(   13) = (   0.0000000  -1.0000000   0.0000000), wk =   0.0277778
        k(   14) = (   0.6666667  -0.3333333   1.0000000), wk =   0.2222222
        k(   15) = (   0.5000000  -0.1666667   0.8333333), wk =   0.2222222
        k(   16) = (  -0.3333333  -1.0000000   0.0000000), wk =   0.1111111

     Dense  grid:     2229 G-vectors     FFT dimensions: (  20,  20,  20)

     Estimated max dynamical RAM per process >       2.85 MB

     Estimated total dynamical RAM >      14.25 MB

     Check: negative/imaginary core charge=   -0.000002    0.000000

     Initial potential from superposition of free atoms

     starting charge   10.99977, renormalised to   11.00000
     Starting wfcs are    9 randomized atomic wfcs +    1 random wfcs

     total cpu time spent up to now is        0.8 secs

     Self-consistent Calculation

     iteration #  1     ecut=    35.00 Ry     beta= 0.70
     Davidson diagonalization with overlap
     ethr =  1.00E-02,  avg # of iterations =  4.0

     Threshold (ethr) on eigenvalues was too large:
     Diagonalizing with lowered threshold

     Davidson diagonalization with overlap
     ethr =  5.31E-04,  avg # of iterations =  1.2

     total cpu time spent up to now is        1.0 secs

     total energy              =    -122.70403311 Ry
     Harris-Foulkes estimate   =    -122.74937532 Ry
     estimated scf accuracy    <       0.05822518 Ry

     iteration #  2     ecut=    35.00 Ry     beta= 0.70
     Davidson diagonalization with overlap
     ethr =  5.29E-04,  avg # of iterations =  2.0

     total cpu time spent up to now is        1.1 secs

     total energy              =    -122.70444773 Ry
     Harris-Foulkes estimate   =    -122.78354713 Ry
     estimated scf accuracy    <       0.20400525 Ry

     iteration #  3     ecut=    35.00 Ry     beta= 0.70
     Davidson diagonalization with overlap
     ethr =  5.29E-04,  avg # of iterations =  2.0

     total cpu time spent up to now is        1.1 secs

     total energy              =    -122.73780581 Ry
     Harris-Foulkes estimate   =    -122.73781038 Ry
     estimated scf accuracy    <       0.00004375 Ry

     iteration #  4     ecut=    35.00 Ry     beta= 0.70
     Davidson diagonalization with overlap
     ethr =  3.98E-07,  avg # of iterations =  2.4

     total cpu time spent up to now is        1.2 secs

     total energy              =    -122.73784644 Ry
     Harris-Foulkes estimate   =    -122.73784914 Ry
     estimated scf accuracy    <       0.00000848 Ry

     iteration #  5     ecut=    35.00 Ry     beta= 0.70
     Davidson diagonalization with overlap
     ethr =  7.71E-08,  avg # of iterations =  1.4

     total cpu time spent up to now is        1.3 secs

     total energy              =    -122.73784817 Ry
     Harris-Foulkes estimate   =    -122.73784836 Ry
     estimated scf accuracy    <       0.00000053 Ry

     iteration #  6     ecut=    35.00 Ry     beta= 0.70
     Davidson diagonalization with overlap
     ethr =  4.85E-09,  avg # of iterations =  1.1

     total cpu time spent up to now is        1.3 secs

     End of self-consistent calculation

          k = 0.0000 0.0000 0.0000 (   283 PWs)   bands (ev):

     3.2782   9.6997   9.6997   9.6997  10.5270  10.5270  35.6004  37.9957
    37.9957  37.9957

          k =-0.1667 0.1667-0.1667 (   277 PWs)   bands (ev):

     4.2670   9.5215   9.8398   9.8398  10.5020  10.5020  29.3663  35.9467
    36.2813  36.2813

          k =-0.3333 0.3333-0.3333 (   287 PWs)   bands (ev):

     6.6607   9.6714   9.7781   9.7781  10.8313  10.8313  21.2969  34.7169
    35.0364  35.0364

          k = 0.5000-0.5000 0.5000 (   272 PWs)   bands (ev):

     7.6082   9.6625   9.6625  11.1053  11.1053  11.6399  16.4515  34.0054
    34.7636  34.7636

          k = 0.0000 0.3333 0.0000 (   291 PWs)   bands (ev):

     4.5893   9.3318  10.0130  10.0130  10.2155  10.6643  32.4693  32.4693
    32.9809  34.6338

          k =-0.1667 0.5000-0.1667 (   286 PWs)   bands (ev):

     6.5566   9.0718   9.7465  10.1406  10.8560  10.9236  24.4866  30.5456
    31.6164  33.4201

          k = 0.6667-0.3333 0.6667 (   277 PWs)   bands (ev):

     8.0354   9.2803   9.7666   9.9898  11.1252  13.1642  17.7041  28.4684
    30.8253  33.1104

          k = 0.5000-0.1667 0.5000 (   280 PWs)   bands (ev):

     7.8501   9.4514   9.5250   9.9807  10.7573  12.3547  19.6869  26.9296
    33.4477  34.4252

          k = 0.3333 0.0000 0.3333 (   279 PWs)   bands (ev):

     5.7870   9.2707   9.8066  10.1282  10.2271  11.0071  26.9362  27.6322
    37.5298  37.9942

          k = 0.0000 0.6667 0.0000 (   274 PWs)   bands (ev):

     7.3765   8.6265  10.6078  10.7754  10.7754  10.9425  26.3691  27.6640
    27.6640  30.9378

          k = 0.8333-0.1667 0.8333 (   272 PWs)   bands (ev):

     8.1017   8.5435  10.2440  10.7191  11.1737  13.8949  21.6433  22.5570
    27.1824  31.7631

          k = 0.6667-0.0000 0.6667 (   284 PWs)   bands (ev):

     8.6555   8.8173   9.5585  10.4537  10.9064  15.9317  18.6103  21.1706
    29.3310  32.5929

          k = 0.0000-1.0000 0.0000 (   286 PWs)   bands (ev):

     7.8132   8.2883  11.0835  11.2524  11.2524  14.1459  19.7987  25.7726
    25.7726  30.2986

          k = 0.6667-0.3333 1.0000 (   274 PWs)   bands (ev):

     8.1340   8.8949   9.4114  10.5713  10.7741  12.6313  22.9558  23.9631
    27.4522  37.4992

          k = 0.5000-0.1667 0.8333 (   274 PWs)   bands (ev):

     8.7751   8.8050   9.3798  10.3817  11.0747  16.2439  17.4782  24.4486
    24.6765  37.7946

          k =-0.3333-1.0000 0.0000 (   274 PWs)   bands (ev):

     8.3310   8.6761   9.8899  10.6765  11.2533  16.7065  20.3478  21.3761
    22.6923  36.4597

     the Fermi energy is    12.6621 ev

!    total energy              =    -122.73784825 Ry
     Harris-Foulkes estimate   =    -122.73784825 Ry
     estimated scf accuracy    <          4.5E-10 Ry

     The total energy is the sum of the following terms:

     one-electron contribution =     -27.50218515 Ry
     hartree contribution      =      30.62232732 Ry
     xc contribution           =     -44.63216250 Ry
     ewald contribution        =     -81.22522863 Ry
     smearing contrib. (-TS)   =      -0.00059930 Ry

     convergence has been achieved in   6 iterations

     Forces acting on atoms (cartesian axes, Ry/au):

     atom    1 type  1   force =     0.00000000    0.00000000    0.00000000

     Total force =     0.000000     Total SCF correction =     0.000000


     Computing stress (Cartesian axis) and pressure

          total   stress  (Ry/bohr**3)                   (kbar)     P=   25.77
   0.00017517  -0.00000000  -0.00000000         25.77     -0.00     -0.00
  -0.00000000   0.00017517   0.00000000         -0.00     25.77      0.00
  -0.00000000   0.00000000   0.00017517         -0.00      0.00     25.77


     Writing output data file Cu.save/

     init_run     :      0.14s CPU      0.14s WALL (       1 calls)
     electrons    :      0.46s CPU      0.51s WALL (       1 calls)
     forces       :      0.01s CPU      0.01s WALL (       1 calls)
     stress       :      0.03s CPU      0.03s WALL (       1 calls)

     Called by init_run:
     wfcinit      :      0.03s CPU      0.03s WALL (       1 calls)
     potinit      :      0.00s CPU      0.00s WALL (       1 calls)
     hinit0       :      0.10s CPU      0.10s WALL (       1 calls)

     Called by electrons:
     c_bands      :      0.36s CPU      0.39s WALL (       7 calls)
     sum_band     :      0.08s CPU      0.09s WALL (       7 calls)
     v_of_rho     :      0.01s CPU      0.01s WALL (       7 calls)
     newd         :      0.01s CPU      0.01s WALL (       7 calls)
     mix_rho      :      0.00s CPU      0.00s WALL (       7 calls)

     Called by c_bands:
     init_us_2    :      0.01s CPU      0.01s WALL (     272 calls)
     cegterg      :      0.35s CPU      0.38s WALL (     112 calls)

     Called by sum_band:
     sum_band:bec :      0.00s CPU      0.00s WALL (     112 calls)
     addusdens    :      0.01s CPU      0.02s WALL (       7 calls)

     Called by *egterg:
     h_psi        :      0.27s CPU      0.30s WALL (     354 calls)
     s_psi        :      0.01s CPU      0.01s WALL (     354 calls)
     g_psi        :      0.00s CPU      0.00s WALL (     226 calls)
     cdiaghg      :      0.06s CPU      0.06s WALL (     322 calls)

     Called by h_psi:
     h_psi:pot    :      0.27s CPU      0.29s WALL (     354 calls)
     h_psi:calbec :      0.01s CPU      0.01s WALL (     354 calls)
     vloc_psi     :      0.25s CPU      0.27s WALL (     354 calls)
     add_vuspsi   :      0.01s CPU      0.01s WALL (     354 calls)

     General routines
     calbec       :      0.02s CPU      0.02s WALL (     546 calls)
     fft          :      0.01s CPU      0.01s WALL (     104 calls)
     ffts         :      0.00s CPU      0.00s WALL (       7 calls)
     fftw         :      0.27s CPU      0.30s WALL (    6740 calls)

     Parallel routines
     fft_scatt_xy :      0.03s CPU      0.03s WALL (    6851 calls)
     fft_scatt_yz :      0.08s CPU      0.09s WALL (    6851 calls)

     PWSCF        :     1.36s CPU         1.46s WALL


   This run was terminated on:  23:18:37  25Mar2024            

=------------------------------------------------------------------------------=
   JOB DONE.
=------------------------------------------------------------------------------=
