
     Program PWSCF v.6.3MaX starts on 25Mar2024 at 23:20:18 

     This program is part of the open-source Quantum ESPRESSO suite
     for quantum simulation of materials; please cite
         "P. Giannozzi et al., J. Phys.:Condens. Matter 21 395502 (2009);
         "P. Giannozzi et al., J. Phys.:Condens. Matter 29 465901 (2017);
          URL http://www.quantum-espresso.org", 
     in publications or presentations arising from this work. More details at
     http://www.quantum-espresso.org/quote

     Parallel version (MPI), running on     5 processors

     MPI processes distributed on     1 nodes
     R & G space division:  proc/nbgrp/npool/nimage =       5
     Waiting for input...
     Reading input from standard input

     Current dimensions of program PWSCF are:
     Max number of different atomic species (ntypx) = 10
     Max number of k-points (npk) =  40000
     Max angular momentum in pseudopotentials (lmaxx) =  3
               file Cu.pbesol-dn-kjpaw_psl.1.0.0.UPF: wavefunction(s)  4S 3D renormalized

     Subspace diagonalization in iterative solution of the eigenvalue problem:
     a serial algorithm will be used


     Parallelization info
     --------------------
     sticks:   dense  smooth     PW     G-vecs:    dense   smooth      PW
     Min          50      50     17                  544      544     107
     Max          51      51     17                  548      548     108
     Sum         253     253     85                 2733     2733     537



     bravais-lattice index     =            2
     lattice parameter (alat)  =       6.8300  a.u.
     unit-cell volume          =      79.6530 (a.u.)^3
     number of atoms/cell      =            1
     number of atomic types    =            1
     number of electrons       =        11.00
     number of Kohn-Sham states=           10
     kinetic-energy cutoff     =      40.0000  Ry
     charge density cutoff     =     160.0000  Ry
     convergence threshold     =      1.0E-08
     mixing beta               =       0.7000
     number of iterations used =            8  plain     mixing
     Exchange-correlation      = SLA PW PSX PSC ( 1  4 10  8 0 0)

     celldm(1)=   6.830000  celldm(2)=   0.000000  celldm(3)=   0.000000
     celldm(4)=   0.000000  celldm(5)=   0.000000  celldm(6)=   0.000000

     crystal axes: (cart. coord. in units of alat)
               a(1) = (  -0.500000   0.000000   0.500000 )  
               a(2) = (   0.000000   0.500000   0.500000 )  
               a(3) = (  -0.500000   0.500000   0.000000 )  

     reciprocal axes: (cart. coord. in units 2 pi/alat)
               b(1) = ( -1.000000 -1.000000  1.000000 )  
               b(2) = (  1.000000  1.000000  1.000000 )  
               b(3) = ( -1.000000  1.000000 -1.000000 )  


     PseudoPot. # 1 for Cu read from file:
     /home/lorenzo/pseudos/Cu/Cu.pbesol-dn-kjpaw_psl.1.0.0.UPF
     MD5 check sum: 1e9735a74797514c934643dbd229f231
     Pseudo is Projector augmented-wave + core cor, Zval = 11.0
     Generated using "atomic" code by A. Dal Corso v.6.3
     Shape of augmentation charge: PSQ
     Using radial grid of 1199 points,  6 beta functions with: 
                l(1) =   0
                l(2) =   0
                l(3) =   1
                l(4) =   1
                l(5) =   2
                l(6) =   2
     Q(r) pseudized with 0 coefficients 


     atomic species   valence    mass     pseudopotential
        Cu            11.00    63.54600     Cu( 1.00)

     48 Sym. Ops., with inversion, found



   Cartesian axes

     site n.     atom                  positions (alat units)
         1           Cu  tau(   1) = (   0.0000000   0.0000000   0.0000000  )

     number of k points=    10  gaussian smearing, width (Ry)=  0.0100
                       cart. coord. in units 2pi/alat
        k(    1) = (   0.0000000   0.0000000   0.0000000), wk =   0.0160000
        k(    2) = (  -0.2000000   0.2000000  -0.2000000), wk =   0.1280000
        k(    3) = (  -0.4000000   0.4000000  -0.4000000), wk =   0.1280000
        k(    4) = (   0.0000000   0.4000000   0.0000000), wk =   0.0960000
        k(    5) = (  -0.2000000   0.6000000  -0.2000000), wk =   0.3840000
        k(    6) = (   0.6000000  -0.2000000   0.6000000), wk =   0.3840000
        k(    7) = (   0.4000000   0.0000000   0.4000000), wk =   0.1920000
        k(    8) = (   0.0000000   0.8000000   0.0000000), wk =   0.0960000
        k(    9) = (   0.8000000   0.0000000   0.8000000), wk =   0.1920000
        k(   10) = (   0.6000000  -0.2000000   1.0000000), wk =   0.3840000

     Dense  grid:     2733 G-vectors     FFT dimensions: (  20,  20,  20)

     Estimated max dynamical RAM per process >       3.24 MB

     Estimated total dynamical RAM >      16.22 MB

     Check: negative/imaginary core charge=   -0.000010    0.000000

     Initial potential from superposition of free atoms

     starting charge   10.99979, renormalised to   11.00000
     Starting wfcs are    9 randomized atomic wfcs +    1 random wfcs
     Checking if some PAW data can be deallocated... 

     total cpu time spent up to now is        1.2 secs

     Self-consistent Calculation

     iteration #  1     ecut=    40.00 Ry     beta= 0.70
     Davidson diagonalization with overlap
     ethr =  1.00E-02,  avg # of iterations =  3.8

     Threshold (ethr) on eigenvalues was too large:
     Diagonalizing with lowered threshold

     Davidson diagonalization with overlap
     ethr =  6.53E-04,  avg # of iterations =  1.0

     total cpu time spent up to now is        1.5 secs

     total energy              =    -210.38017020 Ry
     Harris-Foulkes estimate   =    -210.43716972 Ry
     estimated scf accuracy    <       0.07145758 Ry

     iteration #  2     ecut=    40.00 Ry     beta= 0.70
     Davidson diagonalization with overlap
     ethr =  6.50E-04,  avg # of iterations =  2.0

     total cpu time spent up to now is        1.6 secs

     total energy              =    -210.38423447 Ry
     Harris-Foulkes estimate   =    -210.48498193 Ry
     estimated scf accuracy    <       0.26223209 Ry

     iteration #  3     ecut=    40.00 Ry     beta= 0.70
     Davidson diagonalization with overlap
     ethr =  6.50E-04,  avg # of iterations =  2.2

     total cpu time spent up to now is        1.8 secs

     total energy              =    -210.42380442 Ry
     Harris-Foulkes estimate   =    -210.42401467 Ry
     estimated scf accuracy    <       0.00043466 Ry

     iteration #  4     ecut=    40.00 Ry     beta= 0.70
     Davidson diagonalization with overlap
     ethr =  3.95E-06,  avg # of iterations =  2.1

     total cpu time spent up to now is        2.0 secs

     total energy              =    -210.42394206 Ry
     Harris-Foulkes estimate   =    -210.42395688 Ry
     estimated scf accuracy    <       0.00003781 Ry

     iteration #  5     ecut=    40.00 Ry     beta= 0.70
     Davidson diagonalization with overlap
     ethr =  3.44E-07,  avg # of iterations =  1.2

     total cpu time spent up to now is        2.2 secs

     total energy              =    -210.42394929 Ry
     Harris-Foulkes estimate   =    -210.42394950 Ry
     estimated scf accuracy    <       0.00000055 Ry

     iteration #  6     ecut=    40.00 Ry     beta= 0.70
     Davidson diagonalization with overlap
     ethr =  4.99E-09,  avg # of iterations =  2.8

     total cpu time spent up to now is        2.4 secs

     End of self-consistent calculation

          k = 0.0000 0.0000 0.0000 (   331 PWs)   bands (ev):

     3.0476   9.5382   9.5382   9.5382  10.3819  10.3819  35.3811  37.7561
    37.7561  37.7561

          k =-0.2000 0.2000-0.2000 (   332 PWs)   bands (ev):

     4.4520   9.3071   9.7018   9.7018  10.3796  10.3796  27.4088  35.5303
    35.6729  35.6729

          k =-0.4000 0.4000-0.4000 (   344 PWs)   bands (ev):

     7.1317   9.5522   9.5522  10.2154  10.8485  10.8485  18.4288  34.0582
    34.5938  34.5938

          k = 0.0000 0.4000 0.0000 (   343 PWs)   bands (ev):

     4.9022   9.0278   9.9725   9.9837   9.9837  10.5724  31.0935  31.0935
    32.2029  33.2692

          k =-0.2000 0.6000-0.2000 (   339 PWs)   bands (ev):

     7.2929   8.7893   9.4892  10.0653  10.9205  11.4064  22.0254  28.7853
    29.3359  32.5012

          k = 0.6000-0.2000 0.6000 (   348 PWs)   bands (ev):

     8.0826   9.0392   9.5161   9.9126  10.8214  13.9502  17.1115  25.6568
    30.9775  33.0916

          k = 0.4000 0.0000 0.4000 (   333 PWs)   bands (ev):

     6.4891   9.0260   9.5173  10.0345  10.1279  11.2468  24.8044  25.6028
    35.6989  35.9424

          k = 0.0000 0.8000 0.0000 (   335 PWs)   bands (ev):

     7.5752   8.2444  10.8875  10.9078  10.9078  11.8787  22.6406  26.2329
    26.2329  30.3001

          k = 0.8000 0.0000 0.8000 (   341 PWs)   bands (ev):

     8.0470   8.3575  10.0760  10.6443  10.9728  15.9344  19.6946  20.1888
    26.8836  31.5357

          k = 0.6000-0.2000 1.0000 (   343 PWs)   bands (ev):

     8.3728   8.7411   9.1695  10.4184  10.9026  14.6865  20.7279  22.2313
    24.0622  38.3679

     the Fermi energy is    11.8989 ev

!    total energy              =    -210.42394950 Ry
     Harris-Foulkes estimate   =    -210.42394950 Ry
     estimated scf accuracy    <          6.8E-10 Ry

     total all-electron energy =     -3307.303011 Ry

     The total energy is the sum of the following terms:

     one-electron contribution =     -28.04678597 Ry
     hartree contribution      =      30.57249000 Ry
     xc contribution           =     -44.12304599 Ry
     ewald contribution        =     -81.22522859 Ry
     one-center paw contrib.   =     -87.60111408 Ry
     smearing contrib. (-TS)   =      -0.00026488 Ry

     convergence has been achieved in   6 iterations

     Forces acting on atoms (cartesian axes, Ry/au):

     atom    1 type  1   force =     0.00000000    0.00000000    0.00000000

     Total force =     0.000000     Total SCF correction =     0.000000


     Computing stress (Cartesian axis) and pressure

          total   stress  (Ry/bohr**3)                   (kbar)     P=  -78.32
  -0.00053244   0.00000000   0.00000000        -78.32      0.00      0.00
   0.00000000  -0.00053244  -0.00000000          0.00    -78.32     -0.00
   0.00000000  -0.00000000  -0.00053244          0.00     -0.00    -78.32


     Writing output data file Cu.save/

     init_run     :      0.25s CPU      0.27s WALL (       1 calls)
     electrons    :      1.00s CPU      1.12s WALL (       1 calls)
     forces       :      0.02s CPU      0.02s WALL (       1 calls)
     stress       :      0.04s CPU      0.04s WALL (       1 calls)

     Called by init_run:
     wfcinit      :      0.01s CPU      0.02s WALL (       1 calls)
     potinit      :      0.10s CPU      0.12s WALL (       1 calls)
     hinit0       :      0.12s CPU      0.12s WALL (       1 calls)

     Called by electrons:
     c_bands      :      0.31s CPU      0.33s WALL (       7 calls)
     sum_band     :      0.07s CPU      0.07s WALL (       7 calls)
     v_of_rho     :      0.01s CPU      0.01s WALL (       7 calls)
     newd         :      0.02s CPU      0.02s WALL (       7 calls)
     PAW_pot      :      0.69s CPU      0.79s WALL (       7 calls)
     mix_rho      :      0.00s CPU      0.00s WALL (       7 calls)

     Called by c_bands:
     init_us_2    :      0.01s CPU      0.01s WALL (     170 calls)
     cegterg      :      0.29s CPU      0.32s WALL (      70 calls)

     Called by sum_band:
     sum_band:bec :      0.00s CPU      0.00s WALL (      70 calls)
     addusdens    :      0.02s CPU      0.02s WALL (       7 calls)

     Called by *egterg:
     h_psi        :      0.20s CPU      0.22s WALL (     231 calls)
     s_psi        :      0.01s CPU      0.01s WALL (     231 calls)
     g_psi        :      0.00s CPU      0.00s WALL (     151 calls)
     cdiaghg      :      0.04s CPU      0.05s WALL (     211 calls)

     Called by h_psi:
     h_psi:pot    :      0.20s CPU      0.22s WALL (     231 calls)
     h_psi:calbec :      0.01s CPU      0.01s WALL (     231 calls)
     vloc_psi     :      0.18s CPU      0.20s WALL (     231 calls)
     add_vuspsi   :      0.01s CPU      0.01s WALL (     231 calls)

     General routines
     calbec       :      0.02s CPU      0.02s WALL (     351 calls)
     fft          :      0.01s CPU      0.01s WALL (     104 calls)
     ffts         :      0.00s CPU      0.00s WALL (       7 calls)
     fftw         :      0.20s CPU      0.22s WALL (    4228 calls)

     Parallel routines
     fft_scatt_xy :      0.02s CPU      0.02s WALL (    4339 calls)
     fft_scatt_yz :      0.08s CPU      0.08s WALL (    4339 calls)

     PWSCF        :     2.29s CPU         2.48s WALL


   This run was terminated on:  23:20:21  25Mar2024            

=------------------------------------------------------------------------------=
   JOB DONE.
=------------------------------------------------------------------------------=
