
     Program PWSCF v.6.3MaX starts on 25Mar2024 at 23: 9:26 

     This program is part of the open-source Quantum ESPRESSO suite
     for quantum simulation of materials; please cite
         "P. Giannozzi et al., J. Phys.:Condens. Matter 21 395502 (2009);
         "P. Giannozzi et al., J. Phys.:Condens. Matter 29 465901 (2017);
          URL http://www.quantum-espresso.org", 
     in publications or presentations arising from this work. More details at
     http://www.quantum-espresso.org/quote

     Parallel version (MPI), running on     5 processors

     MPI processes distributed on     1 nodes
     R & G space division:  proc/nbgrp/npool/nimage =       5
     Waiting for input...
     Reading input from standard input

     Current dimensions of program PWSCF are:
     Max number of different atomic species (ntypx) = 10
     Max number of k-points (npk) =  40000
     Max angular momentum in pseudopotentials (lmaxx) =  3
               file Cu.pbesol-dn-rrkjus_psl.1.0.0.UPF: wavefunction(s)  3D renormalized

     Subspace diagonalization in iterative solution of the eigenvalue problem:
     a serial algorithm will be used


     Parallelization info
     --------------------
     sticks:   dense  smooth     PW     G-vecs:    dense   smooth      PW
     Min          12      12      6                   66       66      22
     Max          13      13      7                   67       67      23
     Sum          61      61     31                  331      331     113



     bravais-lattice index     =            2
     lattice parameter (alat)  =       6.8300  a.u.
     unit-cell volume          =      79.6530 (a.u.)^3
     number of atoms/cell      =            1
     number of atomic types    =            1
     number of electrons       =        11.00
     number of Kohn-Sham states=           10
     kinetic-energy cutoff     =      10.0000  Ry
     charge density cutoff     =      40.0000  Ry
     convergence threshold     =      1.0E-08
     mixing beta               =       0.7000
     number of iterations used =            8  plain     mixing
     Exchange-correlation      = PBESOL ( 1  4 10  8 0 0)

     celldm(1)=   6.830000  celldm(2)=   0.000000  celldm(3)=   0.000000
     celldm(4)=   0.000000  celldm(5)=   0.000000  celldm(6)=   0.000000

     crystal axes: (cart. coord. in units of alat)
               a(1) = (  -0.500000   0.000000   0.500000 )  
               a(2) = (   0.000000   0.500000   0.500000 )  
               a(3) = (  -0.500000   0.500000   0.000000 )  

     reciprocal axes: (cart. coord. in units 2 pi/alat)
               b(1) = ( -1.000000 -1.000000  1.000000 )  
               b(2) = (  1.000000  1.000000  1.000000 )  
               b(3) = ( -1.000000  1.000000 -1.000000 )  


     PseudoPot. # 1 for Cu read from file:
     /home/lorenzo/pseudos/Cu/Cu.pbesol-dn-rrkjus_psl.1.0.0.UPF
     MD5 check sum: bfa4c7aafbc42e028d5f4ccf7ceed93d
     Pseudo is Ultrasoft + core correction, Zval = 11.0
     Generated using "atomic" code by A. Dal Corso v.6.3
     Using radial grid of 1199 points,  6 beta functions with: 
                l(1) =   0
                l(2) =   0
                l(3) =   1
                l(4) =   1
                l(5) =   2
                l(6) =   2
     Q(r) pseudized with 0 coefficients 


     atomic species   valence    mass     pseudopotential
        Cu            11.00    63.54600     Cu( 1.00)

     48 Sym. Ops., with inversion, found



   Cartesian axes

     site n.     atom                  positions (alat units)
         1           Cu  tau(   1) = (   0.0000000   0.0000000   0.0000000  )

     number of k points=     8  gaussian smearing, width (Ry)=  0.0100
                       cart. coord. in units 2pi/alat
        k(    1) = (   0.0000000   0.0000000   0.0000000), wk =   0.0312500
        k(    2) = (  -0.2500000   0.2500000  -0.2500000), wk =   0.2500000
        k(    3) = (   0.5000000  -0.5000000   0.5000000), wk =   0.1250000
        k(    4) = (   0.0000000   0.5000000   0.0000000), wk =   0.1875000
        k(    5) = (   0.7500000  -0.2500000   0.7500000), wk =   0.7500000
        k(    6) = (   0.5000000   0.0000000   0.5000000), wk =   0.3750000
        k(    7) = (   0.0000000  -1.0000000   0.0000000), wk =   0.0937500
        k(    8) = (  -0.5000000  -1.0000000   0.0000000), wk =   0.1875000

     Dense  grid:      331 G-vectors     FFT dimensions: (   9,   9,   9)

     Estimated max dynamical RAM per process >       0.81 MB

     Estimated total dynamical RAM >       4.06 MB

     Check: negative/imaginary core charge=   -0.008419    0.000000

     Initial potential from superposition of free atoms

     starting charge   10.99979, renormalised to   11.00000
     Starting wfcs are    9 randomized atomic wfcs +    1 random wfcs

     total cpu time spent up to now is        0.8 secs

     Self-consistent Calculation

     iteration #  1     ecut=    10.00 Ry     beta= 0.70
     Davidson diagonalization with overlap
     ethr =  1.00E-02,  avg # of iterations =  3.4

     total cpu time spent up to now is        0.8 secs

     total energy              =    -103.36154851 Ry
     Harris-Foulkes estimate   =    -117.14709530 Ry
     estimated scf accuracy    <      16.50788637 Ry

     iteration #  2     ecut=    10.00 Ry     beta= 0.70
     Davidson diagonalization with overlap
     ethr =  1.00E-02,  avg # of iterations =  2.8

     total cpu time spent up to now is        0.8 secs

     total energy              =    -109.00130820 Ry
     Harris-Foulkes estimate   =    -109.70218435 Ry
     estimated scf accuracy    <       1.21014945 Ry

     iteration #  3     ecut=    10.00 Ry     beta= 0.70
     Davidson diagonalization with overlap
     ethr =  1.00E-02,  avg # of iterations =  1.1

     total cpu time spent up to now is        0.8 secs

     total energy              =    -109.07630077 Ry
     Harris-Foulkes estimate   =    -109.11612230 Ry
     estimated scf accuracy    <       0.07261970 Ry

     iteration #  4     ecut=    10.00 Ry     beta= 0.70
     Davidson diagonalization with overlap
     ethr =  6.60E-04,  avg # of iterations =  2.0

     total cpu time spent up to now is        0.9 secs

     total energy              =    -109.08659838 Ry
     Harris-Foulkes estimate   =    -109.08893416 Ry
     estimated scf accuracy    <       0.00346137 Ry

     iteration #  5     ecut=    10.00 Ry     beta= 0.70
     Davidson diagonalization with overlap
     ethr =  3.15E-05,  avg # of iterations =  1.8

     total cpu time spent up to now is        0.9 secs

     total energy              =    -109.08712029 Ry
     Harris-Foulkes estimate   =    -109.08714235 Ry
     estimated scf accuracy    <       0.00009425 Ry

     iteration #  6     ecut=    10.00 Ry     beta= 0.70
     Davidson diagonalization with overlap
     ethr =  8.57E-07,  avg # of iterations =  1.5

     total cpu time spent up to now is        0.9 secs

     total energy              =    -109.08710153 Ry
     Harris-Foulkes estimate   =    -109.08712761 Ry
     estimated scf accuracy    <       0.00004488 Ry

     iteration #  7     ecut=    10.00 Ry     beta= 0.70
     Davidson diagonalization with overlap
     ethr =  4.08E-07,  avg # of iterations =  1.8

     total cpu time spent up to now is        0.9 secs

     total energy              =    -109.08710833 Ry
     Harris-Foulkes estimate   =    -109.08710855 Ry
     estimated scf accuracy    <       0.00000015 Ry

     iteration #  8     ecut=    10.00 Ry     beta= 0.70
     Davidson diagonalization with overlap
     ethr =  1.35E-09,  avg # of iterations =  2.5

     total cpu time spent up to now is        1.0 secs

     total energy              =    -109.08710819 Ry
     Harris-Foulkes estimate   =    -109.08710848 Ry
     estimated scf accuracy    <       0.00000002 Ry

     iteration #  9     ecut=    10.00 Ry     beta= 0.70
     Davidson diagonalization with overlap
     ethr =  1.40E-10,  avg # of iterations =  2.1

     total cpu time spent up to now is        1.0 secs

     End of self-consistent calculation

          k = 0.0000 0.0000 0.0000 (    51 PWs)   bands (ev):

    -6.7791  -6.7791  -0.1270  -0.1270  -0.1270   0.6837  29.2511  29.2511
    29.2511  39.8988

          k =-0.2500 0.2500-0.2500 (    46 PWs)   bands (ev):

    -2.8661  -2.8661  -1.9232   3.0556   6.0741   6.0741  21.3141  28.0125
    28.0125  39.1350

          k = 0.5000-0.5000 0.5000 (    40 PWs)   bands (ev):

     0.1804   0.1804   2.6309   9.8806  12.7471  12.7471  12.9801  26.4160
    26.4160  37.0468

          k = 0.0000 0.5000 0.0000 (    43 PWs)   bands (ev):

    -2.0297   2.2167   4.5760   4.5851   5.2354   5.2354  24.3965  24.9981
    24.9981  37.2790

          k = 0.7500-0.2500 0.7500 (    42 PWs)   bands (ev):

    -2.3848   1.8551   3.2304   5.4785  11.3386  11.5696  15.4279  21.3985
    23.5318  36.0018

          k = 0.5000 0.0000 0.5000 (    42 PWs)   bands (ev):

    -0.1460   1.4298   3.8150   4.8514   7.5053  10.7366  18.2470  19.9704
    26.8670  37.4079

          k = 0.0000-1.0000 0.0000 (    40 PWs)   bands (ev):

    -3.4877   0.4327   5.3684  11.6724  14.3820  14.3820  14.6603  20.7299
    20.7299  34.0188

          k =-0.5000-1.0000 0.0000 (    44 PWs)   bands (ev):

    -2.4879  -2.4879  -1.9880   7.8791  13.0411  14.3373  15.6369  15.6369
    19.2364  38.6552

     the Fermi energy is    11.6578 ev

!    total energy              =    -109.08710819 Ry
     Harris-Foulkes estimate   =    -109.08710819 Ry
     estimated scf accuracy    <          2.5E-09 Ry

     The total energy is the sum of the following terms:

     one-electron contribution =      -1.14618586 Ry
     hartree contribution      =      11.99921647 Ry
     xc contribution           =     -38.71325094 Ry
     ewald contribution        =     -81.22522857 Ry
     smearing contrib. (-TS)   =      -0.00165929 Ry

     convergence has been achieved in   9 iterations

     Forces acting on atoms (cartesian axes, Ry/au):

     atom    1 type  1   force =     0.00000000    0.00000000    0.00000000

     Total force =     0.000000     Total SCF correction =     0.000000


     Computing stress (Cartesian axis) and pressure

          total   stress  (Ry/bohr**3)                   (kbar)     P=********
  -0.29064557   0.00000000   0.00000000     -42755.43      0.00      0.00
   0.00000000  -0.29064557  -0.00000000          0.00 -42755.43     -0.00
   0.00000000  -0.00000000  -0.29064557          0.00     -0.00 -42755.43


     Writing output data file Cu.save/

     init_run     :      0.06s CPU      0.06s WALL (       1 calls)
     electrons    :      0.19s CPU      0.22s WALL (       1 calls)
     forces       :      0.00s CPU      0.00s WALL (       1 calls)
     stress       :      0.01s CPU      0.01s WALL (       1 calls)

     Called by init_run:
     wfcinit      :      0.00s CPU      0.00s WALL (       1 calls)
     potinit      :      0.00s CPU      0.00s WALL (       1 calls)
     hinit0       :      0.05s CPU      0.05s WALL (       1 calls)

     Called by electrons:
     c_bands      :      0.15s CPU      0.17s WALL (       9 calls)
     sum_band     :      0.03s CPU      0.04s WALL (       9 calls)
     v_of_rho     :      0.00s CPU      0.00s WALL (      10 calls)
     newd         :      0.00s CPU      0.00s WALL (      10 calls)
     mix_rho      :      0.00s CPU      0.00s WALL (       9 calls)

     Called by c_bands:
     init_us_2    :      0.00s CPU      0.00s WALL (     168 calls)
     cegterg      :      0.14s CPU      0.16s WALL (      72 calls)

     Called by sum_band:
     sum_band:bec :      0.00s CPU      0.00s WALL (      72 calls)
     addusdens    :      0.01s CPU      0.01s WALL (       9 calls)

     Called by *egterg:
     h_psi        :      0.08s CPU      0.09s WALL (     231 calls)
     s_psi        :      0.00s CPU      0.00s WALL (     231 calls)
     g_psi        :      0.00s CPU      0.00s WALL (     151 calls)
     cdiaghg      :      0.04s CPU      0.04s WALL (     223 calls)

     Called by h_psi:
     h_psi:pot    :      0.08s CPU      0.09s WALL (     231 calls)
     h_psi:calbec :      0.01s CPU      0.01s WALL (     231 calls)
     vloc_psi     :      0.07s CPU      0.08s WALL (     231 calls)
     add_vuspsi   :      0.00s CPU      0.00s WALL (     231 calls)

     General routines
     calbec       :      0.01s CPU      0.01s WALL (     343 calls)
     fft          :      0.01s CPU      0.01s WALL (     136 calls)
     ffts         :      0.00s CPU      0.00s WALL (       9 calls)
     fftw         :      0.08s CPU      0.09s WALL (    4290 calls)

     Parallel routines
     fft_scatt_xy :      0.01s CPU      0.01s WALL (    4435 calls)
     fft_scatt_yz :      0.05s CPU      0.06s WALL (    4435 calls)

     PWSCF        :     0.97s CPU         1.05s WALL


   This run was terminated on:  23: 9:27  25Mar2024            

=------------------------------------------------------------------------------=
   JOB DONE.
=------------------------------------------------------------------------------=
