
     Program PWSCF v.6.3MaX starts on 25Mar2024 at 23:26:49 

     This program is part of the open-source Quantum ESPRESSO suite
     for quantum simulation of materials; please cite
         "P. Giannozzi et al., J. Phys.:Condens. Matter 21 395502 (2009);
         "P. Giannozzi et al., J. Phys.:Condens. Matter 29 465901 (2017);
          URL http://www.quantum-espresso.org", 
     in publications or presentations arising from this work. More details at
     http://www.quantum-espresso.org/quote

     Parallel version (MPI), running on     5 processors

     MPI processes distributed on     1 nodes
     R & G space division:  proc/nbgrp/npool/nimage =       5
     Waiting for input...
     Reading input from standard input

     Current dimensions of program PWSCF are:
     Max number of different atomic species (ntypx) = 10
     Max number of k-points (npk) =  40000
     Max angular momentum in pseudopotentials (lmaxx) =  3
               file Cu.pbe-dn-rrkjus_psl.1.0.0.UPF: wavefunction(s)  3D renormalized

     Subspace diagonalization in iterative solution of the eigenvalue problem:
     a serial algorithm will be used


     Parallelization info
     --------------------
     sticks:   dense  smooth     PW     G-vecs:    dense   smooth      PW
     Min          72      72     24                  876      876     173
     Max          73      73     25                  877      877     174
     Sum         361     361    121                 4381     4381     869



     bravais-lattice index     =            2
     lattice parameter (alat)  =       6.8300  a.u.
     unit-cell volume          =      79.6530 (a.u.)^3
     number of atoms/cell      =            1
     number of atomic types    =            1
     number of electrons       =        11.00
     number of Kohn-Sham states=           10
     kinetic-energy cutoff     =      55.0000  Ry
     charge density cutoff     =     220.0000  Ry
     convergence threshold     =      1.0E-08
     mixing beta               =       0.7000
     number of iterations used =            8  plain     mixing
     Exchange-correlation      = PBE ( 1  4  3  4 0 0)

     celldm(1)=   6.830000  celldm(2)=   0.000000  celldm(3)=   0.000000
     celldm(4)=   0.000000  celldm(5)=   0.000000  celldm(6)=   0.000000

     crystal axes: (cart. coord. in units of alat)
               a(1) = (  -0.500000   0.000000   0.500000 )  
               a(2) = (   0.000000   0.500000   0.500000 )  
               a(3) = (  -0.500000   0.500000   0.000000 )  

     reciprocal axes: (cart. coord. in units 2 pi/alat)
               b(1) = ( -1.000000 -1.000000  1.000000 )  
               b(2) = (  1.000000  1.000000  1.000000 )  
               b(3) = ( -1.000000  1.000000 -1.000000 )  


     PseudoPot. # 1 for Cu read from file:
     /home/lorenzo/pseudos/Cu/Cu.pbe-dn-rrkjus_psl.1.0.0.UPF
     MD5 check sum: ba3d6c84e19846e79d48cdc68ff7152b
     Pseudo is Ultrasoft + core correction, Zval = 11.0
     Generated using "atomic" code by A. Dal Corso v.6.3
     Using radial grid of 1199 points,  6 beta functions with: 
                l(1) =   0
                l(2) =   0
                l(3) =   1
                l(4) =   1
                l(5) =   2
                l(6) =   2
     Q(r) pseudized with 0 coefficients 


     atomic species   valence    mass     pseudopotential
        Cu            11.00    63.54600     Cu( 1.00)

     48 Sym. Ops., with inversion, found



   Cartesian axes

     site n.     atom                  positions (alat units)
         1           Cu  tau(   1) = (   0.0000000   0.0000000   0.0000000  )

     number of k points=    16  gaussian smearing, width (Ry)=  0.0100
                       cart. coord. in units 2pi/alat
        k(    1) = (   0.0000000   0.0000000   0.0000000), wk =   0.0092593
        k(    2) = (  -0.1666667   0.1666667  -0.1666667), wk =   0.0740741
        k(    3) = (  -0.3333333   0.3333333  -0.3333333), wk =   0.0740741
        k(    4) = (   0.5000000  -0.5000000   0.5000000), wk =   0.0370370
        k(    5) = (   0.0000000   0.3333333   0.0000000), wk =   0.0555556
        k(    6) = (  -0.1666667   0.5000000  -0.1666667), wk =   0.2222222
        k(    7) = (   0.6666667  -0.3333333   0.6666667), wk =   0.2222222
        k(    8) = (   0.5000000  -0.1666667   0.5000000), wk =   0.2222222
        k(    9) = (   0.3333333   0.0000000   0.3333333), wk =   0.1111111
        k(   10) = (   0.0000000   0.6666667   0.0000000), wk =   0.0555556
        k(   11) = (   0.8333333  -0.1666667   0.8333333), wk =   0.2222222
        k(   12) = (   0.6666667  -0.0000000   0.6666667), wk =   0.1111111
        k(   13) = (   0.0000000  -1.0000000   0.0000000), wk =   0.0277778
        k(   14) = (   0.6666667  -0.3333333   1.0000000), wk =   0.2222222
        k(   15) = (   0.5000000  -0.1666667   0.8333333), wk =   0.2222222
        k(   16) = (  -0.3333333  -1.0000000   0.0000000), wk =   0.1111111

     Dense  grid:     4381 G-vectors     FFT dimensions: (  24,  24,  24)

     Estimated max dynamical RAM per process >       4.86 MB

     Estimated total dynamical RAM >      24.30 MB

     Initial potential from superposition of free atoms

     starting charge   10.99977, renormalised to   11.00000
     Starting wfcs are    9 randomized atomic wfcs +    1 random wfcs

     total cpu time spent up to now is        0.9 secs

     Self-consistent Calculation

     iteration #  1     ecut=    55.00 Ry     beta= 0.70
     Davidson diagonalization with overlap
     ethr =  1.00E-02,  avg # of iterations =  3.8

     Threshold (ethr) on eigenvalues was too large:
     Diagonalizing with lowered threshold

     Davidson diagonalization with overlap
     ethr =  5.54E-04,  avg # of iterations =  1.0

     total cpu time spent up to now is        1.1 secs

     total energy              =    -122.70647905 Ry
     Harris-Foulkes estimate   =    -122.75408337 Ry
     estimated scf accuracy    <       0.06075845 Ry

     iteration #  2     ecut=    55.00 Ry     beta= 0.70
     Davidson diagonalization with overlap
     ethr =  5.52E-04,  avg # of iterations =  2.1

     total cpu time spent up to now is        1.2 secs

     total energy              =    -122.70630771 Ry
     Harris-Foulkes estimate   =    -122.79109362 Ry
     estimated scf accuracy    <       0.22059214 Ry

     iteration #  3     ecut=    55.00 Ry     beta= 0.70
     Davidson diagonalization with overlap
     ethr =  5.52E-04,  avg # of iterations =  2.1

     total cpu time spent up to now is        1.4 secs

     total energy              =    -122.74214845 Ry
     Harris-Foulkes estimate   =    -122.74214986 Ry
     estimated scf accuracy    <       0.00004023 Ry

     iteration #  4     ecut=    55.00 Ry     beta= 0.70
     Davidson diagonalization with overlap
     ethr =  3.66E-07,  avg # of iterations =  2.5

     total cpu time spent up to now is        1.5 secs

     total energy              =    -122.74218835 Ry
     Harris-Foulkes estimate   =    -122.74219060 Ry
     estimated scf accuracy    <       0.00000813 Ry

     iteration #  5     ecut=    55.00 Ry     beta= 0.70
     Davidson diagonalization with overlap
     ethr =  7.39E-08,  avg # of iterations =  1.2

     total cpu time spent up to now is        1.6 secs

     total energy              =    -122.74218988 Ry
     Harris-Foulkes estimate   =    -122.74219000 Ry
     estimated scf accuracy    <       0.00000038 Ry

     iteration #  6     ecut=    55.00 Ry     beta= 0.70
     Davidson diagonalization with overlap
     ethr =  3.47E-09,  avg # of iterations =  1.1

     total cpu time spent up to now is        1.7 secs

     End of self-consistent calculation

          k = 0.0000 0.0000 0.0000 (   537 PWs)   bands (ev):

     3.2757   9.6818   9.6818   9.6818  10.5090  10.5090  35.5983  37.9931
    37.9931  37.9931

          k =-0.1667 0.1667-0.1667 (   552 PWs)   bands (ev):

     4.2642   9.5039   9.8215   9.8215  10.4834  10.4834  29.3426  35.9401
    36.2379  36.2379

          k =-0.3333 0.3333-0.3333 (   555 PWs)   bands (ev):

     6.6545   9.6582   9.7605   9.7605  10.8137  10.8137  21.2811  34.7108
    35.0148  35.0148

          k = 0.5000-0.5000 0.5000 (   568 PWs)   bands (ev):

     7.5948   9.6450   9.6450  11.0864  11.0864  11.6358  16.4361  34.0034
    34.7598  34.7598

          k = 0.0000 0.3333 0.0000 (   548 PWs)   bands (ev):

     4.5864   9.3141   9.9951   9.9951  10.1981  10.6458  32.4482  32.4482
    32.9465  34.6152

          k =-0.1667 0.5000-0.1667 (   556 PWs)   bands (ev):

     6.5518   9.0548   9.7294  10.1229  10.8390  10.9055  24.4685  30.5297
    31.5821  33.3955

          k = 0.6667-0.3333 0.6667 (   548 PWs)   bands (ev):

     8.0221   9.2651   9.7515   9.9724  11.1064  13.1518  17.6908  28.4462
    30.8070  33.0886

          k = 0.5000-0.1667 0.5000 (   549 PWs)   bands (ev):

     7.8397   9.4359   9.5097   9.9634  10.7394  12.3393  19.6727  26.9121
    33.4181  34.4116

          k = 0.3333 0.0000 0.3333 (   554 PWs)   bands (ev):

     5.7834   9.2533   9.7887  10.1099  10.2096  10.9888  26.9089  27.6138
    37.5133  37.9483

          k = 0.0000 0.6667 0.0000 (   556 PWs)   bands (ev):

     7.3677   8.6090  10.5958  10.7566  10.7566  10.9237  26.3343  27.6505
    27.6505  30.8821

          k = 0.8333-0.1667 0.8333 (   548 PWs)   bands (ev):

     8.0876   8.5268  10.2283  10.7011  11.1541  13.8830  21.6293  22.5403
    27.1726  31.7194

          k = 0.6667-0.0000 0.6667 (   544 PWs)   bands (ev):

     8.6397   8.8032   9.5432  10.4369  10.8886  15.9203  18.5965  21.1594
    29.3160  32.5670

          k = 0.0000-1.0000 0.0000 (   524 PWs)   bands (ev):

     7.7986   8.2710  11.0654  11.2335  11.2335  14.1414  19.7860  25.7684
    25.7684  30.2636

          k = 0.6667-0.3333 1.0000 (   549 PWs)   bands (ev):

     8.1241   8.8783   9.3951  10.5540  10.7557  12.6155  22.9349  23.9510
    27.4268  37.4436

          k = 0.5000-0.1667 0.8333 (   552 PWs)   bands (ev):

     8.7602   8.7900   9.3640  10.3645  11.0559  16.2311  17.4653  24.4246
    24.6655  37.7745

          k =-0.3333-1.0000 0.0000 (   534 PWs)   bands (ev):

     8.3162   8.6595   9.8745  10.6591  11.2339  16.6953  20.3319  21.3602
    22.6835  36.4006

     the Fermi energy is    12.6463 ev

!    total energy              =    -122.74218993 Ry
     Harris-Foulkes estimate   =    -122.74218993 Ry
     estimated scf accuracy    <          1.3E-09 Ry

     The total energy is the sum of the following terms:

     one-electron contribution =     -27.50250871 Ry
     hartree contribution      =      30.61425682 Ry
     xc contribution           =     -44.62811006 Ry
     ewald contribution        =     -81.22522864 Ry
     smearing contrib. (-TS)   =      -0.00059934 Ry

     convergence has been achieved in   6 iterations

     Forces acting on atoms (cartesian axes, Ry/au):

     atom    1 type  1   force =     0.00000000    0.00000000    0.00000000

     Total force =     0.000000     Total SCF correction =     0.000000


     Computing stress (Cartesian axis) and pressure

          total   stress  (Ry/bohr**3)                   (kbar)     P=   35.07
   0.00023841  -0.00000000  -0.00000000         35.07     -0.00     -0.00
  -0.00000000   0.00023841   0.00000000         -0.00     35.07      0.00
  -0.00000000   0.00000000   0.00023841         -0.00      0.00     35.07


     Writing output data file Cu.save/

     init_run     :      0.17s CPU      0.18s WALL (       1 calls)
     electrons    :      0.77s CPU      0.83s WALL (       1 calls)
     forces       :      0.03s CPU      0.03s WALL (       1 calls)
     stress       :      0.06s CPU      0.06s WALL (       1 calls)

     Called by init_run:
     wfcinit      :      0.03s CPU      0.04s WALL (       1 calls)
     potinit      :      0.01s CPU      0.01s WALL (       1 calls)
     hinit0       :      0.13s CPU      0.13s WALL (       1 calls)

     Called by electrons:
     c_bands      :      0.57s CPU      0.62s WALL (       7 calls)
     sum_band     :      0.15s CPU      0.15s WALL (       7 calls)
     v_of_rho     :      0.02s CPU      0.02s WALL (       7 calls)
     newd         :      0.03s CPU      0.03s WALL (       7 calls)
     mix_rho      :      0.00s CPU      0.00s WALL (       7 calls)

     Called by c_bands:
     init_us_2    :      0.02s CPU      0.02s WALL (     272 calls)
     cegterg      :      0.55s CPU      0.59s WALL (     112 calls)

     Called by sum_band:
     sum_band:bec :      0.00s CPU      0.00s WALL (     112 calls)
     addusdens    :      0.03s CPU      0.04s WALL (       7 calls)

     Called by *egterg:
     h_psi        :      0.42s CPU      0.46s WALL (     351 calls)
     s_psi        :      0.01s CPU      0.02s WALL (     351 calls)
     g_psi        :      0.00s CPU      0.00s WALL (     223 calls)
     cdiaghg      :      0.06s CPU      0.07s WALL (     319 calls)

     Called by h_psi:
     h_psi:pot    :      0.42s CPU      0.46s WALL (     351 calls)
     h_psi:calbec :      0.02s CPU      0.02s WALL (     351 calls)
     vloc_psi     :      0.39s CPU      0.42s WALL (     351 calls)
     add_vuspsi   :      0.01s CPU      0.01s WALL (     351 calls)

     General routines
     calbec       :      0.04s CPU      0.04s WALL (     543 calls)
     fft          :      0.01s CPU      0.01s WALL (     104 calls)
     ffts         :      0.00s CPU      0.00s WALL (       7 calls)
     fftw         :      0.44s CPU      0.47s WALL (    6750 calls)

     Parallel routines
     fft_scatt_xy :      0.04s CPU      0.04s WALL (    6861 calls)
     fft_scatt_yz :      0.15s CPU      0.16s WALL (    6861 calls)

     PWSCF        :     1.73s CPU         1.84s WALL


   This run was terminated on:  23:26:51  25Mar2024            

=------------------------------------------------------------------------------=
   JOB DONE.
=------------------------------------------------------------------------------=
