
     Program PWSCF v.6.3MaX starts on 25Mar2024 at 23:18:49 

     This program is part of the open-source Quantum ESPRESSO suite
     for quantum simulation of materials; please cite
         "P. Giannozzi et al., J. Phys.:Condens. Matter 21 395502 (2009);
         "P. Giannozzi et al., J. Phys.:Condens. Matter 29 465901 (2017);
          URL http://www.quantum-espresso.org", 
     in publications or presentations arising from this work. More details at
     http://www.quantum-espresso.org/quote

     Parallel version (MPI), running on     5 processors

     MPI processes distributed on     1 nodes
     R & G space division:  proc/nbgrp/npool/nimage =       5
     Waiting for input...
     Reading input from standard input

     Current dimensions of program PWSCF are:
     Max number of different atomic species (ntypx) = 10
     Max number of k-points (npk) =  40000
     Max angular momentum in pseudopotentials (lmaxx) =  3
               file Cu.pbesol-dn-rrkjus_psl.1.0.0.UPF: wavefunction(s)  3D renormalized

     Subspace diagonalization in iterative solution of the eigenvalue problem:
     a serial algorithm will be used


     Parallelization info
     --------------------
     sticks:   dense  smooth     PW     G-vecs:    dense   smooth      PW
     Min          43      43     16                  445      445      91
     Max          45      45     18                  446      446      92
     Sum         223     223     85                 2229     2229     459



     bravais-lattice index     =            2
     lattice parameter (alat)  =       6.8300  a.u.
     unit-cell volume          =      79.6530 (a.u.)^3
     number of atoms/cell      =            1
     number of atomic types    =            1
     number of electrons       =        11.00
     number of Kohn-Sham states=           10
     kinetic-energy cutoff     =      35.0000  Ry
     charge density cutoff     =     140.0000  Ry
     convergence threshold     =      1.0E-08
     mixing beta               =       0.7000
     number of iterations used =            8  plain     mixing
     Exchange-correlation      = PBESOL ( 1  4 10  8 0 0)

     celldm(1)=   6.830000  celldm(2)=   0.000000  celldm(3)=   0.000000
     celldm(4)=   0.000000  celldm(5)=   0.000000  celldm(6)=   0.000000

     crystal axes: (cart. coord. in units of alat)
               a(1) = (  -0.500000   0.000000   0.500000 )  
               a(2) = (   0.000000   0.500000   0.500000 )  
               a(3) = (  -0.500000   0.500000   0.000000 )  

     reciprocal axes: (cart. coord. in units 2 pi/alat)
               b(1) = ( -1.000000 -1.000000  1.000000 )  
               b(2) = (  1.000000  1.000000  1.000000 )  
               b(3) = ( -1.000000  1.000000 -1.000000 )  


     PseudoPot. # 1 for Cu read from file:
     /home/lorenzo/pseudos/Cu/Cu.pbesol-dn-rrkjus_psl.1.0.0.UPF
     MD5 check sum: bfa4c7aafbc42e028d5f4ccf7ceed93d
     Pseudo is Ultrasoft + core correction, Zval = 11.0
     Generated using "atomic" code by A. Dal Corso v.6.3
     Using radial grid of 1199 points,  6 beta functions with: 
                l(1) =   0
                l(2) =   0
                l(3) =   1
                l(4) =   1
                l(5) =   2
                l(6) =   2
     Q(r) pseudized with 0 coefficients 


     atomic species   valence    mass     pseudopotential
        Cu            11.00    63.54600     Cu( 1.00)

     48 Sym. Ops., with inversion, found



   Cartesian axes

     site n.     atom                  positions (alat units)
         1           Cu  tau(   1) = (   0.0000000   0.0000000   0.0000000  )

     number of k points=    20  gaussian smearing, width (Ry)=  0.0100
                       cart. coord. in units 2pi/alat
        k(    1) = (   0.0000000   0.0000000   0.0000000), wk =   0.0058309
        k(    2) = (  -0.1428571   0.1428571  -0.1428571), wk =   0.0466472
        k(    3) = (  -0.2857143   0.2857143  -0.2857143), wk =   0.0466472
        k(    4) = (  -0.4285714   0.4285714  -0.4285714), wk =   0.0466472
        k(    5) = (   0.0000000   0.2857143   0.0000000), wk =   0.0349854
        k(    6) = (  -0.1428571   0.4285714  -0.1428571), wk =   0.1399417
        k(    7) = (  -0.2857143   0.5714286  -0.2857143), wk =   0.1399417
        k(    8) = (   0.5714286  -0.2857143   0.5714286), wk =   0.1399417
        k(    9) = (   0.4285714  -0.1428571   0.4285714), wk =   0.1399417
        k(   10) = (   0.2857143  -0.0000000   0.2857143), wk =   0.0699708
        k(   11) = (   0.0000000   0.5714286   0.0000000), wk =   0.0349854
        k(   12) = (  -0.1428571   0.7142857  -0.1428571), wk =   0.1399417
        k(   13) = (   0.7142857  -0.1428571   0.7142857), wk =   0.1399417
        k(   14) = (   0.5714286   0.0000000   0.5714286), wk =   0.0699708
        k(   15) = (   0.0000000   0.8571429   0.0000000), wk =   0.0349854
        k(   16) = (   0.8571429  -0.0000000   0.8571429), wk =   0.0699708
        k(   17) = (  -0.2857143   0.5714286   0.0000000), wk =   0.1399417
        k(   18) = (   0.5714286  -0.2857143   0.8571429), wk =   0.2798834
        k(   19) = (   0.7142857  -0.1428571   1.0000000), wk =   0.1399417
        k(   20) = (   0.5714286   0.0000000   0.8571429), wk =   0.1399417

     Dense  grid:     2229 G-vectors     FFT dimensions: (  20,  20,  20)

     Estimated max dynamical RAM per process >       2.88 MB

     Estimated total dynamical RAM >      14.42 MB

     Check: negative/imaginary core charge=   -0.000002    0.000000

     Initial potential from superposition of free atoms

     starting charge   10.99979, renormalised to   11.00000
     Starting wfcs are    9 randomized atomic wfcs +    1 random wfcs

     total cpu time spent up to now is        0.8 secs

     Self-consistent Calculation

     iteration #  1     ecut=    35.00 Ry     beta= 0.70
     Davidson diagonalization with overlap
     ethr =  1.00E-02,  avg # of iterations =  3.8

     Threshold (ethr) on eigenvalues was too large:
     Diagonalizing with lowered threshold

     Davidson diagonalization with overlap
     ethr =  6.32E-04,  avg # of iterations =  1.0

     total cpu time spent up to now is        1.0 secs

     total energy              =    -122.36713513 Ry
     Harris-Foulkes estimate   =    -122.42189981 Ry
     estimated scf accuracy    <       0.06921427 Ry

     iteration #  2     ecut=    35.00 Ry     beta= 0.70
     Davidson diagonalization with overlap
     ethr =  6.29E-04,  avg # of iterations =  2.0

     total cpu time spent up to now is        1.1 secs

     total energy              =    -122.36980909 Ry
     Harris-Foulkes estimate   =    -122.46402957 Ry
     estimated scf accuracy    <       0.24258894 Ry

     iteration #  3     ecut=    35.00 Ry     beta= 0.70
     Davidson diagonalization with overlap
     ethr =  6.29E-04,  avg # of iterations =  2.1

     total cpu time spent up to now is        1.2 secs

     total energy              =    -122.40808562 Ry
     Harris-Foulkes estimate   =    -122.40813455 Ry
     estimated scf accuracy    <       0.00011763 Ry

     iteration #  4     ecut=    35.00 Ry     beta= 0.70
     Davidson diagonalization with overlap
     ethr =  1.07E-06,  avg # of iterations =  2.6

     total cpu time spent up to now is        1.3 secs

     total energy              =    -122.40816465 Ry
     Harris-Foulkes estimate   =    -122.40817039 Ry
     estimated scf accuracy    <       0.00001666 Ry

     iteration #  5     ecut=    35.00 Ry     beta= 0.70
     Davidson diagonalization with overlap
     ethr =  1.51E-07,  avg # of iterations =  1.0

     total cpu time spent up to now is        1.4 secs

     total energy              =    -122.40816739 Ry
     Harris-Foulkes estimate   =    -122.40816742 Ry
     estimated scf accuracy    <       0.00000010 Ry

     iteration #  6     ecut=    35.00 Ry     beta= 0.70
     Davidson diagonalization with overlap
     ethr =  9.07E-10,  avg # of iterations =  2.8

     total cpu time spent up to now is        1.5 secs

     End of self-consistent calculation

          k = 0.0000 0.0000 0.0000 (   283 PWs)   bands (ev):

     3.0533   9.5245   9.5245   9.5245  10.3597  10.3597  35.3919  37.7580
    37.7580  37.7580

          k =-0.1429 0.1429-0.1429 (   283 PWs)   bands (ev):

     3.7853   9.3832   9.6407   9.6407  10.3290  10.3290  30.3918  35.8481
    36.3082  36.3082

          k =-0.2857 0.2857-0.2857 (   286 PWs)   bands (ev):

     5.7348   9.2883   9.6553   9.6553  10.5326  10.5326  23.2244  34.8922
    35.0319  35.0319

          k =-0.4286 0.4286-0.4286 (   269 PWs)   bands (ev):

     7.2823   9.5132   9.5132  10.6657  10.8831  10.8831  17.4893  33.9387
    34.5558  34.5558

          k = 0.0000 0.2857 0.0000 (   287 PWs)   bands (ev):

     4.0258   9.2450   9.7581   9.7581  10.1161  10.4633  33.0820  33.0820
    33.2077  35.0872

          k =-0.1429 0.4286-0.1429 (   286 PWs)   bands (ev):

     5.5785   8.9979   9.6743   9.9055  10.3793  10.6431  26.0032  31.1836
    32.7445  34.4017

          k =-0.2857 0.5714-0.2857 (   278 PWs)   bands (ev):

     7.4183   9.1555   9.4637   9.7954  10.9263  11.6211  19.5874  30.3731
    30.7948  33.0922

          k = 0.5714-0.2857 0.5714 (   280 PWs)   bands (ev):

     7.7839   9.2372   9.7089   9.8052  10.8648  13.1430  16.6373  28.3807
    32.0935  33.4877

          k = 0.4286-0.1429 0.4286 (   277 PWs)   bands (ev):

     6.9539   9.1584   9.4577   9.7999  10.4192  11.3886  21.5949  27.7626
    35.0420  35.2272

          k = 0.2857-0.0000 0.2857 (   285 PWs)   bands (ev):

     4.9422   9.1678   9.6852   9.8512  10.1067  10.6404  28.1385  28.8202
    38.3355  38.5936

          k = 0.0000 0.5714 0.0000 (   290 PWs)   bands (ev):

     6.4797   8.6380   9.9584  10.3702  10.3702  10.6991  28.5611  28.5611
    28.8553  31.1452

          k =-0.1429 0.7143-0.1429 (   273 PWs)   bands (ev):

     7.6566   8.4702   9.8465  10.4126  10.9549  11.9659  23.0011  25.2276
    27.5805  31.7562

          k = 0.7143-0.1429 0.7143 (   278 PWs)   bands (ev):

     8.2911   8.5976   9.5412  10.2586  10.9048  15.4923  17.6060  22.7337
    28.5023  32.1323

          k = 0.5714 0.0000 0.5714 (   276 PWs)   bands (ev):

     8.2988   8.9649   9.0971  10.1034  10.5330  13.4322  20.4691  22.1407
    31.1664  33.3160

          k = 0.0000 0.8571 0.0000 (   286 PWs)   bands (ev):

     7.6088   8.1719  10.8906  10.9839  10.9839  12.6594  21.3579  25.8958
    25.8958  30.2134

          k = 0.8571-0.0000 0.8571 (   280 PWs)   bands (ev):

     7.8485   8.2372  10.4356  10.7557  11.0194  15.0769  19.7790  21.8558
    26.2372  31.2759

          k =-0.2857 0.5714 0.0000 (   276 PWs)   bands (ev):

     7.1667   8.7829   9.3790  10.3209  10.3764  11.4795  24.4162  25.1822
    29.7559  36.6986

          k = 0.5714-0.2857 0.8571 (   276 PWs)   bands (ev):

     8.2701   8.8266   9.2203  10.1363  10.8244  13.8307  18.7443  25.0641
    26.7740  36.7956

          k = 0.7143-0.1429 1.0000 (   275 PWs)   bands (ev):

     8.0529   8.4391   9.7712  10.6121  10.9823  14.4697  21.9889  22.2123
    23.2394  35.2022

          k = 0.5714 0.0000 0.8571 (   274 PWs)   bands (ev):

     8.4228   8.7016   9.2629  10.3365  10.9796  17.5366  18.0435  20.7673
    24.1439  36.8295

     the Fermi energy is    12.6391 ev

!    total energy              =    -122.40816743 Ry
     Harris-Foulkes estimate   =    -122.40816743 Ry
     estimated scf accuracy    <          1.3E-09 Ry

     The total energy is the sum of the following terms:

     one-electron contribution =     -27.61376224 Ry
     hartree contribution      =      30.54849139 Ry
     xc contribution           =     -44.11757142 Ry
     ewald contribution        =     -81.22522863 Ry
     smearing contrib. (-TS)   =      -0.00009653 Ry

     convergence has been achieved in   6 iterations

     Forces acting on atoms (cartesian axes, Ry/au):

     atom    1 type  1   force =     0.00000000    0.00000000    0.00000000

     Total force =     0.000000     Total SCF correction =     0.000000


     Computing stress (Cartesian axis) and pressure

          total   stress  (Ry/bohr**3)                   (kbar)     P=  -70.92
  -0.00048212  -0.00000000   0.00000000        -70.92     -0.00      0.00
  -0.00000000  -0.00048212  -0.00000000         -0.00    -70.92     -0.00
  -0.00000000  -0.00000000  -0.00048212         -0.00     -0.00    -70.92


     Writing output data file Cu.save/

     init_run     :      0.13s CPU      0.14s WALL (       1 calls)
     electrons    :      0.61s CPU      0.66s WALL (       1 calls)
     forces       :      0.02s CPU      0.02s WALL (       1 calls)
     stress       :      0.04s CPU      0.04s WALL (       1 calls)

     Called by init_run:
     wfcinit      :      0.03s CPU      0.03s WALL (       1 calls)
     potinit      :      0.00s CPU      0.00s WALL (       1 calls)
     hinit0       :      0.10s CPU      0.10s WALL (       1 calls)

     Called by electrons:
     c_bands      :      0.50s CPU      0.53s WALL (       7 calls)
     sum_band     :      0.10s CPU      0.10s WALL (       7 calls)
     v_of_rho     :      0.01s CPU      0.01s WALL (       7 calls)
     newd         :      0.01s CPU      0.01s WALL (       7 calls)
     mix_rho      :      0.00s CPU      0.00s WALL (       7 calls)

     Called by c_bands:
     init_us_2    :      0.01s CPU      0.01s WALL (     340 calls)
     cegterg      :      0.48s CPU      0.51s WALL (     140 calls)

     Called by sum_band:
     sum_band:bec :      0.00s CPU      0.00s WALL (     140 calls)
     addusdens    :      0.02s CPU      0.02s WALL (       7 calls)

     Called by *egterg:
     h_psi        :      0.36s CPU      0.39s WALL (     465 calls)
     s_psi        :      0.01s CPU      0.01s WALL (     465 calls)
     g_psi        :      0.00s CPU      0.00s WALL (     305 calls)
     cdiaghg      :      0.08s CPU      0.09s WALL (     425 calls)

     Called by h_psi:
     h_psi:pot    :      0.36s CPU      0.38s WALL (     465 calls)
     h_psi:calbec :      0.02s CPU      0.02s WALL (     465 calls)
     vloc_psi     :      0.33s CPU      0.35s WALL (     465 calls)
     add_vuspsi   :      0.01s CPU      0.01s WALL (     465 calls)

     General routines
     calbec       :      0.03s CPU      0.03s WALL (     705 calls)
     fft          :      0.01s CPU      0.01s WALL (     104 calls)
     ffts         :      0.00s CPU      0.00s WALL (       7 calls)
     fftw         :      0.36s CPU      0.39s WALL (    8604 calls)

     Parallel routines
     fft_scatt_xy :      0.03s CPU      0.04s WALL (    8715 calls)
     fft_scatt_yz :      0.11s CPU      0.12s WALL (    8715 calls)

     PWSCF        :     1.51s CPU         1.61s WALL


   This run was terminated on:  23:18:51  25Mar2024            

=------------------------------------------------------------------------------=
   JOB DONE.
=------------------------------------------------------------------------------=
