
     Program PWSCF v.6.3MaX starts on 25Mar2024 at 23:17:44 

     This program is part of the open-source Quantum ESPRESSO suite
     for quantum simulation of materials; please cite
         "P. Giannozzi et al., J. Phys.:Condens. Matter 21 395502 (2009);
         "P. Giannozzi et al., J. Phys.:Condens. Matter 29 465901 (2017);
          URL http://www.quantum-espresso.org", 
     in publications or presentations arising from this work. More details at
     http://www.quantum-espresso.org/quote

     Parallel version (MPI), running on     5 processors

     MPI processes distributed on     1 nodes
     R & G space division:  proc/nbgrp/npool/nimage =       5
     Waiting for input...
     Reading input from standard input

     Current dimensions of program PWSCF are:
     Max number of different atomic species (ntypx) = 10
     Max number of k-points (npk) =  40000
     Max angular momentum in pseudopotentials (lmaxx) =  3
               file Cu.pbesol-dn-kjpaw_psl.1.0.0.UPF: wavefunction(s)  4S 3D renormalized

     Subspace diagonalization in iterative solution of the eigenvalue problem:
     a serial algorithm will be used


     Parallelization info
     --------------------
     sticks:   dense  smooth     PW     G-vecs:    dense   smooth      PW
     Min          43      43     17                  445      445     106
     Max          45      45     17                  446      446     107
     Sum         223     223     85                 2229     2229     531



     bravais-lattice index     =            2
     lattice parameter (alat)  =       6.8300  a.u.
     unit-cell volume          =      79.6530 (a.u.)^3
     number of atoms/cell      =            1
     number of atomic types    =            1
     number of electrons       =        11.00
     number of Kohn-Sham states=           10
     kinetic-energy cutoff     =      35.0000  Ry
     charge density cutoff     =     140.0000  Ry
     convergence threshold     =      1.0E-08
     mixing beta               =       0.7000
     number of iterations used =            8  plain     mixing
     Exchange-correlation      = SLA PW PSX PSC ( 1  4 10  8 0 0)

     celldm(1)=   6.830000  celldm(2)=   0.000000  celldm(3)=   0.000000
     celldm(4)=   0.000000  celldm(5)=   0.000000  celldm(6)=   0.000000

     crystal axes: (cart. coord. in units of alat)
               a(1) = (  -0.500000   0.000000   0.500000 )  
               a(2) = (   0.000000   0.500000   0.500000 )  
               a(3) = (  -0.500000   0.500000   0.000000 )  

     reciprocal axes: (cart. coord. in units 2 pi/alat)
               b(1) = ( -1.000000 -1.000000  1.000000 )  
               b(2) = (  1.000000  1.000000  1.000000 )  
               b(3) = ( -1.000000  1.000000 -1.000000 )  


     PseudoPot. # 1 for Cu read from file:
     /home/lorenzo/pseudos/Cu/Cu.pbesol-dn-kjpaw_psl.1.0.0.UPF
     MD5 check sum: 1e9735a74797514c934643dbd229f231
     Pseudo is Projector augmented-wave + core cor, Zval = 11.0
     Generated using "atomic" code by A. Dal Corso v.6.3
     Shape of augmentation charge: PSQ
     Using radial grid of 1199 points,  6 beta functions with: 
                l(1) =   0
                l(2) =   0
                l(3) =   1
                l(4) =   1
                l(5) =   2
                l(6) =   2
     Q(r) pseudized with 0 coefficients 


     atomic species   valence    mass     pseudopotential
        Cu            11.00    63.54600     Cu( 1.00)

     48 Sym. Ops., with inversion, found



   Cartesian axes

     site n.     atom                  positions (alat units)
         1           Cu  tau(   1) = (   0.0000000   0.0000000   0.0000000  )

     number of k points=    56  gaussian smearing, width (Ry)=  0.0100
                       cart. coord. in units 2pi/alat
        k(    1) = (   0.0000000   0.0000000   0.0000000), wk =   0.0015026
        k(    2) = (  -0.0909091   0.0909091  -0.0909091), wk =   0.0120210
        k(    3) = (  -0.1818182   0.1818182  -0.1818182), wk =   0.0120210
        k(    4) = (  -0.2727273   0.2727273  -0.2727273), wk =   0.0120210
        k(    5) = (  -0.3636364   0.3636364  -0.3636364), wk =   0.0120210
        k(    6) = (  -0.4545455   0.4545455  -0.4545455), wk =   0.0120210
        k(    7) = (   0.0000000   0.1818182   0.0000000), wk =   0.0090158
        k(    8) = (  -0.0909091   0.2727273  -0.0909091), wk =   0.0360631
        k(    9) = (  -0.1818182   0.3636364  -0.1818182), wk =   0.0360631
        k(   10) = (  -0.2727273   0.4545455  -0.2727273), wk =   0.0360631
        k(   11) = (  -0.3636364   0.5454545  -0.3636364), wk =   0.0360631
        k(   12) = (   0.5454545  -0.3636364   0.5454545), wk =   0.0360631
        k(   13) = (   0.4545455  -0.2727273   0.4545455), wk =   0.0360631
        k(   14) = (   0.3636364  -0.1818182   0.3636364), wk =   0.0360631
        k(   15) = (   0.2727273  -0.0909091   0.2727273), wk =   0.0360631
        k(   16) = (   0.1818182  -0.0000000   0.1818182), wk =   0.0180316
        k(   17) = (   0.0000000   0.3636364   0.0000000), wk =   0.0090158
        k(   18) = (  -0.0909091   0.4545455  -0.0909091), wk =   0.0360631
        k(   19) = (  -0.1818182   0.5454545  -0.1818182), wk =   0.0360631
        k(   20) = (  -0.2727273   0.6363636  -0.2727273), wk =   0.0360631
        k(   21) = (   0.6363636  -0.2727273   0.6363636), wk =   0.0360631
        k(   22) = (   0.5454545  -0.1818182   0.5454545), wk =   0.0360631
        k(   23) = (   0.4545455  -0.0909091   0.4545455), wk =   0.0360631
        k(   24) = (   0.3636364   0.0000000   0.3636364), wk =   0.0180316
        k(   25) = (   0.0000000   0.5454545   0.0000000), wk =   0.0090158
        k(   26) = (  -0.0909091   0.6363636  -0.0909091), wk =   0.0360631
        k(   27) = (  -0.1818182   0.7272727  -0.1818182), wk =   0.0360631
        k(   28) = (   0.7272727  -0.1818182   0.7272727), wk =   0.0360631
        k(   29) = (   0.6363636  -0.0909091   0.6363636), wk =   0.0360631
        k(   30) = (   0.5454545   0.0000000   0.5454545), wk =   0.0180316
        k(   31) = (   0.0000000   0.7272727   0.0000000), wk =   0.0090158
        k(   32) = (  -0.0909091   0.8181818  -0.0909091), wk =   0.0360631
        k(   33) = (   0.8181818  -0.0909091   0.8181818), wk =   0.0360631
        k(   34) = (   0.7272727   0.0000000   0.7272727), wk =   0.0180316
        k(   35) = (   0.0000000   0.9090909   0.0000000), wk =   0.0090158
        k(   36) = (   0.9090909  -0.0000000   0.9090909), wk =   0.0180316
        k(   37) = (  -0.1818182   0.3636364   0.0000000), wk =   0.0360631
        k(   38) = (  -0.2727273   0.4545455  -0.0909091), wk =   0.0721262
        k(   39) = (  -0.3636364   0.5454545  -0.1818182), wk =   0.0721262
        k(   40) = (   0.5454545  -0.3636364   0.7272727), wk =   0.0721262
        k(   41) = (  -0.1818182   0.5454545   0.0000000), wk =   0.0360631
        k(   42) = (  -0.2727273   0.6363636  -0.0909091), wk =   0.0721262
        k(   43) = (   0.6363636  -0.2727273   0.8181818), wk =   0.0721262
        k(   44) = (   0.5454545  -0.1818182   0.7272727), wk =   0.0721262
        k(   45) = (   0.4545455  -0.0909091   0.6363636), wk =   0.0721262
        k(   46) = (   0.3636364   0.0000000   0.5454545), wk =   0.0360631
        k(   47) = (  -0.1818182   0.7272727   0.0000000), wk =   0.0360631
        k(   48) = (   0.7272727  -0.1818182   0.9090909), wk =   0.0721262
        k(   49) = (   0.6363636  -0.0909091   0.8181818), wk =   0.0721262
        k(   50) = (   0.5454545   0.0000000   0.7272727), wk =   0.0360631
        k(   51) = (   0.8181818  -0.0909091   1.0000000), wk =   0.0360631
        k(   52) = (   0.7272727   0.0000000   0.9090909), wk =   0.0360631
        k(   53) = (   0.6363636  -0.2727273   1.0000000), wk =   0.0360631
        k(   54) = (   0.5454545  -0.1818182   0.9090909), wk =   0.0721262
        k(   55) = (   0.6363636  -0.0909091   1.0000000), wk =   0.0360631
        k(   56) = (   0.5454545   0.0000000   0.9090909), wk =   0.0360631

     Dense  grid:     2229 G-vectors     FFT dimensions: (  20,  20,  20)

     Estimated max dynamical RAM per process >       3.19 MB

     Estimated total dynamical RAM >      15.93 MB

     Check: negative/imaginary core charge=   -0.000002    0.000000

     Initial potential from superposition of free atoms

     starting charge   10.99979, renormalised to   11.00000
     Starting wfcs are    9 randomized atomic wfcs +    1 random wfcs
     Checking if some PAW data can be deallocated... 

     total cpu time spent up to now is        1.2 secs

     Self-consistent Calculation

     iteration #  1     ecut=    35.00 Ry     beta= 0.70
     Davidson diagonalization with overlap
     ethr =  1.00E-02,  avg # of iterations =  3.8

     Threshold (ethr) on eigenvalues was too large:
     Diagonalizing with lowered threshold

     Davidson diagonalization with overlap
     ethr =  6.56E-04,  avg # of iterations =  1.0

     total cpu time spent up to now is        1.8 secs

     total energy              =    -210.37357826 Ry
     Harris-Foulkes estimate   =    -210.43089042 Ry
     estimated scf accuracy    <       0.07185118 Ry

     iteration #  2     ecut=    35.00 Ry     beta= 0.70
     Davidson diagonalization with overlap
     ethr =  6.53E-04,  avg # of iterations =  2.0

     total cpu time spent up to now is        2.2 secs

     total energy              =    -210.37598558 Ry
     Harris-Foulkes estimate   =    -210.47534393 Ry
     estimated scf accuracy    <       0.25654788 Ry

     iteration #  3     ecut=    35.00 Ry     beta= 0.70
     Davidson diagonalization with overlap
     ethr =  6.53E-04,  avg # of iterations =  2.1

     total cpu time spent up to now is        2.6 secs

     total energy              =    -210.41643541 Ry
     Harris-Foulkes estimate   =    -210.41650038 Ry
     estimated scf accuracy    <       0.00012760 Ry

     iteration #  4     ecut=    35.00 Ry     beta= 0.70
     Davidson diagonalization with overlap
     ethr =  1.16E-06,  avg # of iterations =  2.3

     total cpu time spent up to now is        2.9 secs

     total energy              =    -210.41649729 Ry
     Harris-Foulkes estimate   =    -210.41650768 Ry
     estimated scf accuracy    <       0.00002576 Ry

     iteration #  5     ecut=    35.00 Ry     beta= 0.70
     Davidson diagonalization with overlap
     ethr =  2.34E-07,  avg # of iterations =  1.2

     total cpu time spent up to now is        3.2 secs

     total energy              =    -210.41650236 Ry
     Harris-Foulkes estimate   =    -210.41650269 Ry
     estimated scf accuracy    <       0.00000088 Ry

     iteration #  6     ecut=    35.00 Ry     beta= 0.70
     Davidson diagonalization with overlap
     ethr =  8.00E-09,  avg # of iterations =  1.7

     total cpu time spent up to now is        3.6 secs

     End of self-consistent calculation

          k = 0.0000 0.0000 0.0000 (   283 PWs)   bands (ev):

     3.0442   9.4850   9.4850   9.4850  10.3268  10.3268  35.3807  37.7509
    37.7509  37.7509

          k =-0.0909 0.0909-0.0909 (   280 PWs)   bands (ev):

     3.3441   9.4222   9.5402   9.5402  10.3072  10.3072  33.0822  36.0717
    36.9379  36.9379

          k =-0.1818 0.1818-0.1818 (   283 PWs)   bands (ev):

     4.2140   9.2824   9.6385   9.6385  10.3088  10.3088  28.3417  35.6438
    35.8655  35.8655

          k =-0.2727 0.2727-0.2727 (   286 PWs)   bands (ev):

     5.5209   9.2335   9.6300   9.6300  10.4626  10.4626  23.8208  34.9903
    35.1012  35.1012

          k =-0.3636 0.3636-0.3636 (   281 PWs)   bands (ev):

     6.7964   9.5359   9.5359   9.7166  10.7073  10.7073  19.8039  34.2827
    34.6775  34.6775

          k =-0.4545 0.4545-0.4545 (   269 PWs)   bands (ev):

     7.3357   9.4642   9.4642  10.8778  10.8778  11.0500  16.7791  33.8473
    34.5214  34.5214

          k = 0.0000 0.1818 0.0000 (   283 PWs)   bands (ev):

     3.4435   9.3667   9.5809   9.5809  10.2211  10.3703  34.1842  35.0027
    35.0027  36.3888

          k =-0.0909 0.2727-0.0909 (   285 PWs)   bands (ev):

     4.1228   9.2256   9.6843   9.6936  10.1459  10.4171  30.1230  33.5208
    34.2983  37.4901

          k =-0.1818 0.3636-0.1818 (   288 PWs)   bands (ev):

     5.2935   9.1007   9.6462   9.7382  10.3169  10.5472  25.4850  32.5527
    33.6597  36.4824

          k =-0.2727 0.4545-0.2727 (   281 PWs)   bands (ev):

     6.6375   9.2262   9.5007   9.6711  10.7557  10.7785  21.2657  32.1367
    33.0059  34.4723

          k =-0.3636 0.5455-0.3636 (   275 PWs)   bands (ev):

     7.4111   9.3688   9.5834   9.8718  10.8976  11.6672  17.7513  31.9375
    32.3230  33.6564

          k = 0.5455-0.3636 0.5455 (   271 PWs)   bands (ev):

     7.5412   9.3519   9.5466  10.1657  10.8697  12.3888  16.3719  30.8937
    33.1695  33.8061

          k = 0.4545-0.2727 0.4545 (   277 PWs)   bands (ev):

     7.2537   9.4278   9.5868   9.6930  10.6659  11.4284  18.8155  30.3498
    34.5552  34.6750

          k = 0.3636-0.1818 0.3636 (   283 PWs)   bands (ev):

     6.2147   9.1708   9.5568   9.6864  10.3706  10.8693  22.6217  30.3542
    35.8187  36.7533

          k = 0.2727-0.0909 0.2727 (   284 PWs)   bands (ev):

     4.8606   9.1636   9.6533   9.7409  10.1585  10.5440  26.9989  30.8804
    37.2620  38.6560

          k = 0.1818-0.0000 0.1818 (   285 PWs)   bands (ev):

     3.8345   9.3123   9.6240   9.6261  10.2014  10.3779  31.4059  32.2182
    37.3197  38.8628

          k = 0.0000 0.3636 0.0000 (   291 PWs)   bands (ev):

     4.5930   9.0545   9.8562   9.8562   9.9695  10.4880  31.7004  31.7004
    32.5007  33.9401

          k =-0.0909 0.4545-0.0909 (   290 PWs)   bands (ev):

     5.5576   8.8772   9.7092   9.9849  10.2515  10.5996  27.5479  30.4467
    32.1291  33.3691

          k =-0.1818 0.5455-0.1818 (   282 PWs)   bands (ev):

     6.7873   8.7991   9.4822   9.9682  10.7914  10.9202  23.2064  29.8209
    30.2367  32.8033

          k =-0.2727 0.6364-0.2727 (   278 PWs)   bands (ev):

     7.6884   8.9311   9.4066   9.8813  10.9217  12.1643  19.3490  28.3881
    29.8786  32.6568

          k = 0.6364-0.2727 0.6364 (   275 PWs)   bands (ev):

     7.9469   9.0229   9.5711   9.8112  10.8779  13.8356  16.6386  26.9963
    30.6614  32.9164

          k = 0.5455-0.1818 0.5455 (   278 PWs)   bands (ev):

     7.8750   9.1341   9.4117   9.8023  10.6535  12.8807  18.2666  26.1579
    32.1380  33.6480

          k = 0.4545-0.0909 0.4545 (   279 PWs)   bands (ev):

     7.2201   9.0319   9.3396   9.8688  10.3231  11.6354  21.8917  25.9190
    34.2258  34.9141

          k = 0.3636 0.0000 0.3636 (   285 PWs)   bands (ev):

     5.9715   9.0141   9.5451   9.9853  10.0012  10.9617  25.8198  26.5503
    36.6665  36.7977

          k = 0.0000 0.5455 0.0000 (   290 PWs)   bands (ev):

     6.2367   8.6570   9.8826  10.2651  10.2651  10.6433  28.8978  28.8978
    29.5894  31.2639

          k =-0.0909 0.6364-0.0909 (   282 PWs)   bands (ev):

     7.1045   8.5051   9.8305  10.3576  10.7977  10.9298  25.4832  27.1699
    28.0013  31.7566

          k =-0.1818 0.7273-0.1818 (   273 PWs)   bands (ev):

     7.8042   8.4865   9.6674  10.2895  10.9422  12.4392  21.5433  25.0952
    27.8413  31.8732

          k = 0.7273-0.1818 0.7273 (   275 PWs)   bands (ev):

     8.1918   8.5839   9.5161  10.1937  10.9046  14.6998  18.1016  23.5171
    28.4590  32.1021

          k = 0.6364-0.0909 0.6364 (   274 PWs)   bands (ev):

     8.3695   8.7417   9.2912  10.1144  10.6927  14.8945  18.0262  22.5174
    29.8137  32.6603

          k = 0.5455 0.0000 0.5455 (   275 PWs)   bands (ev):

     8.1210   9.0161   9.0284  10.0372  10.4303  12.9123  21.0611  22.5427
    31.7822  33.6222

          k = 0.0000 0.7273 0.0000 (   278 PWs)   bands (ev):

     7.4030   8.3026  10.7039  10.7039  10.7881  10.9581  24.4799  26.8122
    26.8122  30.5046

          k =-0.0909 0.8182-0.0909 (   276 PWs)   bands (ev):

     7.6657   8.2269  10.4760  10.6860  10.9538  12.6503  22.3380  24.1018
    26.3844  31.1291

          k = 0.8182-0.0909 0.8182 (   278 PWs)   bands (ev):

     7.9486   8.2991  10.0798  10.5792  10.9507  14.9209  20.5326  20.9132
    26.7867  31.5002

          k = 0.7273 0.0000 0.7273 (   276 PWs)   bands (ev):

     8.2725   8.4681   9.6141  10.4021  10.8073  17.1944  17.4790  20.4394
    27.9734  31.9415

          k = 0.0000 0.9091 0.0000 (   286 PWs)   bands (ev):

     7.5973   8.0967  10.8738  11.0014  11.0014  13.3106  20.3787  25.6716
    25.6716  30.1291

          k = 0.9091-0.0000 0.9091 (   280 PWs)   bands (ev):

     7.6945   8.1249  10.7280  10.8167  11.0162  14.4287  19.6570  23.5930
    25.8124  30.9253

          k =-0.1818 0.3636 0.0000 (   288 PWs)   bands (ev):

     4.9555   9.0615   9.6830   9.8675  10.0965  10.5683  28.6754  29.3017
    35.5994  36.0798

          k =-0.2727 0.4545-0.0909 (   284 PWs)   bands (ev):

     6.1902   8.9502   9.5116   9.9126  10.3041  10.9286  24.4372  28.3339
    33.3304  36.2158

          k =-0.3636 0.5455-0.1818 (   280 PWs)   bands (ev):

     7.3534   9.0934   9.3422   9.8203  10.6501  11.6383  20.3872  28.1746
    31.2834  35.6541

          k = 0.5455-0.3636 0.7273 (   275 PWs)   bands (ev):

     7.8011   9.1462   9.6050   9.7481  10.8409  13.0330  17.1502  28.5831
    29.7294  35.2838

          k =-0.1818 0.5455 0.0000 (   283 PWs)   bands (ev):

     6.5410   8.7117   9.5614  10.2657  10.3556  10.9200  26.3905  26.9294
    30.0642  34.3465

          k =-0.2727 0.6364-0.0909 (   277 PWs)   bands (ev):

     7.5627   8.6647   9.3614  10.2217  10.6887  11.8060  22.4629  26.3491
    27.8344  34.7822

          k = 0.6364-0.2727 0.8182 (   277 PWs)   bands (ev):

     8.1255   8.7478   9.3060  10.1021  10.8617  13.5470  18.7966  25.9922
    26.6949  34.9047

          k = 0.5455-0.1818 0.7273 (   276 PWs)   bands (ev):

     8.2827   8.7899   9.3286  10.0237  10.8169  14.9291  16.9882  24.7785
    27.5755  35.4148

          k = 0.4545-0.0909 0.6364 (   278 PWs)   bands (ev):

     8.1216   8.9289   9.0876  10.0635  10.5999  13.0305  19.9527  24.1274
    29.0516  36.4390

          k = 0.3636 0.0000 0.5455 (   276 PWs)   bands (ev):

     7.3224   8.8553   9.2668  10.1327  10.2944  11.6856  23.4922  24.4206
    31.0111  37.9043

          k =-0.1818 0.7273 0.0000 (   281 PWs)   bands (ev):

     7.6362   8.3938   9.8698  10.6788  10.7016  11.9723  24.6471  24.7331
    25.2810  33.1933

          k = 0.7273-0.1818 0.9091 (   277 PWs)   bands (ev):

     8.0227   8.4264   9.6870  10.5055  10.9110  13.8966  21.1540  22.9076
    25.0891  33.9898

          k = 0.6364-0.0909 0.8182 (   276 PWs)   bands (ev):

     8.3314   8.5374   9.4306  10.3299  10.8864  16.4251  17.9098  21.6046
    25.8513  34.5140

          k = 0.5455 0.0000 0.7273 (   278 PWs)   bands (ev):

     8.5547   8.6573   9.1084  10.2151  10.7175  15.0645  19.2159  21.3647
    27.2095  35.3844

          k = 0.8182-0.0909 1.0000 (   276 PWs)   bands (ev):

     7.7849   8.2078  10.3641  10.7553  11.0014  14.2272  20.5906  23.6797
    24.2786  32.6493

          k = 0.7273 0.0000 0.9091 (   278 PWs)   bands (ev):

     8.0169   8.3423   9.9366  10.5703  10.9990  15.9535  19.9419  20.7266
    24.6307  33.7313

          k = 0.6364-0.2727 1.0000 (   278 PWs)   bands (ev):

     8.1901   8.6682   9.1457  10.3853  10.6997  13.3189  21.7563  22.9716
    25.7189  37.7267

          k = 0.5455-0.1818 0.9091 (   275 PWs)   bands (ev):

     8.4665   8.7118   9.0759  10.2592  10.8739  15.5640  18.6715  23.0334
    24.1109  38.1646

          k = 0.6364-0.0909 1.0000 (   275 PWs)   bands (ev):

     8.2062   8.5491   9.4643  10.4294  11.0003  16.0001  20.7949  21.2821
    22.2609  37.0993

          k = 0.5455 0.0000 0.9091 (   272 PWs)   bands (ev):

     8.3692   8.7732   9.1331  10.2949  10.9991  18.1336  18.1642  20.7961
    22.6860  38.4292

     the Fermi energy is    12.5579 ev

!    total energy              =    -210.41650253 Ry
     Harris-Foulkes estimate   =    -210.41650253 Ry
     estimated scf accuracy    <          6.6E-10 Ry

     total all-electron energy =     -3307.295564 Ry

     The total energy is the sum of the following terms:

     one-electron contribution =     -28.00913662 Ry
     hartree contribution      =      30.53660943 Ry
     xc contribution           =     -44.11556956 Ry
     ewald contribution        =     -81.22522863 Ry
     one-center paw contrib.   =     -87.60304333 Ry
     smearing contrib. (-TS)   =      -0.00013382 Ry

     convergence has been achieved in   6 iterations

     Forces acting on atoms (cartesian axes, Ry/au):

     atom    1 type  1   force =     0.00000000    0.00000000    0.00000000

     Total force =     0.000000     Total SCF correction =     0.000000


     Computing stress (Cartesian axis) and pressure

          total   stress  (Ry/bohr**3)                   (kbar)     P=  -79.67
  -0.00054161   0.00000000   0.00000000        -79.67      0.00      0.00
   0.00000000  -0.00054161  -0.00000000          0.00    -79.67     -0.00
   0.00000000  -0.00000000  -0.00054161          0.00     -0.00    -79.67


     Writing output data file Cu.save/

     init_run     :      0.29s CPU      0.32s WALL (       1 calls)
     electrons    :      2.14s CPU      2.37s WALL (       1 calls)
     forces       :      0.02s CPU      0.02s WALL (       1 calls)
     stress       :      0.06s CPU      0.06s WALL (       1 calls)

     Called by init_run:
     wfcinit      :      0.07s CPU      0.08s WALL (       1 calls)
     potinit      :      0.10s CPU      0.11s WALL (       1 calls)
     hinit0       :      0.11s CPU      0.11s WALL (       1 calls)

     Called by electrons:
     c_bands      :      1.32s CPU      1.45s WALL (       7 calls)
     sum_band     :      0.23s CPU      0.27s WALL (       7 calls)
     v_of_rho     :      0.01s CPU      0.01s WALL (       7 calls)
     newd         :      0.02s CPU      0.02s WALL (       7 calls)
     PAW_pot      :      0.65s CPU      0.73s WALL (       7 calls)
     mix_rho      :      0.00s CPU      0.00s WALL (       7 calls)

     Called by c_bands:
     init_us_2    :      0.04s CPU      0.04s WALL (     952 calls)
     cegterg      :      1.27s CPU      1.39s WALL (     392 calls)

     Called by sum_band:
     sum_band:bec :      0.00s CPU      0.00s WALL (     392 calls)
     addusdens    :      0.02s CPU      0.02s WALL (       7 calls)

     Called by *egterg:
     h_psi        :      0.96s CPU      1.05s WALL (    1235 calls)
     s_psi        :      0.03s CPU      0.03s WALL (    1235 calls)
     g_psi        :      0.00s CPU      0.00s WALL (     787 calls)
     cdiaghg      :      0.19s CPU      0.21s WALL (    1123 calls)

     Called by h_psi:
     h_psi:pot    :      0.96s CPU      1.05s WALL (    1235 calls)
     h_psi:calbec :      0.04s CPU      0.05s WALL (    1235 calls)
     vloc_psi     :      0.88s CPU      0.96s WALL (    1235 calls)
     add_vuspsi   :      0.03s CPU      0.03s WALL (    1235 calls)

     General routines
     calbec       :      0.07s CPU      0.08s WALL (    1907 calls)
     fft          :      0.01s CPU      0.01s WALL (     104 calls)
     ffts         :      0.00s CPU      0.00s WALL (       7 calls)
     fftw         :      0.97s CPU      1.07s WALL (   23688 calls)

     Parallel routines
     fft_scatt_xy :      0.09s CPU      0.10s WALL (   23799 calls)
     fft_scatt_yz :      0.32s CPU      0.35s WALL (   23799 calls)

     PWSCF        :     3.39s CPU         3.74s WALL


   This run was terminated on:  23:17:48  25Mar2024            

=------------------------------------------------------------------------------=
   JOB DONE.
=------------------------------------------------------------------------------=
