
     Program PWSCF v.6.3MaX starts on 25Mar2024 at 23:10: 4 

     This program is part of the open-source Quantum ESPRESSO suite
     for quantum simulation of materials; please cite
         "P. Giannozzi et al., J. Phys.:Condens. Matter 21 395502 (2009);
         "P. Giannozzi et al., J. Phys.:Condens. Matter 29 465901 (2017);
          URL http://www.quantum-espresso.org", 
     in publications or presentations arising from this work. More details at
     http://www.quantum-espresso.org/quote

     Parallel version (MPI), running on     5 processors

     MPI processes distributed on     1 nodes
     R & G space division:  proc/nbgrp/npool/nimage =       5
     Waiting for input...
     Reading input from standard input

     Current dimensions of program PWSCF are:
     Max number of different atomic species (ntypx) = 10
     Max number of k-points (npk) =  40000
     Max angular momentum in pseudopotentials (lmaxx) =  3
               file Cu.pbe-dn-rrkjus_psl.1.0.0.UPF: wavefunction(s)  3D renormalized

     Subspace diagonalization in iterative solution of the eigenvalue problem:
     a serial algorithm will be used


     Parallelization info
     --------------------
     sticks:   dense  smooth     PW     G-vecs:    dense   smooth      PW
     Min          12      12      6                   66       66      22
     Max          13      13      7                   67       67      23
     Sum          61      61     31                  331      331     113



     bravais-lattice index     =            2
     lattice parameter (alat)  =       6.8300  a.u.
     unit-cell volume          =      79.6530 (a.u.)^3
     number of atoms/cell      =            1
     number of atomic types    =            1
     number of electrons       =        11.00
     number of Kohn-Sham states=           10
     kinetic-energy cutoff     =      10.0000  Ry
     charge density cutoff     =      40.0000  Ry
     convergence threshold     =      1.0E-08
     mixing beta               =       0.7000
     number of iterations used =            8  plain     mixing
     Exchange-correlation      = PBE ( 1  4  3  4 0 0)

     celldm(1)=   6.830000  celldm(2)=   0.000000  celldm(3)=   0.000000
     celldm(4)=   0.000000  celldm(5)=   0.000000  celldm(6)=   0.000000

     crystal axes: (cart. coord. in units of alat)
               a(1) = (  -0.500000   0.000000   0.500000 )  
               a(2) = (   0.000000   0.500000   0.500000 )  
               a(3) = (  -0.500000   0.500000   0.000000 )  

     reciprocal axes: (cart. coord. in units 2 pi/alat)
               b(1) = ( -1.000000 -1.000000  1.000000 )  
               b(2) = (  1.000000  1.000000  1.000000 )  
               b(3) = ( -1.000000  1.000000 -1.000000 )  


     PseudoPot. # 1 for Cu read from file:
     /home/lorenzo/pseudos/Cu/Cu.pbe-dn-rrkjus_psl.1.0.0.UPF
     MD5 check sum: ba3d6c84e19846e79d48cdc68ff7152b
     Pseudo is Ultrasoft + core correction, Zval = 11.0
     Generated using "atomic" code by A. Dal Corso v.6.3
     Using radial grid of 1199 points,  6 beta functions with: 
                l(1) =   0
                l(2) =   0
                l(3) =   1
                l(4) =   1
                l(5) =   2
                l(6) =   2
     Q(r) pseudized with 0 coefficients 


     atomic species   valence    mass     pseudopotential
        Cu            11.00    63.54600     Cu( 1.00)

     48 Sym. Ops., with inversion, found



   Cartesian axes

     site n.     atom                  positions (alat units)
         1           Cu  tau(   1) = (   0.0000000   0.0000000   0.0000000  )

     number of k points=    35  gaussian smearing, width (Ry)=  0.0100
                       cart. coord. in units 2pi/alat
        k(    1) = (   0.0000000   0.0000000   0.0000000), wk =   0.0027435
        k(    2) = (  -0.1111111   0.1111111  -0.1111111), wk =   0.0219479
        k(    3) = (  -0.2222222   0.2222222  -0.2222222), wk =   0.0219479
        k(    4) = (  -0.3333333   0.3333333  -0.3333333), wk =   0.0219479
        k(    5) = (  -0.4444444   0.4444444  -0.4444444), wk =   0.0219479
        k(    6) = (   0.0000000   0.2222222   0.0000000), wk =   0.0164609
        k(    7) = (  -0.1111111   0.3333333  -0.1111111), wk =   0.0658436
        k(    8) = (  -0.2222222   0.4444444  -0.2222222), wk =   0.0658436
        k(    9) = (  -0.3333333   0.5555556  -0.3333333), wk =   0.0658436
        k(   10) = (   0.5555556  -0.3333333   0.5555556), wk =   0.0658436
        k(   11) = (   0.4444444  -0.2222222   0.4444444), wk =   0.0658436
        k(   12) = (   0.3333333  -0.1111111   0.3333333), wk =   0.0658436
        k(   13) = (   0.2222222  -0.0000000   0.2222222), wk =   0.0329218
        k(   14) = (   0.0000000   0.4444444   0.0000000), wk =   0.0164609
        k(   15) = (  -0.1111111   0.5555556  -0.1111111), wk =   0.0658436
        k(   16) = (  -0.2222222   0.6666667  -0.2222222), wk =   0.0658436
        k(   17) = (   0.6666667  -0.2222222   0.6666667), wk =   0.0658436
        k(   18) = (   0.5555556  -0.1111111   0.5555556), wk =   0.0658436
        k(   19) = (   0.4444444   0.0000000   0.4444444), wk =   0.0329218
        k(   20) = (   0.0000000   0.6666667   0.0000000), wk =   0.0164609
        k(   21) = (  -0.1111111   0.7777778  -0.1111111), wk =   0.0658436
        k(   22) = (   0.7777778  -0.1111111   0.7777778), wk =   0.0658436
        k(   23) = (   0.6666667  -0.0000000   0.6666667), wk =   0.0329218
        k(   24) = (   0.0000000   0.8888889   0.0000000), wk =   0.0164609
        k(   25) = (   0.8888889   0.0000000   0.8888889), wk =   0.0329218
        k(   26) = (  -0.2222222   0.4444444   0.0000000), wk =   0.0658436
        k(   27) = (  -0.3333333   0.5555556  -0.1111111), wk =   0.1316872
        k(   28) = (   0.5555556  -0.3333333   0.7777778), wk =   0.1316872
        k(   29) = (  -0.2222222   0.6666667   0.0000000), wk =   0.0658436
        k(   30) = (   0.6666667  -0.2222222   0.8888889), wk =   0.1316872
        k(   31) = (   0.5555556  -0.1111111   0.7777778), wk =   0.1316872
        k(   32) = (   0.4444444   0.0000000   0.6666667), wk =   0.0658436
        k(   33) = (   0.7777778  -0.1111111   1.0000000), wk =   0.0658436
        k(   34) = (   0.6666667  -0.0000000   0.8888889), wk =   0.0658436
        k(   35) = (   0.5555556  -0.1111111   1.0000000), wk =   0.0658436

     Dense  grid:      331 G-vectors     FFT dimensions: (   9,   9,   9)

     Estimated max dynamical RAM per process >       0.84 MB

     Estimated total dynamical RAM >       4.22 MB

     Check: negative/imaginary core charge=   -0.008472    0.000000

     Initial potential from superposition of free atoms

     starting charge   10.99977, renormalised to   11.00000
     Starting wfcs are    9 randomized atomic wfcs +    1 random wfcs

     total cpu time spent up to now is        0.8 secs

     Self-consistent Calculation

     iteration #  1     ecut=    10.00 Ry     beta= 0.70
     Davidson diagonalization with overlap
     ethr =  1.00E-02,  avg # of iterations =  3.3

     total cpu time spent up to now is        0.9 secs

     total energy              =    -103.64625119 Ry
     Harris-Foulkes estimate   =    -117.63616145 Ry
     estimated scf accuracy    <      16.67050981 Ry

     iteration #  2     ecut=    10.00 Ry     beta= 0.70
     Davidson diagonalization with overlap
     ethr =  1.00E-02,  avg # of iterations =  2.9

     total cpu time spent up to now is        1.0 secs

     total energy              =    -109.33100620 Ry
     Harris-Foulkes estimate   =    -110.01535354 Ry
     estimated scf accuracy    <       1.13029385 Ry

     iteration #  3     ecut=    10.00 Ry     beta= 0.70
     Davidson diagonalization with overlap
     ethr =  1.00E-02,  avg # of iterations =  1.1

     total cpu time spent up to now is        1.1 secs

     total energy              =    -109.38233420 Ry
     Harris-Foulkes estimate   =    -109.42545903 Ry
     estimated scf accuracy    <       0.07426484 Ry

     iteration #  4     ecut=    10.00 Ry     beta= 0.70
     Davidson diagonalization with overlap
     ethr =  6.75E-04,  avg # of iterations =  2.1

     total cpu time spent up to now is        1.2 secs

     total energy              =    -109.39442217 Ry
     Harris-Foulkes estimate   =    -109.39806121 Ry
     estimated scf accuracy    <       0.00504682 Ry

     iteration #  5     ecut=    10.00 Ry     beta= 0.70
     Davidson diagonalization with overlap
     ethr =  4.59E-05,  avg # of iterations =  2.1

     total cpu time spent up to now is        1.3 secs

     total energy              =    -109.39525989 Ry
     Harris-Foulkes estimate   =    -109.39526801 Ry
     estimated scf accuracy    <       0.00005461 Ry

     iteration #  6     ecut=    10.00 Ry     beta= 0.70
     Davidson diagonalization with overlap
     ethr =  4.96E-07,  avg # of iterations =  1.3

     total cpu time spent up to now is        1.3 secs

     total energy              =    -109.39523818 Ry
     Harris-Foulkes estimate   =    -109.39526120 Ry
     estimated scf accuracy    <       0.00003736 Ry

     iteration #  7     ecut=    10.00 Ry     beta= 0.70
     Davidson diagonalization with overlap
     ethr =  3.40E-07,  avg # of iterations =  2.0

     total cpu time spent up to now is        1.4 secs

     total energy              =    -109.39524464 Ry
     Harris-Foulkes estimate   =    -109.39524470 Ry
     estimated scf accuracy    <       0.00000002 Ry

     iteration #  8     ecut=    10.00 Ry     beta= 0.70
     Davidson diagonalization with overlap
     ethr =  1.84E-10,  avg # of iterations =  3.0

     total cpu time spent up to now is        1.6 secs

     total energy              =    -109.39524466 Ry
     Harris-Foulkes estimate   =    -109.39524468 Ry
     estimated scf accuracy    <       0.00000003 Ry

     iteration #  9     ecut=    10.00 Ry     beta= 0.70
     Davidson diagonalization with overlap
     ethr =  1.84E-10,  avg # of iterations =  2.0

     total cpu time spent up to now is        1.7 secs

     End of self-consistent calculation

          k = 0.0000 0.0000 0.0000 (    51 PWs)   bands (ev):

    -7.1219  -7.1219  -0.4182  -0.4182  -0.4182   0.4640  28.9601  28.9601
    28.9601  39.7432

          k =-0.1111 0.1111-0.1111 (    52 PWs)   bands (ev):

    -6.2663  -6.2663  -3.1108  -3.1108  -1.5692   0.9247  27.0496  28.6509
    28.6509  39.9683

          k =-0.2222 0.2222-0.2222 (    46 PWs)   bands (ev):

    -3.0365  -3.0365  -2.1020   2.3267   5.6589   5.6589  22.3848  27.9855
    27.9855  39.3384

          k =-0.3333 0.3333-0.3333 (    43 PWs)   bands (ev):

    -1.1809  -0.1942  -0.1942   4.7858   8.4561   8.4561  17.1285  26.9736
    26.9736  37.8451

          k =-0.4444 0.4444-0.4444 (    40 PWs)   bands (ev):

    -0.0434  -0.0434   2.4359   8.7072  12.4785  12.4785  13.9214  26.2588
    26.2588  36.9735

          k = 0.0000 0.2222 0.0000 (    51 PWs)   bands (ev):

    -6.9259  -6.5433  -2.5834  -2.5834   0.8485   2.1753  27.7250  27.7250
    27.9377  39.2988

          k =-0.1111 0.3333-0.1111 (    47 PWs)   bands (ev):

    -4.8109  -4.2860  -0.4488   2.2057   3.8523   4.3783  24.1684  26.6732
    27.8315  39.3164

          k =-0.2222 0.4444-0.2222 (    44 PWs)   bands (ev):

    -2.9467  -2.7459   3.2601   4.1819   6.3294   7.4926  19.1727  25.6142
    26.8919  37.6736

          k =-0.3333 0.5556-0.3333 (    42 PWs)   bands (ev):

    -3.0136  -1.4732   3.7406   6.5321  10.3677  11.5714  14.8562  25.2130
    25.5128  36.7776

          k = 0.5556-0.3333 0.5556 (    40 PWs)   bands (ev):

     0.0893   0.2778   3.2390   8.8297  11.8294  12.5510  13.8049  24.5928
    25.7709  36.6290

          k = 0.4444-0.2222 0.4444 (    42 PWs)   bands (ev):

    -0.0533   0.2651   0.7668   5.7893   8.4115  10.7327  16.0530  24.4401
    27.0040  37.4121

          k = 0.3333-0.1111 0.3333 (    43 PWs)   bands (ev):

    -0.3291   0.3841   0.9724   3.3237   6.6087   7.5766  20.9021  25.2129
    28.3380  39.0409

          k = 0.2222-0.0000 0.2222 (    43 PWs)   bands (ev):

     0.6203   1.1856   1.6158   3.1296   3.9186   6.7367  25.2558  26.7462
    28.9986  40.8796

          k = 0.0000 0.4444 0.0000 (    43 PWs)   bands (ev):

    -1.9745   2.0408   3.9942   4.4816   4.5690   4.5690  25.1313  25.4745
    25.4745  37.9514

          k =-0.1111 0.5556-0.1111 (    45 PWs)   bands (ev):

    -4.0426   0.4084   1.2103   3.0671   5.1473   5.5655  20.9786  24.1301
    24.6244  36.6290

          k =-0.2222 0.6667-0.2222 (    42 PWs)   bands (ev):

    -2.4459   1.5363   2.9061   4.8137   9.8075  10.9620  16.8989  22.8849
    23.6690  36.0177

          k = 0.6667-0.2222 0.6667 (    41 PWs)   bands (ev):

    -1.6602   2.4607   2.5885   7.2292  11.0939  12.7169  13.9900  21.1337
    24.1911  36.0919

          k = 0.5556-0.1111 0.5556 (    40 PWs)   bands (ev):

     0.5591   2.4555   6.0704   6.5018   8.8121  12.2096  16.0845  20.2162
    25.7289  36.8971

          k = 0.4444 0.0000 0.4444 (    42 PWs)   bands (ev):

    -0.2209   1.0587   3.3757   4.0900   7.0660   9.7982  19.2408  21.1844
    27.3776  37.7528

          k = 0.0000 0.6667 0.0000 (    44 PWs)   bands (ev):

    -3.1075  -2.4515   4.0084   5.8766   6.3492   6.3492  20.4668  22.6693
    22.6693  34.4364

          k =-0.1111 0.7778-0.1111 (    42 PWs)   bands (ev):

    -3.3041  -1.8297   4.1391   7.3425  10.6409  12.0032  17.6970  20.6695
    21.9736  34.6165

          k = 0.7778-0.1111 0.7778 (    40 PWs)   bands (ev):

    -2.3675   1.5884   7.4241   8.4956  11.3727  14.0964  15.5012  18.3418
    22.4402  35.2489

          k = 0.6667-0.0000 0.6667 (    40 PWs)   bands (ev):

    -0.5331   3.2398   4.3973   7.4583  11.3065  12.8680  16.3577  18.6968
    23.7575  36.1670

          k = 0.0000 0.8889 0.0000 (    40 PWs)   bands (ev):

    -3.6904   0.2785   5.1741  10.0919  13.9151  13.9151  15.9361  20.9026
    20.9026  33.8497

          k = 0.8889 0.0000 0.8889 (    40 PWs)   bands (ev):

    -3.5857   0.4110   4.9946  10.8196  14.2251  14.3046  15.1317  19.2036
    20.9307  34.5055

          k =-0.2222 0.4444 0.0000 (    47 PWs)   bands (ev):

    -4.9574  -3.2891   0.9839   1.4880   3.7761   3.9991  22.0649  23.8874
    27.2746  38.3140

          k =-0.3333 0.5556-0.1111 (    42 PWs)   bands (ev):

    -1.4128   0.6391   3.9933   4.4593   8.1724   9.9989  18.0098  22.5174
    25.9966  37.4399

          k = 0.5556-0.3333 0.7778 (    41 PWs)   bands (ev):

    -0.7563   0.3724   2.9980   6.8348  11.0374  12.5813  14.4953  22.3057
    24.4926  36.7125

          k =-0.2222 0.6667 0.0000 (    45 PWs)   bands (ev):

    -4.0939  -1.9961  -1.1934   5.7603   5.8897   9.8619  19.1440  21.2471
    23.1768  35.9291

          k = 0.6667-0.2222 0.8889 (    42 PWs)   bands (ev):

    -2.1779  -1.7457   3.4987   7.4975  11.1358  12.1162  15.9540  19.8598
    21.9966  36.6415

          k = 0.5556-0.1111 0.7778 (    42 PWs)   bands (ev):

    -1.3257  -0.5471   3.2337   6.1902  10.5820  12.9156  15.4813  18.3312
    22.5081  36.9528

          k = 0.4444 0.0000 0.6667 (    43 PWs)   bands (ev):

    -1.7407  -1.6285   2.9355   6.0094   7.2512  11.6168  17.3757  18.5704
    24.1223  37.1141

          k = 0.7778-0.1111 1.0000 (    41 PWs)   bands (ev):

    -3.3299  -0.9851   4.6914   8.6547  13.4626  13.9607  15.6246  19.5388
    20.3384  35.4318

          k = 0.6667-0.0000 0.8889 (    40 PWs)   bands (ev):

    -1.6224  -1.0744   7.1494  10.3462  13.4333  13.7216  15.8983  17.0574
    20.7865  36.6677

          k = 0.5556-0.1111 1.0000 (    41 PWs)   bands (ev):

    -1.9548  -1.9049   4.7924   9.4146  13.0748  13.5836  16.5641  17.1067
    20.0674  38.1043

     the Fermi energy is    12.4388 ev

!    total energy              =    -109.39524467 Ry
     Harris-Foulkes estimate   =    -109.39524467 Ry
     estimated scf accuracy    <          1.8E-11 Ry

     The total energy is the sum of the following terms:

     one-electron contribution =      -0.82779544 Ry
     hartree contribution      =      11.78886274 Ry
     xc contribution           =     -39.13073656 Ry
     ewald contribution        =     -81.22522857 Ry
     smearing contrib. (-TS)   =      -0.00034684 Ry

     convergence has been achieved in   9 iterations

     Forces acting on atoms (cartesian axes, Ry/au):

     atom    1 type  1   force =     0.00000000    0.00000000    0.00000000

     Total force =     0.000000     Total SCF correction =     0.000000


     Computing stress (Cartesian axis) and pressure

          total   stress  (Ry/bohr**3)                   (kbar)     P=********
  -0.28785185  -0.00000000  -0.00000000     -42344.46     -0.00     -0.00
  -0.00000000  -0.28785185   0.00000000         -0.00 -42344.46      0.00
  -0.00000000   0.00000000  -0.28785185         -0.00      0.00 -42344.46


     Writing output data file Cu.save/

     init_run     :      0.06s CPU      0.07s WALL (       1 calls)
     electrons    :      0.75s CPU      0.89s WALL (       1 calls)
     forces       :      0.01s CPU      0.01s WALL (       1 calls)
     stress       :      0.01s CPU      0.01s WALL (       1 calls)

     Called by init_run:
     wfcinit      :      0.01s CPU      0.02s WALL (       1 calls)
     potinit      :      0.00s CPU      0.00s WALL (       1 calls)
     hinit0       :      0.05s CPU      0.05s WALL (       1 calls)

     Called by electrons:
     c_bands      :      0.67s CPU      0.78s WALL (       9 calls)
     sum_band     :      0.06s CPU      0.09s WALL (       9 calls)
     v_of_rho     :      0.00s CPU      0.00s WALL (      10 calls)
     newd         :      0.00s CPU      0.00s WALL (      10 calls)
     mix_rho      :      0.00s CPU      0.00s WALL (       9 calls)

     Called by c_bands:
     init_us_2    :      0.01s CPU      0.01s WALL (     735 calls)
     cegterg      :      0.65s CPU      0.76s WALL (     315 calls)

     Called by sum_band:
     sum_band:bec :      0.00s CPU      0.00s WALL (     315 calls)
     addusdens    :      0.00s CPU      0.00s WALL (       9 calls)

     Called by *egterg:
     h_psi        :      0.35s CPU      0.42s WALL (    1042 calls)
     s_psi        :      0.01s CPU      0.01s WALL (    1042 calls)
     g_psi        :      0.00s CPU      0.00s WALL (     692 calls)
     cdiaghg      :      0.20s CPU      0.23s WALL (    1007 calls)

     Called by h_psi:
     h_psi:pot    :      0.35s CPU      0.42s WALL (    1042 calls)
     h_psi:calbec :      0.03s CPU      0.03s WALL (    1042 calls)
     vloc_psi     :      0.31s CPU      0.36s WALL (    1042 calls)
     add_vuspsi   :      0.01s CPU      0.02s WALL (    1042 calls)

     General routines
     calbec       :      0.03s CPU      0.04s WALL (    1532 calls)
     fft          :      0.00s CPU      0.00s WALL (     136 calls)
     ffts         :      0.00s CPU      0.00s WALL (       9 calls)
     fftw         :      0.31s CPU      0.38s WALL (   19424 calls)

     Parallel routines
     fft_scatt_xy :      0.04s CPU      0.04s WALL (   19569 calls)
     fft_scatt_yz :      0.14s CPU      0.16s WALL (   19569 calls)

     PWSCF        :     1.60s CPU         1.81s WALL


   This run was terminated on:  23:10: 5  25Mar2024            

=------------------------------------------------------------------------------=
   JOB DONE.
=------------------------------------------------------------------------------=
