
     Program PWSCF v.6.3MaX starts on 25Mar2024 at 23:47:54 

     This program is part of the open-source Quantum ESPRESSO suite
     for quantum simulation of materials; please cite
         "P. Giannozzi et al., J. Phys.:Condens. Matter 21 395502 (2009);
         "P. Giannozzi et al., J. Phys.:Condens. Matter 29 465901 (2017);
          URL http://www.quantum-espresso.org", 
     in publications or presentations arising from this work. More details at
     http://www.quantum-espresso.org/quote

     Parallel version (MPI), running on     5 processors

     MPI processes distributed on     1 nodes
     R & G space division:  proc/nbgrp/npool/nimage =       5
     Waiting for input...
     Reading input from standard input

     Current dimensions of program PWSCF are:
     Max number of different atomic species (ntypx) = 10
     Max number of k-points (npk) =  40000
     Max angular momentum in pseudopotentials (lmaxx) =  3
               file Cu.pbe-dn-kjpaw_psl.1.0.0.UPF: wavefunction(s)  4S 3D renormalized

     Subspace diagonalization in iterative solution of the eigenvalue problem:
     a serial algorithm will be used


     Parallelization info
     --------------------
     sticks:   dense  smooth     PW     G-vecs:    dense   smooth      PW
     Min         119     119     37                 1967     1967     337
     Max         119     119     38                 1969     1969     338
     Sum         595     595    187                 9841     9841    1687



     bravais-lattice index     =            2
     lattice parameter (alat)  =       6.8300  a.u.
     unit-cell volume          =      79.6530 (a.u.)^3
     number of atoms/cell      =            1
     number of atomic types    =            1
     number of electrons       =        11.00
     number of Kohn-Sham states=           10
     kinetic-energy cutoff     =      95.0000  Ry
     charge density cutoff     =     380.0000  Ry
     convergence threshold     =      1.0E-08
     mixing beta               =       0.7000
     number of iterations used =            8  plain     mixing
     Exchange-correlation      = SLA PW PBX PBC ( 1  4  3  4 0 0)

     celldm(1)=   6.830000  celldm(2)=   0.000000  celldm(3)=   0.000000
     celldm(4)=   0.000000  celldm(5)=   0.000000  celldm(6)=   0.000000

     crystal axes: (cart. coord. in units of alat)
               a(1) = (  -0.500000   0.000000   0.500000 )  
               a(2) = (   0.000000   0.500000   0.500000 )  
               a(3) = (  -0.500000   0.500000   0.000000 )  

     reciprocal axes: (cart. coord. in units 2 pi/alat)
               b(1) = ( -1.000000 -1.000000  1.000000 )  
               b(2) = (  1.000000  1.000000  1.000000 )  
               b(3) = ( -1.000000  1.000000 -1.000000 )  


     PseudoPot. # 1 for Cu read from file:
     /home/lorenzo/pseudos/Cu/Cu.pbe-dn-kjpaw_psl.1.0.0.UPF
     MD5 check sum: cfffd1f38ee05704b3e17f46f1730a6f
     Pseudo is Projector augmented-wave + core cor, Zval = 11.0
     Generated using "atomic" code by A. Dal Corso v.6.3
     Shape of augmentation charge: PSQ
     Using radial grid of 1199 points,  6 beta functions with: 
                l(1) =   0
                l(2) =   0
                l(3) =   1
                l(4) =   1
                l(5) =   2
                l(6) =   2
     Q(r) pseudized with 0 coefficients 


     atomic species   valence    mass     pseudopotential
        Cu            11.00    63.54600     Cu( 1.00)

     48 Sym. Ops., with inversion, found



   Cartesian axes

     site n.     atom                  positions (alat units)
         1           Cu  tau(   1) = (   0.0000000   0.0000000   0.0000000  )

     number of k points=    10  gaussian smearing, width (Ry)=  0.0100
                       cart. coord. in units 2pi/alat
        k(    1) = (   0.0000000   0.0000000   0.0000000), wk =   0.0160000
        k(    2) = (  -0.2000000   0.2000000  -0.2000000), wk =   0.1280000
        k(    3) = (  -0.4000000   0.4000000  -0.4000000), wk =   0.1280000
        k(    4) = (   0.0000000   0.4000000   0.0000000), wk =   0.0960000
        k(    5) = (  -0.2000000   0.6000000  -0.2000000), wk =   0.3840000
        k(    6) = (   0.6000000  -0.2000000   0.6000000), wk =   0.3840000
        k(    7) = (   0.4000000   0.0000000   0.4000000), wk =   0.1920000
        k(    8) = (   0.0000000   0.8000000   0.0000000), wk =   0.0960000
        k(    9) = (   0.8000000   0.0000000   0.8000000), wk =   0.1920000
        k(   10) = (   0.6000000  -0.2000000   1.0000000), wk =   0.3840000

     Dense  grid:     9841 G-vectors     FFT dimensions: (  30,  30,  30)

     Estimated max dynamical RAM per process >       9.42 MB

     Estimated total dynamical RAM >      47.08 MB

     Initial potential from superposition of free atoms

     starting charge   10.99977, renormalised to   11.00000
     Starting wfcs are    9 randomized atomic wfcs +    1 random wfcs
     Checking if some PAW data can be deallocated... 

     total cpu time spent up to now is        1.2 secs

     Self-consistent Calculation

     iteration #  1     ecut=    95.00 Ry     beta= 0.70
     Davidson diagonalization with overlap
     ethr =  1.00E-02,  avg # of iterations =  3.5

     Threshold (ethr) on eigenvalues was too large:
     Diagonalizing with lowered threshold

     Davidson diagonalization with overlap
     ethr =  5.47E-04,  avg # of iterations =  1.0

     total cpu time spent up to now is        1.7 secs

     total energy              =    -213.06830752 Ry
     Harris-Foulkes estimate   =    -213.11537324 Ry
     estimated scf accuracy    <       0.05979405 Ry

     iteration #  2     ecut=    95.00 Ry     beta= 0.70
     Davidson diagonalization with overlap
     ethr =  5.44E-04,  avg # of iterations =  2.2

     total cpu time spent up to now is        2.0 secs

     total energy              =    -213.07116047 Ry
     Harris-Foulkes estimate   =    -213.15445888 Ry
     estimated scf accuracy    <       0.21638460 Ry

     iteration #  3     ecut=    95.00 Ry     beta= 0.70
     Davidson diagonalization with overlap
     ethr =  5.44E-04,  avg # of iterations =  2.0

     total cpu time spent up to now is        2.3 secs

     total energy              =    -213.10443266 Ry
     Harris-Foulkes estimate   =    -213.10454366 Ry
     estimated scf accuracy    <       0.00022763 Ry

     iteration #  4     ecut=    95.00 Ry     beta= 0.70
     Davidson diagonalization with overlap
     ethr =  2.07E-06,  avg # of iterations =  2.5

     total cpu time spent up to now is        2.6 secs

     total energy              =    -213.10451810 Ry
     Harris-Foulkes estimate   =    -213.10452976 Ry
     estimated scf accuracy    <       0.00003286 Ry

     iteration #  5     ecut=    95.00 Ry     beta= 0.70
     Davidson diagonalization with overlap
     ethr =  2.99E-07,  avg # of iterations =  1.2

     total cpu time spent up to now is        2.8 secs

     total energy              =    -213.10452400 Ry
     Harris-Foulkes estimate   =    -213.10452413 Ry
     estimated scf accuracy    <       0.00000033 Ry

     iteration #  6     ecut=    95.00 Ry     beta= 0.70
     Davidson diagonalization with overlap
     ethr =  3.04E-09,  avg # of iterations =  2.7

     total cpu time spent up to now is        3.1 secs

     End of self-consistent calculation

          k = 0.0000 0.0000 0.0000 (  1243 PWs)   bands (ev):

     3.2725   9.7153   9.7153   9.7153  10.5489  10.5489  35.5891  37.9941
    37.9941  37.9941

          k =-0.2000 0.2000-0.2000 (  1254 PWs)   bands (ev):

     4.6765   9.4869   9.8776   9.8776  10.5481  10.5481  27.6241  35.7371
    35.9024  35.9024

          k =-0.4000 0.4000-0.4000 (  1251 PWs)   bands (ev):

     7.3376   9.7267   9.7267  10.4227  11.0173  11.0173  18.6383  34.2653
    34.8362  34.8362

          k = 0.0000 0.4000 0.0000 (  1263 PWs)   bands (ev):

     5.1263   9.2076  10.1440  10.1598  10.1598  10.7387  31.3250  31.3250
    32.4023  33.4708

          k =-0.2000 0.6000-0.2000 (  1252 PWs)   bands (ev):

     7.5038   8.9728   9.6678  10.2381  11.0882  11.5885  22.2418  28.9986
    29.5699  32.7101

          k = 0.6000-0.2000 0.6000 (  1242 PWs)   bands (ev):

     8.2766   9.2192   9.7017  10.0851  10.9912  14.1517  17.3200  25.8748
    31.2111  33.3034

          k = 0.4000 0.0000 0.4000 (  1251 PWs)   bands (ev):

     6.7098   9.2075   9.6928  10.2046  10.3025  11.4193  25.0162  25.8235
    35.9277  36.1585

          k = 0.0000 0.8000 0.0000 (  1246 PWs)   bands (ev):

     7.7667   8.4270  11.0523  11.0791  11.0791  12.0921  22.8494  26.4708
    26.4708  30.4865

          k = 0.8000 0.0000 0.8000 (  1248 PWs)   bands (ev):

     8.2306   8.5423  10.2581  10.8112  11.1435  16.1502  19.8989  20.4094
    27.1205  31.7331

          k = 0.6000-0.2000 1.0000 (  1231 PWs)   bands (ev):

     8.5594   8.9251   9.3542  10.5875  11.0739  14.8902  20.9437  22.4493
    24.2797  38.5799

     the Fermi energy is    12.1124 ev

!    total energy              =    -213.10452413 Ry
     Harris-Foulkes estimate   =    -213.10452413 Ry
     estimated scf accuracy    <          4.5E-10 Ry

     total all-electron energy =     -3309.984290 Ry

     The total energy is the sum of the following terms:

     one-electron contribution =     -28.04875827 Ry
     hartree contribution      =      30.64876848 Ry
     xc contribution           =     -44.63479939 Ry
     ewald contribution        =     -81.22522855 Ry
     one-center paw contrib.   =     -89.84424153 Ry
     smearing contrib. (-TS)   =      -0.00026488 Ry

     convergence has been achieved in   6 iterations

     Forces acting on atoms (cartesian axes, Ry/au):

     atom    1 type  1   force =     0.00000000    0.00000000    0.00000000

     Total force =     0.000000     Total SCF correction =     0.000000


     Computing stress (Cartesian axis) and pressure

          total   stress  (Ry/bohr**3)                   (kbar)     P=   12.21
   0.00008301  -0.00000000  -0.00000000         12.21     -0.00     -0.00
  -0.00000000   0.00008301   0.00000000         -0.00     12.21      0.00
  -0.00000000   0.00000000   0.00008301         -0.00      0.00     12.21


     Writing output data file Cu.save/

     init_run     :      0.37s CPU      0.39s WALL (       1 calls)
     electrons    :      1.75s CPU      1.85s WALL (       1 calls)
     forces       :      0.03s CPU      0.04s WALL (       1 calls)
     stress       :      0.12s CPU      0.12s WALL (       1 calls)

     Called by init_run:
     wfcinit      :      0.03s CPU      0.03s WALL (       1 calls)
     potinit      :      0.10s CPU      0.12s WALL (       1 calls)
     hinit0       :      0.20s CPU      0.20s WALL (       1 calls)

     Called by electrons:
     c_bands      :      0.80s CPU      0.82s WALL (       7 calls)
     sum_band     :      0.23s CPU      0.23s WALL (       7 calls)
     v_of_rho     :      0.04s CPU      0.04s WALL (       7 calls)
     newd         :      0.07s CPU      0.08s WALL (       7 calls)
     PAW_pot      :      0.70s CPU      0.79s WALL (       7 calls)
     mix_rho      :      0.00s CPU      0.00s WALL (       7 calls)

     Called by c_bands:
     init_us_2    :      0.03s CPU      0.03s WALL (     170 calls)
     cegterg      :      0.76s CPU      0.78s WALL (      70 calls)

     Called by sum_band:
     sum_band:bec :      0.00s CPU      0.00s WALL (      70 calls)
     addusdens    :      0.07s CPU      0.07s WALL (       7 calls)

     Called by *egterg:
     h_psi        :      0.61s CPU      0.63s WALL (     231 calls)
     s_psi        :      0.02s CPU      0.02s WALL (     231 calls)
     g_psi        :      0.00s CPU      0.00s WALL (     151 calls)
     cdiaghg      :      0.05s CPU      0.05s WALL (     211 calls)

     Called by h_psi:
     h_psi:pot    :      0.61s CPU      0.63s WALL (     231 calls)
     h_psi:calbec :      0.04s CPU      0.04s WALL (     231 calls)
     vloc_psi     :      0.55s CPU      0.56s WALL (     231 calls)
     add_vuspsi   :      0.02s CPU      0.02s WALL (     231 calls)

     General routines
     calbec       :      0.06s CPU      0.06s WALL (     351 calls)
     fft          :      0.03s CPU      0.03s WALL (     104 calls)
     ffts         :      0.00s CPU      0.00s WALL (       7 calls)
     fftw         :      0.61s CPU      0.63s WALL (    4282 calls)

     Parallel routines
     fft_scatt_xy :      0.05s CPU      0.05s WALL (    4393 calls)
     fft_scatt_yz :      0.19s CPU      0.20s WALL (    4393 calls)

     PWSCF        :     3.11s CPU         3.29s WALL


   This run was terminated on:  23:47:58  25Mar2024            

=------------------------------------------------------------------------------=
   JOB DONE.
=------------------------------------------------------------------------------=
