
     Program PWSCF v.6.3MaX starts on 25Mar2024 at 23:21:32 

     This program is part of the open-source Quantum ESPRESSO suite
     for quantum simulation of materials; please cite
         "P. Giannozzi et al., J. Phys.:Condens. Matter 21 395502 (2009);
         "P. Giannozzi et al., J. Phys.:Condens. Matter 29 465901 (2017);
          URL http://www.quantum-espresso.org", 
     in publications or presentations arising from this work. More details at
     http://www.quantum-espresso.org/quote

     Parallel version (MPI), running on     5 processors

     MPI processes distributed on     1 nodes
     R & G space division:  proc/nbgrp/npool/nimage =       5
     Waiting for input...
     Reading input from standard input

     Current dimensions of program PWSCF are:
     Max number of different atomic species (ntypx) = 10
     Max number of k-points (npk) =  40000
     Max angular momentum in pseudopotentials (lmaxx) =  3
               file Cu.pbesol-dn-kjpaw_psl.1.0.0.UPF: wavefunction(s)  4S 3D renormalized

     Subspace diagonalization in iterative solution of the eigenvalue problem:
     a serial algorithm will be used


     Parallelization info
     --------------------
     sticks:   dense  smooth     PW     G-vecs:    dense   smooth      PW
     Min          59      59     19                  657      657     128
     Max          59      59     20                  658      658     130
     Sum         295     295     97                 3287     3287     645



     bravais-lattice index     =            2
     lattice parameter (alat)  =       6.8300  a.u.
     unit-cell volume          =      79.6530 (a.u.)^3
     number of atoms/cell      =            1
     number of atomic types    =            1
     number of electrons       =        11.00
     number of Kohn-Sham states=           10
     kinetic-energy cutoff     =      45.0000  Ry
     charge density cutoff     =     180.0000  Ry
     convergence threshold     =      1.0E-08
     mixing beta               =       0.7000
     number of iterations used =            8  plain     mixing
     Exchange-correlation      = SLA PW PSX PSC ( 1  4 10  8 0 0)

     celldm(1)=   6.830000  celldm(2)=   0.000000  celldm(3)=   0.000000
     celldm(4)=   0.000000  celldm(5)=   0.000000  celldm(6)=   0.000000

     crystal axes: (cart. coord. in units of alat)
               a(1) = (  -0.500000   0.000000   0.500000 )  
               a(2) = (   0.000000   0.500000   0.500000 )  
               a(3) = (  -0.500000   0.500000   0.000000 )  

     reciprocal axes: (cart. coord. in units 2 pi/alat)
               b(1) = ( -1.000000 -1.000000  1.000000 )  
               b(2) = (  1.000000  1.000000  1.000000 )  
               b(3) = ( -1.000000  1.000000 -1.000000 )  


     PseudoPot. # 1 for Cu read from file:
     /home/lorenzo/pseudos/Cu/Cu.pbesol-dn-kjpaw_psl.1.0.0.UPF
     MD5 check sum: 1e9735a74797514c934643dbd229f231
     Pseudo is Projector augmented-wave + core cor, Zval = 11.0
     Generated using "atomic" code by A. Dal Corso v.6.3
     Shape of augmentation charge: PSQ
     Using radial grid of 1199 points,  6 beta functions with: 
                l(1) =   0
                l(2) =   0
                l(3) =   1
                l(4) =   1
                l(5) =   2
                l(6) =   2
     Q(r) pseudized with 0 coefficients 


     atomic species   valence    mass     pseudopotential
        Cu            11.00    63.54600     Cu( 1.00)

     48 Sym. Ops., with inversion, found



   Cartesian axes

     site n.     atom                  positions (alat units)
         1           Cu  tau(   1) = (   0.0000000   0.0000000   0.0000000  )

     number of k points=    56  gaussian smearing, width (Ry)=  0.0100
                       cart. coord. in units 2pi/alat
        k(    1) = (   0.0000000   0.0000000   0.0000000), wk =   0.0015026
        k(    2) = (  -0.0909091   0.0909091  -0.0909091), wk =   0.0120210
        k(    3) = (  -0.1818182   0.1818182  -0.1818182), wk =   0.0120210
        k(    4) = (  -0.2727273   0.2727273  -0.2727273), wk =   0.0120210
        k(    5) = (  -0.3636364   0.3636364  -0.3636364), wk =   0.0120210
        k(    6) = (  -0.4545455   0.4545455  -0.4545455), wk =   0.0120210
        k(    7) = (   0.0000000   0.1818182   0.0000000), wk =   0.0090158
        k(    8) = (  -0.0909091   0.2727273  -0.0909091), wk =   0.0360631
        k(    9) = (  -0.1818182   0.3636364  -0.1818182), wk =   0.0360631
        k(   10) = (  -0.2727273   0.4545455  -0.2727273), wk =   0.0360631
        k(   11) = (  -0.3636364   0.5454545  -0.3636364), wk =   0.0360631
        k(   12) = (   0.5454545  -0.3636364   0.5454545), wk =   0.0360631
        k(   13) = (   0.4545455  -0.2727273   0.4545455), wk =   0.0360631
        k(   14) = (   0.3636364  -0.1818182   0.3636364), wk =   0.0360631
        k(   15) = (   0.2727273  -0.0909091   0.2727273), wk =   0.0360631
        k(   16) = (   0.1818182  -0.0000000   0.1818182), wk =   0.0180316
        k(   17) = (   0.0000000   0.3636364   0.0000000), wk =   0.0090158
        k(   18) = (  -0.0909091   0.4545455  -0.0909091), wk =   0.0360631
        k(   19) = (  -0.1818182   0.5454545  -0.1818182), wk =   0.0360631
        k(   20) = (  -0.2727273   0.6363636  -0.2727273), wk =   0.0360631
        k(   21) = (   0.6363636  -0.2727273   0.6363636), wk =   0.0360631
        k(   22) = (   0.5454545  -0.1818182   0.5454545), wk =   0.0360631
        k(   23) = (   0.4545455  -0.0909091   0.4545455), wk =   0.0360631
        k(   24) = (   0.3636364   0.0000000   0.3636364), wk =   0.0180316
        k(   25) = (   0.0000000   0.5454545   0.0000000), wk =   0.0090158
        k(   26) = (  -0.0909091   0.6363636  -0.0909091), wk =   0.0360631
        k(   27) = (  -0.1818182   0.7272727  -0.1818182), wk =   0.0360631
        k(   28) = (   0.7272727  -0.1818182   0.7272727), wk =   0.0360631
        k(   29) = (   0.6363636  -0.0909091   0.6363636), wk =   0.0360631
        k(   30) = (   0.5454545   0.0000000   0.5454545), wk =   0.0180316
        k(   31) = (   0.0000000   0.7272727   0.0000000), wk =   0.0090158
        k(   32) = (  -0.0909091   0.8181818  -0.0909091), wk =   0.0360631
        k(   33) = (   0.8181818  -0.0909091   0.8181818), wk =   0.0360631
        k(   34) = (   0.7272727   0.0000000   0.7272727), wk =   0.0180316
        k(   35) = (   0.0000000   0.9090909   0.0000000), wk =   0.0090158
        k(   36) = (   0.9090909  -0.0000000   0.9090909), wk =   0.0180316
        k(   37) = (  -0.1818182   0.3636364   0.0000000), wk =   0.0360631
        k(   38) = (  -0.2727273   0.4545455  -0.0909091), wk =   0.0721262
        k(   39) = (  -0.3636364   0.5454545  -0.1818182), wk =   0.0721262
        k(   40) = (   0.5454545  -0.3636364   0.7272727), wk =   0.0721262
        k(   41) = (  -0.1818182   0.5454545   0.0000000), wk =   0.0360631
        k(   42) = (  -0.2727273   0.6363636  -0.0909091), wk =   0.0721262
        k(   43) = (   0.6363636  -0.2727273   0.8181818), wk =   0.0721262
        k(   44) = (   0.5454545  -0.1818182   0.7272727), wk =   0.0721262
        k(   45) = (   0.4545455  -0.0909091   0.6363636), wk =   0.0721262
        k(   46) = (   0.3636364   0.0000000   0.5454545), wk =   0.0360631
        k(   47) = (  -0.1818182   0.7272727   0.0000000), wk =   0.0360631
        k(   48) = (   0.7272727  -0.1818182   0.9090909), wk =   0.0721262
        k(   49) = (   0.6363636  -0.0909091   0.8181818), wk =   0.0721262
        k(   50) = (   0.5454545   0.0000000   0.7272727), wk =   0.0360631
        k(   51) = (   0.8181818  -0.0909091   1.0000000), wk =   0.0360631
        k(   52) = (   0.7272727   0.0000000   0.9090909), wk =   0.0360631
        k(   53) = (   0.6363636  -0.2727273   1.0000000), wk =   0.0360631
        k(   54) = (   0.5454545  -0.1818182   0.9090909), wk =   0.0721262
        k(   55) = (   0.6363636  -0.0909091   1.0000000), wk =   0.0360631
        k(   56) = (   0.5454545   0.0000000   0.9090909), wk =   0.0360631

     Dense  grid:     3287 G-vectors     FFT dimensions: (  24,  24,  24)

     Estimated max dynamical RAM per process >       4.38 MB

     Estimated total dynamical RAM >      21.92 MB

     Check: negative/imaginary core charge=   -0.000008    0.000000

     Initial potential from superposition of free atoms

     starting charge   10.99979, renormalised to   11.00000
     Starting wfcs are    9 randomized atomic wfcs +    1 random wfcs
     Checking if some PAW data can be deallocated... 

     total cpu time spent up to now is        1.2 secs

     Self-consistent Calculation

     iteration #  1     ecut=    45.00 Ry     beta= 0.70
     Davidson diagonalization with overlap
     ethr =  1.00E-02,  avg # of iterations =  3.8

     Threshold (ethr) on eigenvalues was too large:
     Diagonalizing with lowered threshold

     Davidson diagonalization with overlap
     ethr =  6.76E-04,  avg # of iterations =  1.1

     total cpu time spent up to now is        2.0 secs

     total energy              =    -210.37404023 Ry
     Harris-Foulkes estimate   =    -210.43320016 Ry
     estimated scf accuracy    <       0.07403307 Ry

     iteration #  2     ecut=    45.00 Ry     beta= 0.70
     Davidson diagonalization with overlap
     ethr =  6.73E-04,  avg # of iterations =  2.0

     total cpu time spent up to now is        2.4 secs

     total energy              =    -210.37602517 Ry
     Harris-Foulkes estimate   =    -210.48020241 Ry
     estimated scf accuracy    <       0.27089564 Ry

     iteration #  3     ecut=    45.00 Ry     beta= 0.70
     Davidson diagonalization with overlap
     ethr =  6.73E-04,  avg # of iterations =  2.0

     total cpu time spent up to now is        2.9 secs

     total energy              =    -210.41844763 Ry
     Harris-Foulkes estimate   =    -210.41851523 Ry
     estimated scf accuracy    <       0.00013526 Ry

     iteration #  4     ecut=    45.00 Ry     beta= 0.70
     Davidson diagonalization with overlap
     ethr =  1.23E-06,  avg # of iterations =  2.4

     total cpu time spent up to now is        3.4 secs

     total energy              =    -210.41851286 Ry
     Harris-Foulkes estimate   =    -210.41852270 Ry
     estimated scf accuracy    <       0.00002502 Ry

     iteration #  5     ecut=    45.00 Ry     beta= 0.70
     Davidson diagonalization with overlap
     ethr =  2.27E-07,  avg # of iterations =  1.2

     total cpu time spent up to now is        3.8 secs

     total energy              =    -210.41851769 Ry
     Harris-Foulkes estimate   =    -210.41851799 Ry
     estimated scf accuracy    <       0.00000081 Ry

     iteration #  6     ecut=    45.00 Ry     beta= 0.70
     Davidson diagonalization with overlap
     ethr =  7.39E-09,  avg # of iterations =  1.7

     total cpu time spent up to now is        4.2 secs

     End of self-consistent calculation

          k = 0.0000 0.0000 0.0000 (   411 PWs)   bands (ev):

     3.0439   9.4751   9.4751   9.4751  10.3161  10.3161  35.3795  37.7510
    37.7510  37.7510

          k =-0.0909 0.0909-0.0909 (   405 PWs)   bands (ev):

     3.3438   9.4125   9.5303   9.5303  10.2962  10.2962  33.0582  36.0711
    36.9118  36.9118

          k =-0.1818 0.1818-0.1818 (   396 PWs)   bands (ev):

     4.2136   9.2727   9.6288   9.6288  10.2989  10.2989  28.3241  35.6380
    35.8346  35.8346

          k =-0.2727 0.2727-0.2727 (   395 PWs)   bands (ev):

     5.5197   9.2244   9.6206   9.6206  10.4533  10.4533  23.8033  34.9819
    35.0788  35.0788

          k =-0.3636 0.3636-0.3636 (   407 PWs)   bands (ev):

     6.7921   9.5265   9.5265   9.7105  10.6970  10.6970  19.7899  34.2780
    34.6643  34.6643

          k =-0.4545 0.4545-0.4545 (   407 PWs)   bands (ev):

     7.3286   9.4545   9.4545  10.8662  10.8662  11.0479  16.7673  33.8459
    34.5191  34.5191

          k = 0.0000 0.1818 0.0000 (   399 PWs)   bands (ev):

     3.4432   9.3568   9.5714   9.5714  10.2109  10.3599  34.1555  34.9763
    34.9763  36.3831

          k =-0.0909 0.2727-0.0909 (   398 PWs)   bands (ev):

     4.1224   9.2160   9.6747   9.6841  10.1363  10.4063  30.1011  33.5005
    34.2746  37.4690

          k =-0.1818 0.3636-0.1818 (   400 PWs)   bands (ev):

     5.2927   9.0912   9.6367   9.7284  10.3075  10.5375  25.4710  32.5343
    33.6356  36.4612

          k =-0.2727 0.4545-0.2727 (   405 PWs)   bands (ev):

     6.6345   9.2180   9.4913   9.6612  10.7458  10.7684  21.2534  32.1183
    32.9793  34.4584

          k =-0.3636 0.5455-0.3636 (   409 PWs)   bands (ev):

     7.4043   9.3595   9.5737   9.8647  10.8859  11.6598  17.7401  31.9155
    32.3082  33.6464

          k = 0.5455-0.3636 0.5455 (   405 PWs)   bands (ev):

     7.5339   9.3424   9.5371  10.1578  10.8581  12.3829  16.3607  30.8757
    33.1532  33.7998

          k = 0.4545-0.2727 0.4545 (   407 PWs)   bands (ev):

     7.2478   9.4184   9.5773   9.6863  10.6557  11.4189  18.8034  30.3328
    34.5515  34.6557

          k = 0.3636-0.1818 0.3636 (   405 PWs)   bands (ev):

     6.2127   9.1619   9.5473   9.6768  10.3608  10.8586  22.6074  30.3385
    35.8142  36.7360

          k = 0.2727-0.0909 0.2727 (   392 PWs)   bands (ev):

     4.8600   9.1543   9.6436   9.7315  10.1493  10.5342  26.9830  30.8622
    37.2561  38.6204

          k = 0.1818-0.0000 0.1818 (   395 PWs)   bands (ev):

     3.8342   9.3030   9.6146   9.6162  10.1916  10.3678  31.3840  32.2007
    37.3191  38.8545

          k = 0.0000 0.3636 0.0000 (   399 PWs)   bands (ev):

     4.5924   9.0446   9.8469   9.8469   9.9602  10.4772  31.6852  31.6852
    32.4691  33.9202

          k =-0.0909 0.4545-0.0909 (   401 PWs)   bands (ev):

     5.5566   8.8675   9.6999   9.9754  10.2419  10.5893  27.5343  30.4350
    32.0978  33.3402

          k =-0.1818 0.5455-0.1818 (   403 PWs)   bands (ev):

     6.7846   8.7897   9.4729   9.9587  10.7808  10.9106  23.1942  29.8087
    30.2086  32.7795

          k =-0.2727 0.6364-0.2727 (   407 PWs)   bands (ev):

     7.6822   8.9226   9.3975   9.8721  10.9101  12.1561  19.3399  28.3671
    29.8680  32.6350

          k = 0.6364-0.2727 0.6364 (   402 PWs)   bands (ev):

     7.9394   9.0141   9.5627   9.8019  10.8666  13.8285  16.6294  26.9780
    30.6459  32.8973

          k = 0.5455-0.1818 0.5455 (   406 PWs)   bands (ev):

     7.8683   9.1251   9.4032   9.7930  10.6433  12.8727  18.2560  26.1441
    32.1157  33.6332

          k = 0.4545-0.0909 0.4545 (   406 PWs)   bands (ev):

     7.2168   9.0226   9.3300   9.8594  10.3133  11.6248  21.8785  25.9062
    34.1944  34.9025

          k = 0.3636 0.0000 0.3636 (   397 PWs)   bands (ev):

     5.9702   9.0047   9.5353   9.9760   9.9923  10.9512  25.8014  26.5395
    36.6546  36.7666

          k = 0.0000 0.5455 0.0000 (   415 PWs)   bands (ev):

     6.2348   8.6468   9.8736  10.2551  10.2551  10.6321  28.8883  28.8883
    29.5618  31.2255

          k =-0.0909 0.6364-0.0909 (   411 PWs)   bands (ev):

     7.1004   8.4952   9.8219  10.3470  10.7870  10.9205  25.4696  27.1442
    27.9914  31.7257

          k =-0.1818 0.7273-0.1818 (   413 PWs)   bands (ev):

     7.7973   8.4769   9.6585  10.2792  10.9300  12.4314  21.5319  25.0724
    27.8328  31.8388

          k = 0.7273-0.1818 0.7273 (   409 PWs)   bands (ev):

     8.1831   8.5752   9.5074  10.1840  10.8931  14.6922  18.0926  23.5017
    28.4498  32.0719

          k = 0.6364-0.0909 0.6364 (   404 PWs)   bands (ev):

     8.3615   8.7333   9.2825  10.1046  10.6822  14.8871  18.0155  22.5058
    29.7952  32.6355

          k = 0.5455 0.0000 0.5455 (   407 PWs)   bands (ev):

     8.1155   9.0068   9.0192  10.0276  10.4199  12.9032  21.0463  22.5342
    31.7564  33.6015

          k = 0.0000 0.7273 0.0000 (   416 PWs)   bands (ev):

     7.3966   8.2922  10.6930  10.6930  10.7764  10.9534  24.4612  26.8057
    26.8057  30.4536

          k =-0.0909 0.8182-0.0909 (   412 PWs)   bands (ev):

     7.6577   8.2167  10.4665  10.6751  10.9424  12.6452  22.3228  24.0937
    26.3802  31.0849

          k = 0.8182-0.0909 0.8182 (   411 PWs)   bands (ev):

     7.9398   8.2897  10.0711  10.5687  10.9396  14.9149  20.5214  20.9058
    26.7816  31.4649

          k = 0.7273 0.0000 0.7273 (   403 PWs)   bands (ev):

     8.2634   8.4598   9.6056  10.3924  10.7971  17.1847  17.4714  20.4300
    27.9641  31.9121

          k = 0.0000 0.9091 0.0000 (   404 PWs)   bands (ev):

     7.5889   8.0870  10.8638  10.9903  10.9903  13.3088  20.3685  25.6702
    25.6702  30.0904

          k = 0.9091-0.0000 0.9091 (   412 PWs)   bands (ev):

     7.6856   8.1149  10.7180  10.8053  11.0055  14.4255  19.6446  23.5879
    25.8106  30.8865

          k =-0.1818 0.3636 0.0000 (   400 PWs)   bands (ev):

     4.9548   9.0520   9.6733   9.8579  10.0870  10.5580  28.6551  29.2904
    35.5721  36.0484

          k =-0.2727 0.4545-0.0909 (   405 PWs)   bands (ev):

     6.1886   8.9408   9.5020   9.9030  10.2944  10.9181  24.4221  28.3190
    33.3049  36.1932

          k =-0.3636 0.5455-0.1818 (   405 PWs)   bands (ev):

     7.3488   9.0854   9.3327   9.8109  10.6400  11.6286  20.3768  28.1594
    31.2632  35.6416

          k = 0.5455-0.3636 0.7273 (   407 PWs)   bands (ev):

     7.7937   9.1371   9.5967   9.7387  10.8298  13.0255  17.1402  28.5644
    29.7128  35.2790

          k =-0.1818 0.5455 0.0000 (   411 PWs)   bands (ev):

     6.5389   8.7018   9.5518  10.2554  10.3458  10.9094  26.3694  26.9190
    30.0395  34.3096

          k =-0.2727 0.6364-0.0909 (   407 PWs)   bands (ev):

     7.5582   8.6553   9.3520  10.2119  10.6785  11.7964  22.4505  26.3341
    27.8139  34.7503

          k = 0.6364-0.2727 0.8182 (   408 PWs)   bands (ev):

     8.1179   8.7391   9.2970  10.0923  10.8506  13.5394  18.7873  25.9744
    26.6827  34.8809

          k = 0.5455-0.1818 0.7273 (   403 PWs)   bands (ev):

     8.2749   8.7813   9.3199  10.0143  10.8061  14.9220  16.9790  24.7640
    27.5608  35.3951

          k = 0.4545-0.0909 0.6364 (   407 PWs)   bands (ev):

     8.1155   8.9203   9.0780  10.0538  10.5896  13.0225  19.9420  24.1161
    29.0310  36.4239

          k = 0.3636 0.0000 0.5455 (   406 PWs)   bands (ev):

     7.3193   8.8456   9.2572  10.1233  10.2845  11.6750  23.4728  24.4117
    30.9874  37.8928

          k =-0.1818 0.7273 0.0000 (   412 PWs)   bands (ev):

     7.6296   8.3840   9.8609  10.6685  10.6909  11.9646  24.6365  24.7094
    25.2782  33.1586

          k = 0.7273-0.1818 0.9091 (   409 PWs)   bands (ev):

     8.0145   8.4169   9.6783  10.4954  10.8998  13.8897  21.1442  22.8937
    25.0802  33.9529

          k = 0.6364-0.0909 0.8182 (   404 PWs)   bands (ev):

     8.3223   8.5290   9.4222  10.3203  10.8755  16.4169  17.9016  21.5939
    25.8392  34.4845

          k = 0.5455 0.0000 0.7273 (   401 PWs)   bands (ev):

     8.5475   8.6479   9.0999  10.2058  10.7075  15.0573  19.2051  21.3565
    27.1941  35.3611

          k = 0.8182-0.0909 1.0000 (   410 PWs)   bands (ev):

     7.7763   8.1977  10.3549  10.7446  10.9900  14.2226  20.5778  23.6701
    24.2747  32.6037

          k = 0.7273 0.0000 0.9091 (   409 PWs)   bands (ev):

     8.0080   8.3328   9.9279  10.5603  10.9875  15.9473  19.9300  20.7212
    24.6244  33.6987

          k = 0.6364-0.2727 1.0000 (   410 PWs)   bands (ev):

     8.1832   8.6587   9.1365  10.3755  10.6892  13.3109  21.7428  22.9635
    25.7031  37.6752

          k = 0.5455-0.1818 0.9091 (   405 PWs)   bands (ev):

     8.4580   8.7031   9.0671  10.2497  10.8633  15.5564  18.6622  23.0212
    24.0980  38.1411

          k = 0.6364-0.0909 1.0000 (   408 PWs)   bands (ev):

     8.1974   8.5397   9.4559  10.4194  10.9890  15.9931  20.7835  21.2686
    22.2559  37.0471

          k = 0.5455 0.0000 0.9091 (   404 PWs)   bands (ev):

     8.3603   8.7644   9.1245  10.2854  10.9877  18.1241  18.1552  20.7856
    22.6763  38.3878

     the Fermi energy is    12.5517 ev

!    total energy              =    -210.41851784 Ry
     Harris-Foulkes estimate   =    -210.41851784 Ry
     estimated scf accuracy    <          3.8E-10 Ry

     total all-electron energy =     -3307.297579 Ry

     The total energy is the sum of the following terms:

     one-electron contribution =     -28.00852016 Ry
     hartree contribution      =      30.53013007 Ry
     xc contribution           =     -44.11302601 Ry
     ewald contribution        =     -81.22522862 Ry
     one-center paw contrib.   =     -87.60174084 Ry
     smearing contrib. (-TS)   =      -0.00013229 Ry

     convergence has been achieved in   6 iterations

     Forces acting on atoms (cartesian axes, Ry/au):

     atom    1 type  1   force =     0.00000000    0.00000000    0.00000000

     Total force =     0.000000     Total SCF correction =     0.000000


     Computing stress (Cartesian axis) and pressure

          total   stress  (Ry/bohr**3)                   (kbar)     P=  -85.14
  -0.00057877  -0.00000000  -0.00000000        -85.14     -0.00     -0.00
  -0.00000000  -0.00057877  -0.00000000         -0.00    -85.14     -0.00
  -0.00000000  -0.00000000  -0.00057877         -0.00     -0.00    -85.14


     Writing output data file Cu.save/

     init_run     :      0.35s CPU      0.37s WALL (       1 calls)
     electrons    :      2.78s CPU      3.04s WALL (       1 calls)
     forces       :      0.03s CPU      0.03s WALL (       1 calls)
     stress       :      0.09s CPU      0.09s WALL (       1 calls)

     Called by init_run:
     wfcinit      :      0.11s CPU      0.12s WALL (       1 calls)
     potinit      :      0.10s CPU      0.12s WALL (       1 calls)
     hinit0       :      0.12s CPU      0.12s WALL (       1 calls)

     Called by electrons:
     c_bands      :      1.81s CPU      1.96s WALL (       7 calls)
     sum_band     :      0.34s CPU      0.37s WALL (       7 calls)
     v_of_rho     :      0.02s CPU      0.02s WALL (       7 calls)
     newd         :      0.02s CPU      0.02s WALL (       7 calls)
     PAW_pot      :      0.67s CPU      0.78s WALL (       7 calls)
     mix_rho      :      0.00s CPU      0.00s WALL (       7 calls)

     Called by c_bands:
     init_us_2    :      0.05s CPU      0.05s WALL (     952 calls)
     cegterg      :      1.73s CPU      1.88s WALL (     392 calls)

     Called by sum_band:
     sum_band:bec :      0.00s CPU      0.00s WALL (     392 calls)
     addusdens    :      0.02s CPU      0.02s WALL (       7 calls)

     Called by *egterg:
     h_psi        :      1.39s CPU      1.51s WALL (    1239 calls)
     s_psi        :      0.04s CPU      0.04s WALL (    1239 calls)
     g_psi        :      0.00s CPU      0.00s WALL (     791 calls)
     cdiaghg      :      0.21s CPU      0.23s WALL (    1127 calls)

     Called by h_psi:
     h_psi:pot    :      1.38s CPU      1.50s WALL (    1239 calls)
     h_psi:calbec :      0.06s CPU      0.06s WALL (    1239 calls)
     vloc_psi     :      1.28s CPU      1.39s WALL (    1239 calls)
     add_vuspsi   :      0.04s CPU      0.04s WALL (    1239 calls)

     General routines
     calbec       :      0.10s CPU      0.10s WALL (    1911 calls)
     fft          :      0.01s CPU      0.01s WALL (     104 calls)
     ffts         :      0.00s CPU      0.00s WALL (       7 calls)
     fftw         :      1.42s CPU      1.54s WALL (   23714 calls)

     Parallel routines
     fft_scatt_xy :      0.13s CPU      0.14s WALL (   23825 calls)
     fft_scatt_yz :      0.45s CPU      0.48s WALL (   23825 calls)

     PWSCF        :     4.12s CPU         4.47s WALL


   This run was terminated on:  23:21:36  25Mar2024            

=------------------------------------------------------------------------------=
   JOB DONE.
=------------------------------------------------------------------------------=
