
     Program PWSCF v.6.3MaX starts on 25Mar2024 at 23:20:35 

     This program is part of the open-source Quantum ESPRESSO suite
     for quantum simulation of materials; please cite
         "P. Giannozzi et al., J. Phys.:Condens. Matter 21 395502 (2009);
         "P. Giannozzi et al., J. Phys.:Condens. Matter 29 465901 (2017);
          URL http://www.quantum-espresso.org", 
     in publications or presentations arising from this work. More details at
     http://www.quantum-espresso.org/quote

     Parallel version (MPI), running on     5 processors

     MPI processes distributed on     1 nodes
     R & G space division:  proc/nbgrp/npool/nimage =       5
     Waiting for input...
     Reading input from standard input

     Current dimensions of program PWSCF are:
     Max number of different atomic species (ntypx) = 10
     Max number of k-points (npk) =  40000
     Max angular momentum in pseudopotentials (lmaxx) =  3
               file Cu.pbe-dn-rrkjus_psl.1.0.0.UPF: wavefunction(s)  3D renormalized

     Subspace diagonalization in iterative solution of the eigenvalue problem:
     a serial algorithm will be used


     Parallelization info
     --------------------
     sticks:   dense  smooth     PW     G-vecs:    dense   smooth      PW
     Min          50      50     17                  544      544     107
     Max          51      51     17                  548      548     108
     Sum         253     253     85                 2733     2733     537



     bravais-lattice index     =            2
     lattice parameter (alat)  =       6.8300  a.u.
     unit-cell volume          =      79.6530 (a.u.)^3
     number of atoms/cell      =            1
     number of atomic types    =            1
     number of electrons       =        11.00
     number of Kohn-Sham states=           10
     kinetic-energy cutoff     =      40.0000  Ry
     charge density cutoff     =     160.0000  Ry
     convergence threshold     =      1.0E-08
     mixing beta               =       0.7000
     number of iterations used =            8  plain     mixing
     Exchange-correlation      = PBE ( 1  4  3  4 0 0)

     celldm(1)=   6.830000  celldm(2)=   0.000000  celldm(3)=   0.000000
     celldm(4)=   0.000000  celldm(5)=   0.000000  celldm(6)=   0.000000

     crystal axes: (cart. coord. in units of alat)
               a(1) = (  -0.500000   0.000000   0.500000 )  
               a(2) = (   0.000000   0.500000   0.500000 )  
               a(3) = (  -0.500000   0.500000   0.000000 )  

     reciprocal axes: (cart. coord. in units 2 pi/alat)
               b(1) = ( -1.000000 -1.000000  1.000000 )  
               b(2) = (  1.000000  1.000000  1.000000 )  
               b(3) = ( -1.000000  1.000000 -1.000000 )  


     PseudoPot. # 1 for Cu read from file:
     /home/lorenzo/pseudos/Cu/Cu.pbe-dn-rrkjus_psl.1.0.0.UPF
     MD5 check sum: ba3d6c84e19846e79d48cdc68ff7152b
     Pseudo is Ultrasoft + core correction, Zval = 11.0
     Generated using "atomic" code by A. Dal Corso v.6.3
     Using radial grid of 1199 points,  6 beta functions with: 
                l(1) =   0
                l(2) =   0
                l(3) =   1
                l(4) =   1
                l(5) =   2
                l(6) =   2
     Q(r) pseudized with 0 coefficients 


     atomic species   valence    mass     pseudopotential
        Cu            11.00    63.54600     Cu( 1.00)

     48 Sym. Ops., with inversion, found



   Cartesian axes

     site n.     atom                  positions (alat units)
         1           Cu  tau(   1) = (   0.0000000   0.0000000   0.0000000  )

     number of k points=    20  gaussian smearing, width (Ry)=  0.0100
                       cart. coord. in units 2pi/alat
        k(    1) = (   0.0000000   0.0000000   0.0000000), wk =   0.0058309
        k(    2) = (  -0.1428571   0.1428571  -0.1428571), wk =   0.0466472
        k(    3) = (  -0.2857143   0.2857143  -0.2857143), wk =   0.0466472
        k(    4) = (  -0.4285714   0.4285714  -0.4285714), wk =   0.0466472
        k(    5) = (   0.0000000   0.2857143   0.0000000), wk =   0.0349854
        k(    6) = (  -0.1428571   0.4285714  -0.1428571), wk =   0.1399417
        k(    7) = (  -0.2857143   0.5714286  -0.2857143), wk =   0.1399417
        k(    8) = (   0.5714286  -0.2857143   0.5714286), wk =   0.1399417
        k(    9) = (   0.4285714  -0.1428571   0.4285714), wk =   0.1399417
        k(   10) = (   0.2857143  -0.0000000   0.2857143), wk =   0.0699708
        k(   11) = (   0.0000000   0.5714286   0.0000000), wk =   0.0349854
        k(   12) = (  -0.1428571   0.7142857  -0.1428571), wk =   0.1399417
        k(   13) = (   0.7142857  -0.1428571   0.7142857), wk =   0.1399417
        k(   14) = (   0.5714286   0.0000000   0.5714286), wk =   0.0699708
        k(   15) = (   0.0000000   0.8571429   0.0000000), wk =   0.0349854
        k(   16) = (   0.8571429  -0.0000000   0.8571429), wk =   0.0699708
        k(   17) = (  -0.2857143   0.5714286   0.0000000), wk =   0.1399417
        k(   18) = (   0.5714286  -0.2857143   0.8571429), wk =   0.2798834
        k(   19) = (   0.7142857  -0.1428571   1.0000000), wk =   0.1399417
        k(   20) = (   0.5714286   0.0000000   0.8571429), wk =   0.1399417

     Dense  grid:     2733 G-vectors     FFT dimensions: (  20,  20,  20)

     Estimated max dynamical RAM per process >       3.35 MB

     Estimated total dynamical RAM >      16.74 MB

     Check: negative/imaginary core charge=   -0.000010    0.000000

     Initial potential from superposition of free atoms

     starting charge   10.99977, renormalised to   11.00000
     Starting wfcs are    9 randomized atomic wfcs +    1 random wfcs

     total cpu time spent up to now is        0.9 secs

     Self-consistent Calculation

     iteration #  1     ecut=    40.00 Ry     beta= 0.70
     Davidson diagonalization with overlap
     ethr =  1.00E-02,  avg # of iterations =  3.5

     Threshold (ethr) on eigenvalues was too large:
     Diagonalizing with lowered threshold

     Davidson diagonalization with overlap
     ethr =  5.19E-04,  avg # of iterations =  1.0

     total cpu time spent up to now is        1.1 secs

     total energy              =    -122.71257800 Ry
     Harris-Foulkes estimate   =    -122.75678208 Ry
     estimated scf accuracy    <       0.05675333 Ry

     iteration #  2     ecut=    40.00 Ry     beta= 0.70
     Davidson diagonalization with overlap
     ethr =  5.16E-04,  avg # of iterations =  2.0

     total cpu time spent up to now is        1.2 secs

     total energy              =    -122.71368180 Ry
     Harris-Foulkes estimate   =    -122.79106540 Ry
     estimated scf accuracy    <       0.19966201 Ry

     iteration #  3     ecut=    40.00 Ry     beta= 0.70
     Davidson diagonalization with overlap
     ethr =  5.16E-04,  avg # of iterations =  2.0

     total cpu time spent up to now is        1.3 secs

     total energy              =    -122.74567363 Ry
     Harris-Foulkes estimate   =    -122.74568371 Ry
     estimated scf accuracy    <       0.00005471 Ry

     iteration #  4     ecut=    40.00 Ry     beta= 0.70
     Davidson diagonalization with overlap
     ethr =  4.97E-07,  avg # of iterations =  2.9

     total cpu time spent up to now is        1.4 secs

     total energy              =    -122.74571529 Ry
     Harris-Foulkes estimate   =    -122.74571879 Ry
     estimated scf accuracy    <       0.00001130 Ry

     iteration #  5     ecut=    40.00 Ry     beta= 0.70
     Davidson diagonalization with overlap
     ethr =  1.03E-07,  avg # of iterations =  1.1

     total cpu time spent up to now is        1.6 secs

     total energy              =    -122.74571733 Ry
     Harris-Foulkes estimate   =    -122.74571744 Ry
     estimated scf accuracy    <       0.00000032 Ry

     iteration #  6     ecut=    40.00 Ry     beta= 0.70
     Davidson diagonalization with overlap
     ethr =  2.87E-09,  avg # of iterations =  1.7

     total cpu time spent up to now is        1.7 secs

     End of self-consistent calculation

          k = 0.0000 0.0000 0.0000 (   331 PWs)   bands (ev):

     3.2801   9.7211   9.7211   9.7211  10.5493  10.5493  35.5999  37.9983
    37.9983  37.9983

          k =-0.1429 0.1429-0.1429 (   335 PWs)   bands (ev):

     4.0121   9.5802   9.8363   9.8363  10.5184  10.5184  30.6059  36.0590
    36.5226  36.5226

          k =-0.2857 0.2857-0.2857 (   344 PWs)   bands (ev):

     5.9600   9.4893   9.8497   9.8497  10.7226  10.7226  23.4361  35.0955
    35.2603  35.2603

          k =-0.4286 0.4286-0.4286 (   338 PWs)   bands (ev):

     7.4939   9.7077   9.7077  10.8856  11.0705  11.0705  17.6978  34.1464
    34.8024  34.8024

          k = 0.0000 0.2857 0.0000 (   335 PWs)   bands (ev):

     4.2526   9.4422   9.9535   9.9535  10.3067  10.6521  33.3076  33.3076
    33.3884  35.2968

          k =-0.1429 0.4286-0.1429 (   336 PWs)   bands (ev):

     5.8043   9.1967   9.8682  10.0999  10.5723  10.8314  26.2205  31.4165
    32.9317  34.6209

          k =-0.2857 0.5714-0.2857 (   339 PWs)   bands (ev):

     7.6333   9.3562   9.6620   9.9889  11.1142  11.8197  19.8028  30.5811
    31.0274  33.3057

          k = 0.5714-0.2857 0.5714 (   342 PWs)   bands (ev):

     7.9914   9.4334   9.9024  10.0073  11.0534  13.3534  16.8471  28.5976
    32.3247  33.7016

          k = 0.4286-0.1429 0.4286 (   345 PWs)   bands (ev):

     7.1750   9.3599   9.6528   9.9926  10.6100  11.5801  21.8084  27.9816
    35.2590  35.4436

          k = 0.2857-0.0000 0.2857 (   333 PWs)   bands (ev):

     5.1687   9.3659   9.8801  10.0461  10.2971  10.8303  28.3543  29.0392
    38.5511  38.8146

          k = 0.0000 0.5714 0.0000 (   343 PWs)   bands (ev):

     6.7020   8.8372  10.1571  10.5633  10.5633  10.8863  28.7962  28.7962
    29.0575  31.3319

          k =-0.1429 0.7143-0.1429 (   333 PWs)   bands (ev):

     7.8667   8.6708  10.0465  10.6030  11.1422  12.1689  23.2204  25.4335
    27.8158  31.9473

          k = 0.7143-0.1429 0.7143 (   348 PWs)   bands (ev):

     8.4926   8.7982   9.7410  10.4494  11.0937  15.7047  17.8224  22.9486
    28.7375  32.3288

          k = 0.5714 0.0000 0.5714 (   339 PWs)   bands (ev):

     8.5091   9.1624   9.2972  10.2941  10.7244  13.6364  20.6841  22.3589
    31.3917  33.5195

          k = 0.0000 0.8571 0.0000 (   335 PWs)   bands (ev):

     7.8124   8.3730  11.0776  11.1733  11.1733  12.8840  21.5697  26.1374
    26.1374  30.4059

          k = 0.8571-0.0000 0.8571 (   347 PWs)   bands (ev):

     8.0492   8.4383  10.6315  10.9430  11.2088  15.3000  19.9846  22.0840
    26.4779  31.4703

          k =-0.2857 0.5714 0.0000 (   332 PWs)   bands (ev):

     7.3874   8.9827   9.5750  10.5119  10.5689  11.6722  24.6294  25.4047
    29.9682  36.8942

          k = 0.5714-0.2857 0.8571 (   337 PWs)   bands (ev):

     8.4766   9.0259   9.4204  10.3279  11.0137  14.0381  18.9603  25.2821
    26.9935  37.0188

          k = 0.7143-0.1429 1.0000 (   347 PWs)   bands (ev):

     8.2543   8.6397   9.9703  10.8007  11.1711  14.6837  22.1976  22.4329
    23.4678  35.3933

          k = 0.5714 0.0000 0.8571 (   345 PWs)   bands (ev):

     8.6219   8.9030   9.4629  10.5262  11.1685  17.7516  18.2617  20.9823
    24.3671  37.0340

     the Fermi energy is    12.8637 ev

!    total energy              =    -122.74571738 Ry
     Harris-Foulkes estimate   =    -122.74571738 Ry
     estimated scf accuracy    <          2.7E-10 Ry

     The total energy is the sum of the following terms:

     one-electron contribution =     -27.52288372 Ry
     hartree contribution      =      30.63766288 Ry
     xc contribution           =     -44.63517143 Ry
     ewald contribution        =     -81.22522859 Ry
     smearing contrib. (-TS)   =      -0.00009653 Ry

     convergence has been achieved in   6 iterations

     Forces acting on atoms (cartesian axes, Ry/au):

     atom    1 type  1   force =     0.00000000    0.00000000    0.00000000

     Total force =     0.000000     Total SCF correction =     0.000000


     Computing stress (Cartesian axis) and pressure

          total   stress  (Ry/bohr**3)                   (kbar)     P=   18.17
   0.00012355   0.00000000   0.00000000         18.17      0.00      0.00
   0.00000000   0.00012355   0.00000000          0.00     18.17      0.00
   0.00000000   0.00000000   0.00012355          0.00      0.00     18.17


     Writing output data file Cu.save/

     init_run     :      0.15s CPU      0.15s WALL (       1 calls)
     electrons    :      0.76s CPU      0.80s WALL (       1 calls)
     forces       :      0.02s CPU      0.02s WALL (       1 calls)
     stress       :      0.04s CPU      0.04s WALL (       1 calls)

     Called by init_run:
     wfcinit      :      0.03s CPU      0.03s WALL (       1 calls)
     potinit      :      0.00s CPU      0.00s WALL (       1 calls)
     hinit0       :      0.11s CPU      0.12s WALL (       1 calls)

     Called by electrons:
     c_bands      :      0.61s CPU      0.64s WALL (       7 calls)
     sum_band     :      0.12s CPU      0.12s WALL (       7 calls)
     v_of_rho     :      0.01s CPU      0.01s WALL (       7 calls)
     newd         :      0.02s CPU      0.02s WALL (       7 calls)
     mix_rho      :      0.00s CPU      0.00s WALL (       7 calls)

     Called by c_bands:
     init_us_2    :      0.02s CPU      0.02s WALL (     340 calls)
     cegterg      :      0.58s CPU      0.61s WALL (     140 calls)

     Called by sum_band:
     sum_band:bec :      0.00s CPU      0.00s WALL (     140 calls)
     addusdens    :      0.02s CPU      0.02s WALL (       7 calls)

     Called by *egterg:
     h_psi        :      0.42s CPU      0.45s WALL (     445 calls)
     s_psi        :      0.01s CPU      0.01s WALL (     445 calls)
     g_psi        :      0.00s CPU      0.00s WALL (     285 calls)
     cdiaghg      :      0.08s CPU      0.09s WALL (     405 calls)

     Called by h_psi:
     h_psi:pot    :      0.42s CPU      0.45s WALL (     445 calls)
     h_psi:calbec :      0.03s CPU      0.03s WALL (     445 calls)
     vloc_psi     :      0.38s CPU      0.40s WALL (     445 calls)
     add_vuspsi   :      0.01s CPU      0.01s WALL (     445 calls)

     General routines
     calbec       :      0.04s CPU      0.04s WALL (     685 calls)
     fft          :      0.01s CPU      0.01s WALL (     104 calls)
     ffts         :      0.00s CPU      0.00s WALL (       7 calls)
     fftw         :      0.42s CPU      0.44s WALL (    8482 calls)

     Parallel routines
     fft_scatt_xy :      0.03s CPU      0.04s WALL (    8593 calls)
     fft_scatt_yz :      0.17s CPU      0.18s WALL (    8593 calls)

     PWSCF        :     1.70s CPU         1.79s WALL


   This run was terminated on:  23:20:36  25Mar2024            

=------------------------------------------------------------------------------=
   JOB DONE.
=------------------------------------------------------------------------------=
