
     Program PWSCF v.6.3MaX starts on 25Mar2024 at 23:18:19 

     This program is part of the open-source Quantum ESPRESSO suite
     for quantum simulation of materials; please cite
         "P. Giannozzi et al., J. Phys.:Condens. Matter 21 395502 (2009);
         "P. Giannozzi et al., J. Phys.:Condens. Matter 29 465901 (2017);
          URL http://www.quantum-espresso.org", 
     in publications or presentations arising from this work. More details at
     http://www.quantum-espresso.org/quote

     Parallel version (MPI), running on     5 processors

     MPI processes distributed on     1 nodes
     R & G space division:  proc/nbgrp/npool/nimage =       5
     Waiting for input...
     Reading input from standard input

     Current dimensions of program PWSCF are:
     Max number of different atomic species (ntypx) = 10
     Max number of k-points (npk) =  40000
     Max angular momentum in pseudopotentials (lmaxx) =  3
               file Cu.pbesol-dn-kjpaw_psl.1.0.0.UPF: wavefunction(s)  4S 3D renormalized

     Subspace diagonalization in iterative solution of the eigenvalue problem:
     a serial algorithm will be used


     Parallelization info
     --------------------
     sticks:   dense  smooth     PW     G-vecs:    dense   smooth      PW
     Min          43      43     16                  445      445      91
     Max          45      45     18                  446      446      92
     Sum         223     223     85                 2229     2229     459



     bravais-lattice index     =            2
     lattice parameter (alat)  =       6.8300  a.u.
     unit-cell volume          =      79.6530 (a.u.)^3
     number of atoms/cell      =            1
     number of atomic types    =            1
     number of electrons       =        11.00
     number of Kohn-Sham states=           10
     kinetic-energy cutoff     =      35.0000  Ry
     charge density cutoff     =     140.0000  Ry
     convergence threshold     =      1.0E-08
     mixing beta               =       0.7000
     number of iterations used =            8  plain     mixing
     Exchange-correlation      = SLA PW PSX PSC ( 1  4 10  8 0 0)

     celldm(1)=   6.830000  celldm(2)=   0.000000  celldm(3)=   0.000000
     celldm(4)=   0.000000  celldm(5)=   0.000000  celldm(6)=   0.000000

     crystal axes: (cart. coord. in units of alat)
               a(1) = (  -0.500000   0.000000   0.500000 )  
               a(2) = (   0.000000   0.500000   0.500000 )  
               a(3) = (  -0.500000   0.500000   0.000000 )  

     reciprocal axes: (cart. coord. in units 2 pi/alat)
               b(1) = ( -1.000000 -1.000000  1.000000 )  
               b(2) = (  1.000000  1.000000  1.000000 )  
               b(3) = ( -1.000000  1.000000 -1.000000 )  


     PseudoPot. # 1 for Cu read from file:
     /home/lorenzo/pseudos/Cu/Cu.pbesol-dn-kjpaw_psl.1.0.0.UPF
     MD5 check sum: 1e9735a74797514c934643dbd229f231
     Pseudo is Projector augmented-wave + core cor, Zval = 11.0
     Generated using "atomic" code by A. Dal Corso v.6.3
     Shape of augmentation charge: PSQ
     Using radial grid of 1199 points,  6 beta functions with: 
                l(1) =   0
                l(2) =   0
                l(3) =   1
                l(4) =   1
                l(5) =   2
                l(6) =   2
     Q(r) pseudized with 0 coefficients 


     atomic species   valence    mass     pseudopotential
        Cu            11.00    63.54600     Cu( 1.00)

     48 Sym. Ops., with inversion, found



   Cartesian axes

     site n.     atom                  positions (alat units)
         1           Cu  tau(   1) = (   0.0000000   0.0000000   0.0000000  )

     number of k points=     8  gaussian smearing, width (Ry)=  0.0100
                       cart. coord. in units 2pi/alat
        k(    1) = (   0.0000000   0.0000000   0.0000000), wk =   0.0312500
        k(    2) = (  -0.2500000   0.2500000  -0.2500000), wk =   0.2500000
        k(    3) = (   0.5000000  -0.5000000   0.5000000), wk =   0.1250000
        k(    4) = (   0.0000000   0.5000000   0.0000000), wk =   0.1875000
        k(    5) = (   0.7500000  -0.2500000   0.7500000), wk =   0.7500000
        k(    6) = (   0.5000000   0.0000000   0.5000000), wk =   0.3750000
        k(    7) = (   0.0000000  -1.0000000   0.0000000), wk =   0.0937500
        k(    8) = (  -0.5000000  -1.0000000   0.0000000), wk =   0.1875000

     Dense  grid:     2229 G-vectors     FFT dimensions: (  20,  20,  20)

     Estimated max dynamical RAM per process >       2.78 MB

     Estimated total dynamical RAM >      13.92 MB

     Check: negative/imaginary core charge=   -0.000002    0.000000

     Initial potential from superposition of free atoms

     starting charge   10.99979, renormalised to   11.00000
     Starting wfcs are    9 randomized atomic wfcs +    1 random wfcs
     Checking if some PAW data can be deallocated... 

     total cpu time spent up to now is        1.0 secs

     Self-consistent Calculation

     iteration #  1     ecut=    35.00 Ry     beta= 0.70
     Davidson diagonalization with overlap
     ethr =  1.00E-02,  avg # of iterations =  3.4

     Threshold (ethr) on eigenvalues was too large:
     Diagonalizing with lowered threshold

     Davidson diagonalization with overlap
     ethr =  6.40E-04,  avg # of iterations =  2.0

     total cpu time spent up to now is        1.2 secs

     total energy              =    -210.36252374 Ry
     Harris-Foulkes estimate   =    -210.41864322 Ry
     estimated scf accuracy    <       0.07034966 Ry

     iteration #  2     ecut=    35.00 Ry     beta= 0.70
     Davidson diagonalization with overlap
     ethr =  6.40E-04,  avg # of iterations =  2.0

     total cpu time spent up to now is        1.3 secs

     total energy              =    -210.36595904 Ry
     Harris-Foulkes estimate   =    -210.45950032 Ry
     estimated scf accuracy    <       0.23788837 Ry

     iteration #  3     ecut=    35.00 Ry     beta= 0.70
     Davidson diagonalization with overlap
     ethr =  6.40E-04,  avg # of iterations =  2.0

     total cpu time spent up to now is        1.5 secs

     total energy              =    -210.40414065 Ry
     Harris-Foulkes estimate   =    -210.40418928 Ry
     estimated scf accuracy    <       0.00009611 Ry

     iteration #  4     ecut=    35.00 Ry     beta= 0.70
     Davidson diagonalization with overlap
     ethr =  8.74E-07,  avg # of iterations =  2.1

     total cpu time spent up to now is        1.6 secs

     total energy              =    -210.40418820 Ry
     Harris-Foulkes estimate   =    -210.40419459 Ry
     estimated scf accuracy    <       0.00001842 Ry

     iteration #  5     ecut=    35.00 Ry     beta= 0.70
     Davidson diagonalization with overlap
     ethr =  1.67E-07,  avg # of iterations =  1.0

     total cpu time spent up to now is        1.8 secs

     total energy              =    -210.40419077 Ry
     Harris-Foulkes estimate   =    -210.40419078 Ry
     estimated scf accuracy    <       0.00000004 Ry

     iteration #  6     ecut=    35.00 Ry     beta= 0.70
     Davidson diagonalization with overlap
     ethr =  3.89E-10,  avg # of iterations =  3.0

     total cpu time spent up to now is        1.9 secs

     End of self-consistent calculation

          k = 0.0000 0.0000 0.0000 (   283 PWs)   bands (ev):

     3.0421   9.4669   9.4669   9.4669  10.3090  10.3090  35.3774  37.7497
    37.7497  37.7497

          k =-0.2500 0.2500-0.2500 (   289 PWs)   bands (ev):

     5.1664   9.2041   9.6272   9.6272  10.3906  10.3906  24.9035  35.1712
    35.2541  35.2541

          k = 0.5000-0.5000 0.5000 (   272 PWs)   bands (ev):

     7.3709   9.4370   9.4370  10.8818  10.8818  11.4057  16.2175  33.7907
    34.5009  34.5009

          k = 0.0000 0.5000 0.0000 (   290 PWs)   bands (ev):

     5.8112   8.7402   9.8354  10.1362  10.1362  10.5854  29.5362  29.5362
    30.8677  31.5207

          k = 0.7500-0.2500 0.7500 (   279 PWs)   bands (ev):

     8.0273   8.6118   9.4775  10.1180  10.9228  13.4016  19.1557  25.0269
    28.5358  32.1220

          k = 0.5000 0.0000 0.5000 (   273 PWs)   bands (ev):

     7.7274   8.9509   9.1673   9.9781  10.3011  12.1826  22.1642  23.3602
    32.9313  34.2462

          k = 0.0000-1.0000 0.0000 (   286 PWs)   bands (ev):

     7.5890   8.0534  10.8676  11.0239  11.0239  13.9033  19.5730  25.5205
    25.5205  30.0661

          k =-0.5000-1.0000 0.0000 (   280 PWs)   bands (ev):

     8.3381   8.9443   8.9443  10.2645  11.0237  18.6439  18.6439  20.7831
    21.2246  40.8900

     the Fermi energy is    13.2350 ev

!    total energy              =    -210.40419079 Ry
     Harris-Foulkes estimate   =    -210.40419080 Ry
     estimated scf accuracy    <          4.3E-09 Ry

     total all-electron energy =     -3307.283252 Ry

     The total energy is the sum of the following terms:

     one-electron contribution =     -27.98583122 Ry
     hartree contribution      =      30.52579239 Ry
     xc contribution           =     -44.11420358 Ry
     ewald contribution        =     -81.22522863 Ry
     one-center paw contrib.   =     -87.60424736 Ry
     smearing contrib. (-TS)   =      -0.00047239 Ry

     convergence has been achieved in   6 iterations

     Forces acting on atoms (cartesian axes, Ry/au):

     atom    1 type  1   force =     0.00000000    0.00000000    0.00000000

     Total force =     0.000000     Total SCF correction =     0.000000


     Computing stress (Cartesian axis) and pressure

          total   stress  (Ry/bohr**3)                   (kbar)     P=  -57.58
  -0.00039140   0.00000000  -0.00000000        -57.58      0.00     -0.00
   0.00000000  -0.00039140  -0.00000000          0.00    -57.58     -0.00
  -0.00000000  -0.00000000  -0.00039140         -0.00     -0.00    -57.58


     Writing output data file Cu.save/

     init_run     :      0.24s CPU      0.26s WALL (       1 calls)
     electrons    :      0.85s CPU      0.96s WALL (       1 calls)
     forces       :      0.01s CPU      0.01s WALL (       1 calls)
     stress       :      0.04s CPU      0.04s WALL (       1 calls)

     Called by init_run:
     wfcinit      :      0.01s CPU      0.01s WALL (       1 calls)
     potinit      :      0.10s CPU      0.12s WALL (       1 calls)
     hinit0       :      0.11s CPU      0.11s WALL (       1 calls)

     Called by electrons:
     c_bands      :      0.21s CPU      0.23s WALL (       7 calls)
     sum_band     :      0.05s CPU      0.05s WALL (       7 calls)
     v_of_rho     :      0.01s CPU      0.01s WALL (       7 calls)
     newd         :      0.02s CPU      0.02s WALL (       7 calls)
     PAW_pot      :      0.66s CPU      0.75s WALL (       7 calls)
     mix_rho      :      0.00s CPU      0.00s WALL (       7 calls)

     Called by c_bands:
     init_us_2    :      0.01s CPU      0.01s WALL (     136 calls)
     cegterg      :      0.20s CPU      0.22s WALL (      56 calls)

     Called by sum_band:
     sum_band:bec :      0.00s CPU      0.00s WALL (      56 calls)
     addusdens    :      0.02s CPU      0.02s WALL (       7 calls)

     Called by *egterg:
     h_psi        :      0.15s CPU      0.17s WALL (     188 calls)
     s_psi        :      0.00s CPU      0.00s WALL (     188 calls)
     g_psi        :      0.00s CPU      0.00s WALL (     124 calls)
     cdiaghg      :      0.03s CPU      0.03s WALL (     172 calls)

     Called by h_psi:
     h_psi:pot    :      0.15s CPU      0.17s WALL (     188 calls)
     h_psi:calbec :      0.01s CPU      0.01s WALL (     188 calls)
     vloc_psi     :      0.14s CPU      0.15s WALL (     188 calls)
     add_vuspsi   :      0.00s CPU      0.00s WALL (     188 calls)

     General routines
     calbec       :      0.01s CPU      0.01s WALL (     284 calls)
     fft          :      0.01s CPU      0.01s WALL (     104 calls)
     ffts         :      0.00s CPU      0.00s WALL (       7 calls)
     fftw         :      0.15s CPU      0.17s WALL (    3482 calls)

     Parallel routines
     fft_scatt_xy :      0.01s CPU      0.01s WALL (    3593 calls)
     fft_scatt_yz :      0.06s CPU      0.06s WALL (    3593 calls)

     PWSCF        :     1.88s CPU         2.04s WALL


   This run was terminated on:  23:18:21  25Mar2024            

=------------------------------------------------------------------------------=
   JOB DONE.
=------------------------------------------------------------------------------=
