
     Program PWSCF v.6.3MaX starts on 25Mar2024 at 23: 8:41 

     This program is part of the open-source Quantum ESPRESSO suite
     for quantum simulation of materials; please cite
         "P. Giannozzi et al., J. Phys.:Condens. Matter 21 395502 (2009);
         "P. Giannozzi et al., J. Phys.:Condens. Matter 29 465901 (2017);
          URL http://www.quantum-espresso.org", 
     in publications or presentations arising from this work. More details at
     http://www.quantum-espresso.org/quote

     Parallel version (MPI), running on     5 processors

     MPI processes distributed on     1 nodes
     R & G space division:  proc/nbgrp/npool/nimage =       5
     Waiting for input...
     Reading input from standard input

     Current dimensions of program PWSCF are:
     Max number of different atomic species (ntypx) = 10
     Max number of k-points (npk) =  40000
     Max angular momentum in pseudopotentials (lmaxx) =  3
               file Cu.pbesol-dn-kjpaw_psl.1.0.0.UPF: wavefunction(s)  4S 3D renormalized

     Subspace diagonalization in iterative solution of the eigenvalue problem:
     a serial algorithm will be used


     Parallelization info
     --------------------
     sticks:   dense  smooth     PW     G-vecs:    dense   smooth      PW
     Min          12      12      6                   66       66      22
     Max          13      13      7                   67       67      23
     Sum          61      61     31                  331      331     113



     bravais-lattice index     =            2
     lattice parameter (alat)  =       6.8300  a.u.
     unit-cell volume          =      79.6530 (a.u.)^3
     number of atoms/cell      =            1
     number of atomic types    =            1
     number of electrons       =        11.00
     number of Kohn-Sham states=           10
     kinetic-energy cutoff     =      10.0000  Ry
     charge density cutoff     =      40.0000  Ry
     convergence threshold     =      1.0E-08
     mixing beta               =       0.7000
     number of iterations used =            8  plain     mixing
     Exchange-correlation      = SLA PW PSX PSC ( 1  4 10  8 0 0)

     celldm(1)=   6.830000  celldm(2)=   0.000000  celldm(3)=   0.000000
     celldm(4)=   0.000000  celldm(5)=   0.000000  celldm(6)=   0.000000

     crystal axes: (cart. coord. in units of alat)
               a(1) = (  -0.500000   0.000000   0.500000 )  
               a(2) = (   0.000000   0.500000   0.500000 )  
               a(3) = (  -0.500000   0.500000   0.000000 )  

     reciprocal axes: (cart. coord. in units 2 pi/alat)
               b(1) = ( -1.000000 -1.000000  1.000000 )  
               b(2) = (  1.000000  1.000000  1.000000 )  
               b(3) = ( -1.000000  1.000000 -1.000000 )  


     PseudoPot. # 1 for Cu read from file:
     /home/lorenzo/pseudos/Cu/Cu.pbesol-dn-kjpaw_psl.1.0.0.UPF
     MD5 check sum: 1e9735a74797514c934643dbd229f231
     Pseudo is Projector augmented-wave + core cor, Zval = 11.0
     Generated using "atomic" code by A. Dal Corso v.6.3
     Shape of augmentation charge: PSQ
     Using radial grid of 1199 points,  6 beta functions with: 
                l(1) =   0
                l(2) =   0
                l(3) =   1
                l(4) =   1
                l(5) =   2
                l(6) =   2
     Q(r) pseudized with 0 coefficients 


     atomic species   valence    mass     pseudopotential
        Cu            11.00    63.54600     Cu( 1.00)

     48 Sym. Ops., with inversion, found



   Cartesian axes

     site n.     atom                  positions (alat units)
         1           Cu  tau(   1) = (   0.0000000   0.0000000   0.0000000  )

     number of k points=    47  gaussian smearing, width (Ry)=  0.0100
                       cart. coord. in units 2pi/alat
        k(    1) = (   0.0000000   0.0000000   0.0000000), wk =   0.0020000
        k(    2) = (  -0.1000000   0.1000000  -0.1000000), wk =   0.0160000
        k(    3) = (  -0.2000000   0.2000000  -0.2000000), wk =   0.0160000
        k(    4) = (  -0.3000000   0.3000000  -0.3000000), wk =   0.0160000
        k(    5) = (  -0.4000000   0.4000000  -0.4000000), wk =   0.0160000
        k(    6) = (   0.5000000  -0.5000000   0.5000000), wk =   0.0080000
        k(    7) = (   0.0000000   0.2000000   0.0000000), wk =   0.0120000
        k(    8) = (  -0.1000000   0.3000000  -0.1000000), wk =   0.0480000
        k(    9) = (  -0.2000000   0.4000000  -0.2000000), wk =   0.0480000
        k(   10) = (  -0.3000000   0.5000000  -0.3000000), wk =   0.0480000
        k(   11) = (   0.6000000  -0.4000000   0.6000000), wk =   0.0480000
        k(   12) = (   0.5000000  -0.3000000   0.5000000), wk =   0.0480000
        k(   13) = (   0.4000000  -0.2000000   0.4000000), wk =   0.0480000
        k(   14) = (   0.3000000  -0.1000000   0.3000000), wk =   0.0480000
        k(   15) = (   0.2000000   0.0000000   0.2000000), wk =   0.0240000
        k(   16) = (   0.0000000   0.4000000   0.0000000), wk =   0.0120000
        k(   17) = (  -0.1000000   0.5000000  -0.1000000), wk =   0.0480000
        k(   18) = (  -0.2000000   0.6000000  -0.2000000), wk =   0.0480000
        k(   19) = (   0.7000000  -0.3000000   0.7000000), wk =   0.0480000
        k(   20) = (   0.6000000  -0.2000000   0.6000000), wk =   0.0480000
        k(   21) = (   0.5000000  -0.1000000   0.5000000), wk =   0.0480000
        k(   22) = (   0.4000000   0.0000000   0.4000000), wk =   0.0240000
        k(   23) = (   0.0000000   0.6000000   0.0000000), wk =   0.0120000
        k(   24) = (  -0.1000000   0.7000000  -0.1000000), wk =   0.0480000
        k(   25) = (   0.8000000  -0.2000000   0.8000000), wk =   0.0480000
        k(   26) = (   0.7000000  -0.1000000   0.7000000), wk =   0.0480000
        k(   27) = (   0.6000000  -0.0000000   0.6000000), wk =   0.0240000
        k(   28) = (   0.0000000   0.8000000   0.0000000), wk =   0.0120000
        k(   29) = (   0.9000000  -0.1000000   0.9000000), wk =   0.0480000
        k(   30) = (   0.8000000   0.0000000   0.8000000), wk =   0.0240000
        k(   31) = (   0.0000000  -1.0000000   0.0000000), wk =   0.0060000
        k(   32) = (  -0.2000000   0.4000000   0.0000000), wk =   0.0480000
        k(   33) = (  -0.3000000   0.5000000  -0.1000000), wk =   0.0960000
        k(   34) = (   0.6000000  -0.4000000   0.8000000), wk =   0.0960000
        k(   35) = (   0.5000000  -0.3000000   0.7000000), wk =   0.0480000
        k(   36) = (  -0.2000000   0.6000000   0.0000000), wk =   0.0480000
        k(   37) = (   0.7000000  -0.3000000   0.9000000), wk =   0.0960000
        k(   38) = (   0.6000000  -0.2000000   0.8000000), wk =   0.0960000
        k(   39) = (   0.5000000  -0.1000000   0.7000000), wk =   0.0960000
        k(   40) = (   0.4000000   0.0000000   0.6000000), wk =   0.0480000
        k(   41) = (   0.8000000  -0.2000000   1.0000000), wk =   0.0480000
        k(   42) = (   0.7000000  -0.1000000   0.9000000), wk =   0.0960000
        k(   43) = (   0.6000000   0.0000000   0.8000000), wk =   0.0480000
        k(   44) = (  -0.2000000  -1.0000000   0.0000000), wk =   0.0240000
        k(   45) = (   0.6000000  -0.2000000   1.0000000), wk =   0.0480000
        k(   46) = (   0.5000000  -0.1000000   0.9000000), wk =   0.0480000
        k(   47) = (  -0.4000000  -1.0000000   0.0000000), wk =   0.0240000

     Dense  grid:      331 G-vectors     FFT dimensions: (   9,   9,   9)

     Estimated max dynamical RAM per process >       0.86 MB

     Estimated total dynamical RAM >       4.29 MB

     Check: negative/imaginary core charge=   -0.008419    0.000000

     Initial potential from superposition of free atoms

     starting charge   10.99979, renormalised to   11.00000
     Starting wfcs are    9 randomized atomic wfcs +    1 random wfcs
     Checking if some PAW data can be deallocated... 

     total cpu time spent up to now is        1.0 secs

     Self-consistent Calculation

     iteration #  1     ecut=    10.00 Ry     beta= 0.70
     Davidson diagonalization with overlap
     ethr =  1.00E-02,  avg # of iterations =  3.3

     total cpu time spent up to now is        1.2 secs

     total energy              =    -191.48203065 Ry
     Harris-Foulkes estimate   =    -205.17557661 Ry
     estimated scf accuracy    <      16.11284390 Ry

     iteration #  2     ecut=    10.00 Ry     beta= 0.70
     Davidson diagonalization with overlap
     ethr =  1.00E-02,  avg # of iterations =  2.7

     total cpu time spent up to now is        1.5 secs

     total energy              =    -197.06878359 Ry
     Harris-Foulkes estimate   =    -197.72454482 Ry
     estimated scf accuracy    <       1.10094417 Ry

     iteration #  3     ecut=    10.00 Ry     beta= 0.70
     Davidson diagonalization with overlap
     ethr =  1.00E-02,  avg # of iterations =  1.1

     total cpu time spent up to now is        1.6 secs

     total energy              =    -197.12728504 Ry
     Harris-Foulkes estimate   =    -197.16545424 Ry
     estimated scf accuracy    <       0.07012734 Ry

     iteration #  4     ecut=    10.00 Ry     beta= 0.70
     Davidson diagonalization with overlap
     ethr =  6.38E-04,  avg # of iterations =  2.0

     total cpu time spent up to now is        1.8 secs

     total energy              =    -197.13738785 Ry
     Harris-Foulkes estimate   =    -197.14030226 Ry
     estimated scf accuracy    <       0.00389282 Ry

     iteration #  5     ecut=    10.00 Ry     beta= 0.70
     Davidson diagonalization with overlap
     ethr =  3.54E-05,  avg # of iterations =  2.2

     total cpu time spent up to now is        2.0 secs

     total energy              =    -197.13809087 Ry
     Harris-Foulkes estimate   =    -197.13811304 Ry
     estimated scf accuracy    <       0.00001925 Ry

     iteration #  6     ecut=    10.00 Ry     beta= 0.70
     Davidson diagonalization with overlap
     ethr =  1.75E-07,  avg # of iterations =  2.1

     total cpu time spent up to now is        2.2 secs

     total energy              =    -197.13809585 Ry
     Harris-Foulkes estimate   =    -197.13809787 Ry
     estimated scf accuracy    <       0.00000333 Ry

     iteration #  7     ecut=    10.00 Ry     beta= 0.70
     Davidson diagonalization with overlap
     ethr =  3.02E-08,  avg # of iterations =  1.4

     total cpu time spent up to now is        2.4 secs

     total energy              =    -197.13809630 Ry
     Harris-Foulkes estimate   =    -197.13809632 Ry
     estimated scf accuracy    <       0.00000004 Ry

     iteration #  8     ecut=    10.00 Ry     beta= 0.70
     Davidson diagonalization with overlap
     ethr =  3.37E-10,  avg # of iterations =  2.1

     total cpu time spent up to now is        2.6 secs

     End of self-consistent calculation

          k = 0.0000 0.0000 0.0000 (    51 PWs)   bands (ev):

    -7.3249  -7.3249  -0.6530  -0.6530  -0.6530   1.2868  30.8102  30.8102
    30.8102  39.9468

          k =-0.1000 0.1000-0.1000 (    52 PWs)   bands (ev):

    -6.4596  -6.4596  -3.3595  -3.3595  -1.7179   1.6473  28.9507  30.5443
    30.5443  40.1713

          k =-0.2000 0.2000-0.2000 (    46 PWs)   bands (ev):

    -3.1528  -3.1528  -2.2255   2.7540   5.2999   5.2999  24.5773  29.9375
    29.9375  39.8299

          k =-0.3000 0.3000-0.3000 (    43 PWs)   bands (ev):

    -1.1901  -0.3242  -0.3242   4.7057   7.9738   7.9738  19.6816  28.9782
    28.9782  38.5193

          k =-0.4000 0.4000-0.4000 (    43 PWs)   bands (ev):

    -1.6121  -0.6365  -0.6365   7.4321   8.6851   8.6851  14.9896  28.1453
    28.1453  37.5096

          k = 0.5000-0.5000 0.5000 (    40 PWs)   bands (ev):

    -0.3533  -0.3533   2.4939  10.4899  12.2625  12.2625  13.1165  27.8048
    27.8048  37.1455

          k = 0.0000 0.2000 0.0000 (    51 PWs)   bands (ev):

    -7.1655  -6.6860  -2.8102  -2.8102   1.4213   2.1238  29.6769  29.6769
    29.7892  39.6269

          k =-0.1000 0.3000-0.1000 (    47 PWs)   bands (ev):

    -5.0080  -4.3778  -0.6705   2.6159   3.7419   4.0249  26.2436  28.6643
    29.8290  39.9518

          k =-0.2000 0.4000-0.2000 (    44 PWs)   bands (ev):

    -3.1415  -2.8849   3.2548   4.1873   5.8719   7.0838  21.5327  27.6226
    29.0566  38.4849

          k =-0.3000 0.5000-0.3000 (    44 PWs)   bands (ev):

    -3.3917  -2.9943   2.9237   6.1122   6.3874   8.1492  16.8499  27.0063
    27.7940  37.3924

          k = 0.6000-0.4000 0.6000 (    39 PWs)   bands (ev):

    -0.1804   1.5308   4.5238   9.4617  12.3625  13.1930  14.1653  26.7842
    27.1073  37.0361

          k = 0.5000-0.3000 0.5000 (    43 PWs)   bands (ev):

    -3.1356  -0.4664  -0.0840   7.7551   8.6717  11.0415  14.0622  25.9222
    27.9578  36.9709

          k = 0.4000-0.2000 0.4000 (    44 PWs)   bands (ev):

    -3.2462  -0.9629  -0.2369   5.4033   7.0685   7.9001  18.4081  26.1011
    29.2354  37.9480

          k = 0.3000-0.1000 0.3000 (    46 PWs)   bands (ev):

    -3.4171  -2.6019  -0.6640   1.6778   3.8479   6.6240  23.0429  26.9526
    30.3751  39.4862

          k = 0.2000 0.0000 0.2000 (    43 PWs)   bands (ev):

     0.5455   1.0196   2.1544   2.8984   3.6712   6.5354  27.2407  28.7262
    30.8983  40.9805

          k = 0.0000 0.4000 0.0000 (    43 PWs)   bands (ev):

    -1.9390   2.4636   3.9769   4.0478   4.0478   4.3731  27.2417  27.4818
    27.4818  39.0755

          k =-0.1000 0.5000-0.1000 (    45 PWs)   bands (ev):

    -4.1583   0.1771   1.1863   2.8684   4.9562   4.9673  23.2521  26.1854
    27.0062  37.5770

          k =-0.2000 0.6000-0.2000 (    44 PWs)   bands (ev):

    -2.6004   1.3109   1.7693   2.6126   6.6587   7.1227  18.9525  25.5061
    25.5343  36.6457

          k = 0.7000-0.3000 0.7000 (    41 PWs)   bands (ev):

    -1.7249   2.1591   2.1886   7.0034  10.7811  12.7099  15.1126  23.8441
    25.5958  36.5478

          k = 0.6000-0.2000 0.6000 (    38 PWs)   bands (ev):

     0.5903   5.1762   5.6703   8.1818  12.6019  13.3140  15.6875  22.8793
    26.7329  37.0377

          k = 0.5000-0.1000 0.5000 (    40 PWs)   bands (ev):

     0.3724   2.2266   5.6891   6.2933   8.2501  11.9171  18.0357  22.2962
    28.2213  37.7273

          k = 0.4000 0.0000 0.4000 (    43 PWs)   bands (ev):

    -0.3777   0.7681   2.8095   3.0102   6.1967   6.7077  21.2980  23.5797
    29.6926  38.7434

          k = 0.0000 0.6000 0.0000 (    44 PWs)   bands (ev):

    -3.0822  -2.2654   3.8450   5.5663   5.5663   5.6580  23.1535  24.7691
    24.7691  35.3906

          k =-0.1000 0.7000-0.1000 (    44 PWs)   bands (ev):

    -3.3672  -2.7344   3.6304   5.8148   6.4842   8.0083  20.0419  23.1258
    23.8553  35.0544

          k = 0.8000-0.2000 0.8000 (    44 PWs)   bands (ev):

    -4.2989  -2.0386   0.3362   5.7100  10.2162  11.6365  16.6916  20.7340
    23.6865  35.6326

          k = 0.7000-0.1000 0.7000 (    42 PWs)   bands (ev):

    -3.0730   1.7465   2.9930   5.7563  10.7972  13.3881  15.4982  19.0289
    24.7538  36.0974

          k = 0.6000-0.0000 0.6000 (    42 PWs)   bands (ev):

    -0.8953   1.3398   3.6957   5.4128   7.5537  12.3489  17.5703  18.2567
    26.4946  36.8135

          k = 0.0000 0.8000 0.0000 (    40 PWs)   bands (ev):

    -3.7897   0.2755   5.0290   9.2535  13.2301  13.2301  18.7835  22.8760
    22.8760  34.4233

          k = 0.9000-0.1000 0.9000 (    40 PWs)   bands (ev):

    -3.8221   0.2509   4.7968  10.6937  13.7510  14.1321  16.5510  21.0150
    22.3930  34.8286

          k = 0.8000 0.0000 0.8000 (    40 PWs)   bands (ev):

    -3.4650   0.6815   4.5230  10.4067  14.0160  14.5987  16.8485  18.4798
    23.1277  35.6885

          k = 0.0000-1.0000 0.0000 (    40 PWs)   bands (ev):

    -4.0291   0.0203   4.8394  12.3708  13.8856  13.8856  15.0859  21.7488
    21.7488  34.0207

          k =-0.2000 0.4000 0.0000 (    47 PWs)   bands (ev):

    -5.1459  -3.5013   0.9027   1.1712   3.5848   3.9832  24.2013  26.0953
    29.4617  39.2830

          k =-0.3000 0.5000-0.1000 (    43 PWs)   bands (ev):

    -1.7301   0.3817   3.0561   3.8205   6.3808   7.7638  20.2575  24.6676
    28.3872  38.2324

          k = 0.6000-0.4000 0.8000 (    42 PWs)   bands (ev):

    -0.9086  -0.0070   2.0988   6.2146   8.1574  11.5580  16.1466  24.1949
    26.8367  37.3198

          k = 0.5000-0.3000 0.7000 (    40 PWs)   bands (ev):

    -0.9359   0.7173   4.6098   8.3157  11.2802  13.8327  14.0454  24.4392
    26.0729  37.0556

          k =-0.2000 0.6000 0.0000 (    46 PWs)   bands (ev):

    -4.1854  -2.9020  -1.3024   4.4993   5.1199   6.6498  21.3217  23.5024
    25.7437  36.5891

          k = 0.7000-0.3000 0.9000 (    45 PWs)   bands (ev):

    -4.8410  -2.0989   1.2754   3.2081   7.3311  10.3396  17.9115  22.0611
    24.2625  36.8587

          k = 0.6000-0.2000 0.8000 (    41 PWs)   bands (ev):

    -1.3920   0.4348   3.3885   7.2270  11.2243  13.8292  15.4034  21.1436
    24.0074  37.2411

          k = 0.5000-0.1000 0.7000 (    41 PWs)   bands (ev):

    -1.3402   0.6900   3.3491   6.9394  10.6551  13.1059  16.9700  20.3312
    25.1208  37.5288

          k = 0.4000 0.0000 0.6000 (    43 PWs)   bands (ev):

    -1.9588  -1.6009   2.8151   5.2081   6.8795  11.0646  19.1679  21.0231
    26.7733  37.8224

          k = 0.8000-0.2000 1.0000 (    41 PWs)   bands (ev):

    -3.4942  -1.0821   4.5307   8.1566  12.3869  13.2267  18.2377  21.7075
    22.4410  35.7924

          k = 0.7000-0.1000 0.9000 (    41 PWs)   bands (ev):

    -3.2353  -0.8052   5.1108   8.1739  13.4837  14.0622  16.0092  19.4046
    22.1271  36.8598

          k = 0.6000 0.0000 0.8000 (    41 PWs)   bands (ev):

    -2.6507   1.6223   1.9473   9.0110  13.0253  13.6124  16.8801  17.4865
    23.3125  37.3990

          k =-0.2000-1.0000 0.0000 (    40 PWs)   bands (ev):

    -3.7319   0.3477   4.6589  11.0308  13.9816  15.0280  15.6887  20.5019
    21.3186  35.7316

          k = 0.6000-0.2000 1.0000 (    41 PWs)   bands (ev):

    -2.3179  -2.0383   4.6100   9.2969  12.3382  12.8256  17.7524  19.5058
    22.5440  38.3508

          k = 0.5000-0.1000 0.9000 (    40 PWs)   bands (ev):

    -1.4340  -0.8023   6.9611   8.3682  13.0529  14.4274  17.1923  18.5973
    21.8182  38.8966

          k =-0.4000-1.0000 0.0000 (    44 PWs)   bands (ev):

    -3.3816  -2.5592  -2.4810   7.4718  12.5502  14.8639  15.1186  17.8579
    20.1601  38.6921

     the Fermi energy is    13.0283 ev

!    total energy              =    -197.13809635 Ry
     Harris-Foulkes estimate   =    -197.13809631 Ry
     estimated scf accuracy    <          1.2E-10 Ry

     total all-electron energy =     -3294.017157 Ry

     The total energy is the sum of the following terms:

     one-electron contribution =      -1.66501687 Ry
     hartree contribution      =      12.05671445 Ry
     xc contribution           =     -38.72757267 Ry
     ewald contribution        =     -81.22522857 Ry
     one-center paw contrib.   =     -87.57644394 Ry
     smearing contrib. (-TS)   =      -0.00054875 Ry

     convergence has been achieved in   8 iterations

     Forces acting on atoms (cartesian axes, Ry/au):

     atom    1 type  1   force =     0.00000000    0.00000000    0.00000000

     Total force =     0.000000     Total SCF correction =     0.000000


     Computing stress (Cartesian axis) and pressure

          total   stress  (Ry/bohr**3)                   (kbar)     P=********
  -0.29347088  -0.00000000  -0.00000000     -43171.05     -0.00     -0.00
  -0.00000000  -0.29347088   0.00000000         -0.00 -43171.05      0.00
  -0.00000000   0.00000000  -0.29347088         -0.00      0.00 -43171.05


     Writing output data file Cu.save/

     init_run     :      0.19s CPU      0.21s WALL (       1 calls)
     electrons    :      1.41s CPU      1.66s WALL (       1 calls)
     forces       :      0.01s CPU      0.01s WALL (       1 calls)
     stress       :      0.02s CPU      0.02s WALL (       1 calls)

     Called by init_run:
     wfcinit      :      0.02s CPU      0.02s WALL (       1 calls)
     potinit      :      0.10s CPU      0.12s WALL (       1 calls)
     hinit0       :      0.05s CPU      0.05s WALL (       1 calls)

     Called by electrons:
     c_bands      :      0.60s CPU      0.72s WALL (       8 calls)
     sum_band     :      0.07s CPU      0.09s WALL (       8 calls)
     v_of_rho     :      0.00s CPU      0.00s WALL (       9 calls)
     newd         :      0.00s CPU      0.00s WALL (       9 calls)
     PAW_pot      :      0.83s CPU      0.95s WALL (       9 calls)
     mix_rho      :      0.00s CPU      0.00s WALL (       8 calls)

     Called by c_bands:
     init_us_2    :      0.01s CPU      0.01s WALL (     893 calls)
     cegterg      :      0.58s CPU      0.70s WALL (     376 calls)

     Called by sum_band:
     sum_band:bec :      0.00s CPU      0.00s WALL (     376 calls)
     addusdens    :      0.00s CPU      0.00s WALL (       8 calls)

     Called by *egterg:
     h_psi        :      0.32s CPU      0.39s WALL (    1218 calls)
     s_psi        :      0.01s CPU      0.01s WALL (    1218 calls)
     g_psi        :      0.00s CPU      0.00s WALL (     795 calls)
     cdiaghg      :      0.19s CPU      0.22s WALL (    1171 calls)

     Called by h_psi:
     h_psi:pot    :      0.31s CPU      0.38s WALL (    1218 calls)
     h_psi:calbec :      0.03s CPU      0.03s WALL (    1218 calls)
     vloc_psi     :      0.27s CPU      0.33s WALL (    1218 calls)
     add_vuspsi   :      0.01s CPU      0.01s WALL (    1218 calls)

     General routines
     calbec       :      0.04s CPU      0.04s WALL (    1829 calls)
     fft          :      0.00s CPU      0.00s WALL (     125 calls)
     ffts         :      0.00s CPU      0.00s WALL (       8 calls)
     fftw         :      0.27s CPU      0.34s WALL (   23260 calls)

     Parallel routines
     fft_scatt_xy :      0.03s CPU      0.04s WALL (   23393 calls)
     fft_scatt_yz :      0.12s CPU      0.15s WALL (   23393 calls)

     PWSCF        :     2.39s CPU         2.73s WALL


   This run was terminated on:  23: 8:44  25Mar2024            

=------------------------------------------------------------------------------=
   JOB DONE.
=------------------------------------------------------------------------------=
