
     Program PWSCF v.6.3MaX starts on 25Mar2024 at 23:16:51 

     This program is part of the open-source Quantum ESPRESSO suite
     for quantum simulation of materials; please cite
         "P. Giannozzi et al., J. Phys.:Condens. Matter 21 395502 (2009);
         "P. Giannozzi et al., J. Phys.:Condens. Matter 29 465901 (2017);
          URL http://www.quantum-espresso.org", 
     in publications or presentations arising from this work. More details at
     http://www.quantum-espresso.org/quote

     Parallel version (MPI), running on     5 processors

     MPI processes distributed on     1 nodes
     R & G space division:  proc/nbgrp/npool/nimage =       5
     Waiting for input...
     Reading input from standard input

     Current dimensions of program PWSCF are:
     Max number of different atomic species (ntypx) = 10
     Max number of k-points (npk) =  40000
     Max angular momentum in pseudopotentials (lmaxx) =  3
               file Cu.pbe-dn-kjpaw_psl.1.0.0.UPF: wavefunction(s)  4S 3D renormalized

     Subspace diagonalization in iterative solution of the eigenvalue problem:
     a serial algorithm will be used


     Parallelization info
     --------------------
     sticks:   dense  smooth     PW     G-vecs:    dense   smooth      PW
     Min          39      39     13                  361      361      77
     Max          40      40     15                  363      363      78
     Sum         199     199     73                 1807     1807     387



     bravais-lattice index     =            2
     lattice parameter (alat)  =       6.8300  a.u.
     unit-cell volume          =      79.6530 (a.u.)^3
     number of atoms/cell      =            1
     number of atomic types    =            1
     number of electrons       =        11.00
     number of Kohn-Sham states=           10
     kinetic-energy cutoff     =      30.0000  Ry
     charge density cutoff     =     120.0000  Ry
     convergence threshold     =      1.0E-08
     mixing beta               =       0.7000
     number of iterations used =            8  plain     mixing
     Exchange-correlation      = SLA PW PBX PBC ( 1  4  3  4 0 0)

     celldm(1)=   6.830000  celldm(2)=   0.000000  celldm(3)=   0.000000
     celldm(4)=   0.000000  celldm(5)=   0.000000  celldm(6)=   0.000000

     crystal axes: (cart. coord. in units of alat)
               a(1) = (  -0.500000   0.000000   0.500000 )  
               a(2) = (   0.000000   0.500000   0.500000 )  
               a(3) = (  -0.500000   0.500000   0.000000 )  

     reciprocal axes: (cart. coord. in units 2 pi/alat)
               b(1) = ( -1.000000 -1.000000  1.000000 )  
               b(2) = (  1.000000  1.000000  1.000000 )  
               b(3) = ( -1.000000  1.000000 -1.000000 )  


     PseudoPot. # 1 for Cu read from file:
     /home/lorenzo/pseudos/Cu/Cu.pbe-dn-kjpaw_psl.1.0.0.UPF
     MD5 check sum: cfffd1f38ee05704b3e17f46f1730a6f
     Pseudo is Projector augmented-wave + core cor, Zval = 11.0
     Generated using "atomic" code by A. Dal Corso v.6.3
     Shape of augmentation charge: PSQ
     Using radial grid of 1199 points,  6 beta functions with: 
                l(1) =   0
                l(2) =   0
                l(3) =   1
                l(4) =   1
                l(5) =   2
                l(6) =   2
     Q(r) pseudized with 0 coefficients 


     atomic species   valence    mass     pseudopotential
        Cu            11.00    63.54600     Cu( 1.00)

     48 Sym. Ops., with inversion, found



   Cartesian axes

     site n.     atom                  positions (alat units)
         1           Cu  tau(   1) = (   0.0000000   0.0000000   0.0000000  )

     number of k points=    20  gaussian smearing, width (Ry)=  0.0100
                       cart. coord. in units 2pi/alat
        k(    1) = (   0.0000000   0.0000000   0.0000000), wk =   0.0058309
        k(    2) = (  -0.1428571   0.1428571  -0.1428571), wk =   0.0466472
        k(    3) = (  -0.2857143   0.2857143  -0.2857143), wk =   0.0466472
        k(    4) = (  -0.4285714   0.4285714  -0.4285714), wk =   0.0466472
        k(    5) = (   0.0000000   0.2857143   0.0000000), wk =   0.0349854
        k(    6) = (  -0.1428571   0.4285714  -0.1428571), wk =   0.1399417
        k(    7) = (  -0.2857143   0.5714286  -0.2857143), wk =   0.1399417
        k(    8) = (   0.5714286  -0.2857143   0.5714286), wk =   0.1399417
        k(    9) = (   0.4285714  -0.1428571   0.4285714), wk =   0.1399417
        k(   10) = (   0.2857143  -0.0000000   0.2857143), wk =   0.0699708
        k(   11) = (   0.0000000   0.5714286   0.0000000), wk =   0.0349854
        k(   12) = (  -0.1428571   0.7142857  -0.1428571), wk =   0.1399417
        k(   13) = (   0.7142857  -0.1428571   0.7142857), wk =   0.1399417
        k(   14) = (   0.5714286   0.0000000   0.5714286), wk =   0.0699708
        k(   15) = (   0.0000000   0.8571429   0.0000000), wk =   0.0349854
        k(   16) = (   0.8571429  -0.0000000   0.8571429), wk =   0.0699708
        k(   17) = (  -0.2857143   0.5714286   0.0000000), wk =   0.1399417
        k(   18) = (   0.5714286  -0.2857143   0.8571429), wk =   0.2798834
        k(   19) = (   0.7142857  -0.1428571   1.0000000), wk =   0.1399417
        k(   20) = (   0.5714286   0.0000000   0.8571429), wk =   0.1399417

     Dense  grid:     1807 G-vectors     FFT dimensions: (  18,  18,  18)

     Estimated max dynamical RAM per process >       2.46 MB

     Estimated total dynamical RAM >      12.31 MB

     Check: negative/imaginary core charge=   -0.000038    0.000000

     Initial potential from superposition of free atoms

     starting charge   10.99977, renormalised to   11.00000
     Starting wfcs are    9 randomized atomic wfcs +    1 random wfcs
     Checking if some PAW data can be deallocated... 

     total cpu time spent up to now is        1.0 secs

     Self-consistent Calculation

     iteration #  1     ecut=    30.00 Ry     beta= 0.70
     Davidson diagonalization with overlap
     ethr =  1.00E-02,  avg # of iterations =  3.8

     Threshold (ethr) on eigenvalues was too large:
     Diagonalizing with lowered threshold

     Davidson diagonalization with overlap
     ethr =  6.18E-04,  avg # of iterations =  1.0

     total cpu time spent up to now is        1.3 secs

     total energy              =    -213.04350231 Ry
     Harris-Foulkes estimate   =    -213.09728935 Ry
     estimated scf accuracy    <       0.06776890 Ry

     iteration #  2     ecut=    30.00 Ry     beta= 0.70
     Davidson diagonalization with overlap
     ethr =  6.16E-04,  avg # of iterations =  2.1

     total cpu time spent up to now is        1.5 secs

     total energy              =    -213.04882306 Ry
     Harris-Foulkes estimate   =    -213.13641129 Ry
     estimated scf accuracy    <       0.22044565 Ry

     iteration #  3     ecut=    30.00 Ry     beta= 0.70
     Davidson diagonalization with overlap
     ethr =  6.16E-04,  avg # of iterations =  2.0

     total cpu time spent up to now is        1.7 secs

     total energy              =    -213.08389280 Ry
     Harris-Foulkes estimate   =    -213.08395239 Ry
     estimated scf accuracy    <       0.00014416 Ry

     iteration #  4     ecut=    30.00 Ry     beta= 0.70
     Davidson diagonalization with overlap
     ethr =  1.31E-06,  avg # of iterations =  2.5

     total cpu time spent up to now is        1.9 secs

     total energy              =    -213.08396842 Ry
     Harris-Foulkes estimate   =    -213.08397639 Ry
     estimated scf accuracy    <       0.00002621 Ry

     iteration #  5     ecut=    30.00 Ry     beta= 0.70
     Davidson diagonalization with overlap
     ethr =  2.38E-07,  avg # of iterations =  1.1

     total cpu time spent up to now is        2.1 secs

     End of self-consistent calculation

          k = 0.0000 0.0000 0.0000 (   229 PWs)   bands (ev):

     3.2838   9.6522   9.6522   9.6522  10.4778  10.4778  35.6031  37.9996
    37.9996  37.9996

          k =-0.1429 0.1429-0.1429 (   220 PWs)   bands (ev):

     4.0156   9.5085   9.7701   9.7701  10.4480  10.4480  30.6881  36.0724
    36.6296  36.6296

          k =-0.2857 0.2857-0.2857 (   217 PWs)   bands (ev):

     5.9575   9.4274   9.7805   9.7805  10.6539  10.6539  23.4825  35.1167
    35.3464  35.3464

          k =-0.4286 0.4286-0.4286 (   226 PWs)   bands (ev):

     7.4531   9.6350   9.6350  10.8703  10.9846  10.9846  17.6969  34.1479
    34.8221  34.8221

          k = 0.0000 0.2857 0.0000 (   218 PWs)   bands (ev):

     4.2559   9.3736   9.8791   9.8791  10.2426  10.5905  33.3843  33.3843
    33.5261  35.3457

          k =-0.1429 0.4286-0.1429 (   219 PWs)   bands (ev):

     5.8043   9.1269   9.7991  10.0258  10.5005  10.7575  26.2780  31.4751
    33.0413  34.7064

          k =-0.2857 0.5714-0.2857 (   221 PWs)   bands (ev):

     7.6029   9.2975   9.5974   9.9231  11.0313  11.7649  19.8282  30.6468
    31.0817  33.3793

          k = 0.5714-0.2857 0.5714 (   225 PWs)   bands (ev):

     7.9412   9.3654   9.8295   9.9481  10.9669  13.3266  16.8467  28.6474
    32.3692  33.7484

          k = 0.4286-0.1429 0.4286 (   217 PWs)   bands (ev):

     7.1614   9.2995   9.5862   9.9273  10.5346  11.5143  21.8527  28.0411
    35.3461  35.4759

          k = 0.2857-0.0000 0.2857 (   216 PWs)   bands (ev):

     5.1708   9.2924   9.8154   9.9732  10.2317  10.7629  28.4402  29.0946
    38.5937  38.8269

          k = 0.0000 0.5714 0.0000 (   218 PWs)   bands (ev):

     6.6938   8.7658  10.0974  10.4850  10.4850  10.8197  28.8292  28.8292
    29.1315  31.5057

          k =-0.1429 0.7143-0.1429 (   221 PWs)   bands (ev):

     7.8276   8.6034   9.9828  10.5277  11.0651  12.1205  23.2521  25.4765
    27.8374  32.0716

          k = 0.7143-0.1429 0.7143 (   224 PWs)   bands (ev):

     8.4305   8.7388   9.6734  10.3706  11.0042  15.6958  17.8284  22.9816
    28.7616  32.4291

          k = 0.5714 0.0000 0.5714 (   222 PWs)   bands (ev):

     8.4657   9.1006   9.2288  10.2208  10.6415  13.6028  20.7064  22.3935
    31.4418  33.6068

          k = 0.0000 0.8571 0.0000 (   222 PWs)   bands (ev):

     7.7616   8.3010  11.0069  11.0810  11.0810  12.8796  21.6106  26.1423
    26.1423  30.5627

          k = 0.8571-0.0000 0.8571 (   222 PWs)   bands (ev):

     7.9921   8.3727  10.5595  10.8621  11.1153  15.2954  20.0151  22.1064
    26.4860  31.6161

          k =-0.2857 0.5714 0.0000 (   219 PWs)   bands (ev):

     7.3739   8.9153   9.5035  10.4418  10.4925  11.6105  24.6901  25.4349
    30.0276  37.0488

          k = 0.5714-0.2857 0.8571 (   226 PWs)   bands (ev):

     8.4245   8.9613   9.3515  10.2527  10.9304  14.0088  18.9689  25.3181
    27.0308  37.0631

          k = 0.7143-0.1429 1.0000 (   216 PWs)   bands (ev):

     8.2035   8.5774   9.9044  10.7278  11.0878  14.6708  22.2569  22.4730
    23.4890  35.5929

          k = 0.5714 0.0000 0.8571 (   217 PWs)   bands (ev):

     8.5649   8.8422   9.3979  10.4560  11.0846  17.7631  18.2718  21.0204
    24.4086  37.1558

     the Fermi energy is    12.8593 ev

!    total energy              =    -213.08397241 Ry
     Harris-Foulkes estimate   =    -213.08397241 Ry
     estimated scf accuracy    <          2.4E-09 Ry

     total all-electron energy =     -3309.963738 Ry

     The total energy is the sum of the following terms:

     one-electron contribution =     -27.98496765 Ry
     hartree contribution      =      30.57836514 Ry
     xc contribution           =     -44.61259194 Ry
     ewald contribution        =     -81.22522858 Ry
     one-center paw contrib.   =     -89.83945285 Ry
     smearing contrib. (-TS)   =      -0.00009653 Ry

     convergence has been achieved in   5 iterations

     Forces acting on atoms (cartesian axes, Ry/au):

     atom    1 type  1   force =     0.00000000    0.00000000    0.00000000

     Total force =     0.000000     Total SCF correction =     0.000000


     Computing stress (Cartesian axis) and pressure

          total   stress  (Ry/bohr**3)                   (kbar)     P= -220.62
  -0.00149972  -0.00000000  -0.00000000       -220.62     -0.00     -0.00
  -0.00000000  -0.00149972   0.00000000         -0.00   -220.62      0.00
  -0.00000000   0.00000000  -0.00149972         -0.00      0.00   -220.62


     Writing output data file Cu.save/

     init_run     :      0.24s CPU      0.26s WALL (       1 calls)
     electrons    :      0.96s CPU      1.08s WALL (       1 calls)
     forces       :      0.01s CPU      0.01s WALL (       1 calls)
     stress       :      0.03s CPU      0.03s WALL (       1 calls)

     Called by init_run:
     wfcinit      :      0.03s CPU      0.03s WALL (       1 calls)
     potinit      :      0.11s CPU      0.12s WALL (       1 calls)
     hinit0       :      0.09s CPU      0.09s WALL (       1 calls)

     Called by electrons:
     c_bands      :      0.41s CPU      0.44s WALL (       6 calls)
     sum_band     :      0.08s CPU      0.08s WALL (       6 calls)
     v_of_rho     :      0.01s CPU      0.01s WALL (       6 calls)
     newd         :      0.01s CPU      0.01s WALL (       6 calls)
     PAW_pot      :      0.56s CPU      0.64s WALL (       6 calls)
     mix_rho      :      0.00s CPU      0.00s WALL (       6 calls)

     Called by c_bands:
     init_us_2    :      0.01s CPU      0.01s WALL (     300 calls)
     cegterg      :      0.39s CPU      0.42s WALL (     120 calls)

     Called by sum_band:
     sum_band:bec :      0.00s CPU      0.00s WALL (     120 calls)
     addusdens    :      0.01s CPU      0.01s WALL (       6 calls)

     Called by *egterg:
     h_psi        :      0.29s CPU      0.31s WALL (     388 calls)
     s_psi        :      0.01s CPU      0.01s WALL (     388 calls)
     g_psi        :      0.00s CPU      0.00s WALL (     248 calls)
     cdiaghg      :      0.07s CPU      0.07s WALL (     348 calls)

     Called by h_psi:
     h_psi:pot    :      0.29s CPU      0.31s WALL (     388 calls)
     h_psi:calbec :      0.02s CPU      0.02s WALL (     388 calls)
     vloc_psi     :      0.26s CPU      0.28s WALL (     388 calls)
     add_vuspsi   :      0.01s CPU      0.01s WALL (     388 calls)

     General routines
     calbec       :      0.02s CPU      0.02s WALL (     608 calls)
     fft          :      0.01s CPU      0.01s WALL (      93 calls)
     ffts         :      0.00s CPU      0.00s WALL (       6 calls)
     fftw         :      0.29s CPU      0.31s WALL (    7430 calls)

     Parallel routines
     fft_scatt_xy :      0.03s CPU      0.03s WALL (    7529 calls)
     fft_scatt_yz :      0.11s CPU      0.11s WALL (    7529 calls)

     PWSCF        :     2.02s CPU         2.21s WALL


   This run was terminated on:  23:16:53  25Mar2024            

=------------------------------------------------------------------------------=
   JOB DONE.
=------------------------------------------------------------------------------=
