
     Program PWSCF v.6.3MaX starts on 25Mar2024 at 23:35: 1 

     This program is part of the open-source Quantum ESPRESSO suite
     for quantum simulation of materials; please cite
         "P. Giannozzi et al., J. Phys.:Condens. Matter 21 395502 (2009);
         "P. Giannozzi et al., J. Phys.:Condens. Matter 29 465901 (2017);
          URL http://www.quantum-espresso.org", 
     in publications or presentations arising from this work. More details at
     http://www.quantum-espresso.org/quote

     Parallel version (MPI), running on     5 processors

     MPI processes distributed on     1 nodes
     R & G space division:  proc/nbgrp/npool/nimage =       5
     Waiting for input...
     Reading input from standard input

     Current dimensions of program PWSCF are:
     Max number of different atomic species (ntypx) = 10
     Max number of k-points (npk) =  40000
     Max angular momentum in pseudopotentials (lmaxx) =  3
               file Cu.pbesol-dn-rrkjus_psl.1.0.0.UPF: wavefunction(s)  3D renormalized

     Subspace diagonalization in iterative solution of the eigenvalue problem:
     a serial algorithm will be used


     Parallelization info
     --------------------
     sticks:   dense  smooth     PW     G-vecs:    dense   smooth      PW
     Min          95      95     30                 1375     1375     248
     Max          95      95     31                 1376     1376     251
     Sum         475     475    151                 6879     6879    1243



     bravais-lattice index     =            2
     lattice parameter (alat)  =       6.8300  a.u.
     unit-cell volume          =      79.6530 (a.u.)^3
     number of atoms/cell      =            1
     number of atomic types    =            1
     number of electrons       =        11.00
     number of Kohn-Sham states=           10
     kinetic-energy cutoff     =      75.0000  Ry
     charge density cutoff     =     300.0000  Ry
     convergence threshold     =      1.0E-08
     mixing beta               =       0.7000
     number of iterations used =            8  plain     mixing
     Exchange-correlation      = PBESOL ( 1  4 10  8 0 0)

     celldm(1)=   6.830000  celldm(2)=   0.000000  celldm(3)=   0.000000
     celldm(4)=   0.000000  celldm(5)=   0.000000  celldm(6)=   0.000000

     crystal axes: (cart. coord. in units of alat)
               a(1) = (  -0.500000   0.000000   0.500000 )  
               a(2) = (   0.000000   0.500000   0.500000 )  
               a(3) = (  -0.500000   0.500000   0.000000 )  

     reciprocal axes: (cart. coord. in units 2 pi/alat)
               b(1) = ( -1.000000 -1.000000  1.000000 )  
               b(2) = (  1.000000  1.000000  1.000000 )  
               b(3) = ( -1.000000  1.000000 -1.000000 )  


     PseudoPot. # 1 for Cu read from file:
     /home/lorenzo/pseudos/Cu/Cu.pbesol-dn-rrkjus_psl.1.0.0.UPF
     MD5 check sum: bfa4c7aafbc42e028d5f4ccf7ceed93d
     Pseudo is Ultrasoft + core correction, Zval = 11.0
     Generated using "atomic" code by A. Dal Corso v.6.3
     Using radial grid of 1199 points,  6 beta functions with: 
                l(1) =   0
                l(2) =   0
                l(3) =   1
                l(4) =   1
                l(5) =   2
                l(6) =   2
     Q(r) pseudized with 0 coefficients 


     atomic species   valence    mass     pseudopotential
        Cu            11.00    63.54600     Cu( 1.00)

     48 Sym. Ops., with inversion, found



   Cartesian axes

     site n.     atom                  positions (alat units)
         1           Cu  tau(   1) = (   0.0000000   0.0000000   0.0000000  )

     number of k points=    47  gaussian smearing, width (Ry)=  0.0100
                       cart. coord. in units 2pi/alat
        k(    1) = (   0.0000000   0.0000000   0.0000000), wk =   0.0020000
        k(    2) = (  -0.1000000   0.1000000  -0.1000000), wk =   0.0160000
        k(    3) = (  -0.2000000   0.2000000  -0.2000000), wk =   0.0160000
        k(    4) = (  -0.3000000   0.3000000  -0.3000000), wk =   0.0160000
        k(    5) = (  -0.4000000   0.4000000  -0.4000000), wk =   0.0160000
        k(    6) = (   0.5000000  -0.5000000   0.5000000), wk =   0.0080000
        k(    7) = (   0.0000000   0.2000000   0.0000000), wk =   0.0120000
        k(    8) = (  -0.1000000   0.3000000  -0.1000000), wk =   0.0480000
        k(    9) = (  -0.2000000   0.4000000  -0.2000000), wk =   0.0480000
        k(   10) = (  -0.3000000   0.5000000  -0.3000000), wk =   0.0480000
        k(   11) = (   0.6000000  -0.4000000   0.6000000), wk =   0.0480000
        k(   12) = (   0.5000000  -0.3000000   0.5000000), wk =   0.0480000
        k(   13) = (   0.4000000  -0.2000000   0.4000000), wk =   0.0480000
        k(   14) = (   0.3000000  -0.1000000   0.3000000), wk =   0.0480000
        k(   15) = (   0.2000000   0.0000000   0.2000000), wk =   0.0240000
        k(   16) = (   0.0000000   0.4000000   0.0000000), wk =   0.0120000
        k(   17) = (  -0.1000000   0.5000000  -0.1000000), wk =   0.0480000
        k(   18) = (  -0.2000000   0.6000000  -0.2000000), wk =   0.0480000
        k(   19) = (   0.7000000  -0.3000000   0.7000000), wk =   0.0480000
        k(   20) = (   0.6000000  -0.2000000   0.6000000), wk =   0.0480000
        k(   21) = (   0.5000000  -0.1000000   0.5000000), wk =   0.0480000
        k(   22) = (   0.4000000   0.0000000   0.4000000), wk =   0.0240000
        k(   23) = (   0.0000000   0.6000000   0.0000000), wk =   0.0120000
        k(   24) = (  -0.1000000   0.7000000  -0.1000000), wk =   0.0480000
        k(   25) = (   0.8000000  -0.2000000   0.8000000), wk =   0.0480000
        k(   26) = (   0.7000000  -0.1000000   0.7000000), wk =   0.0480000
        k(   27) = (   0.6000000  -0.0000000   0.6000000), wk =   0.0240000
        k(   28) = (   0.0000000   0.8000000   0.0000000), wk =   0.0120000
        k(   29) = (   0.9000000  -0.1000000   0.9000000), wk =   0.0480000
        k(   30) = (   0.8000000   0.0000000   0.8000000), wk =   0.0240000
        k(   31) = (   0.0000000  -1.0000000   0.0000000), wk =   0.0060000
        k(   32) = (  -0.2000000   0.4000000   0.0000000), wk =   0.0480000
        k(   33) = (  -0.3000000   0.5000000  -0.1000000), wk =   0.0960000
        k(   34) = (   0.6000000  -0.4000000   0.8000000), wk =   0.0960000
        k(   35) = (   0.5000000  -0.3000000   0.7000000), wk =   0.0480000
        k(   36) = (  -0.2000000   0.6000000   0.0000000), wk =   0.0480000
        k(   37) = (   0.7000000  -0.3000000   0.9000000), wk =   0.0960000
        k(   38) = (   0.6000000  -0.2000000   0.8000000), wk =   0.0960000
        k(   39) = (   0.5000000  -0.1000000   0.7000000), wk =   0.0960000
        k(   40) = (   0.4000000   0.0000000   0.6000000), wk =   0.0480000
        k(   41) = (   0.8000000  -0.2000000   1.0000000), wk =   0.0480000
        k(   42) = (   0.7000000  -0.1000000   0.9000000), wk =   0.0960000
        k(   43) = (   0.6000000   0.0000000   0.8000000), wk =   0.0480000
        k(   44) = (  -0.2000000  -1.0000000   0.0000000), wk =   0.0240000
        k(   45) = (   0.6000000  -0.2000000   1.0000000), wk =   0.0480000
        k(   46) = (   0.5000000  -0.1000000   0.9000000), wk =   0.0480000
        k(   47) = (  -0.4000000  -1.0000000   0.0000000), wk =   0.0240000

     Dense  grid:     6879 G-vectors     FFT dimensions: (  27,  27,  27)

     Estimated max dynamical RAM per process >       7.93 MB

     Estimated total dynamical RAM >      39.63 MB

     Initial potential from superposition of free atoms

     starting charge   10.99979, renormalised to   11.00000
     Starting wfcs are    9 randomized atomic wfcs +    1 random wfcs

     total cpu time spent up to now is        1.0 secs

     Self-consistent Calculation

     iteration #  1     ecut=    75.00 Ry     beta= 0.70
     Davidson diagonalization with overlap
     ethr =  1.00E-02,  avg # of iterations =  3.7

     Threshold (ethr) on eigenvalues was too large:
     Diagonalizing with lowered threshold

     Davidson diagonalization with overlap
     ethr =  6.93E-04,  avg # of iterations =  1.1

     total cpu time spent up to now is        2.2 secs

     total energy              =    -122.36375288 Ry
     Harris-Foulkes estimate   =    -122.42410288 Ry
     estimated scf accuracy    <       0.07592059 Ry

     iteration #  2     ecut=    75.00 Ry     beta= 0.70
     Davidson diagonalization with overlap
     ethr =  6.90E-04,  avg # of iterations =  2.1

     total cpu time spent up to now is        2.7 secs

     total energy              =    -122.36547813 Ry
     Harris-Foulkes estimate   =    -122.47271880 Ry
     estimated scf accuracy    <       0.27973142 Ry

     iteration #  3     ecut=    75.00 Ry     beta= 0.70
     Davidson diagonalization with overlap
     ethr =  6.90E-04,  avg # of iterations =  2.1

     total cpu time spent up to now is        3.1 secs

     total energy              =    -122.40901949 Ry
     Harris-Foulkes estimate   =    -122.40906142 Ry
     estimated scf accuracy    <       0.00010931 Ry

     iteration #  4     ecut=    75.00 Ry     beta= 0.70
     Davidson diagonalization with overlap
     ethr =  9.94E-07,  avg # of iterations =  2.5

     total cpu time spent up to now is        3.7 secs

     total energy              =    -122.40909521 Ry
     Harris-Foulkes estimate   =    -122.40910040 Ry
     estimated scf accuracy    <       0.00001501 Ry

     iteration #  5     ecut=    75.00 Ry     beta= 0.70
     Davidson diagonalization with overlap
     ethr =  1.36E-07,  avg # of iterations =  1.1

     total cpu time spent up to now is        4.0 secs

     total energy              =    -122.40909805 Ry
     Harris-Foulkes estimate   =    -122.40909826 Ry
     estimated scf accuracy    <       0.00000064 Ry

     iteration #  6     ecut=    75.00 Ry     beta= 0.70
     Davidson diagonalization with overlap
     ethr =  5.78E-09,  avg # of iterations =  1.3

     total cpu time spent up to now is        4.4 secs

     End of self-consistent calculation

          k = 0.0000 0.0000 0.0000 (   893 PWs)   bands (ev):

     3.0491   9.4804   9.4804   9.4804  10.3149  10.3149  35.3873  37.7543
    37.7543  37.7543

          k =-0.1000 0.1000-0.1000 (   887 PWs)   bands (ev):

     3.4113   9.4055   9.5457   9.5457  10.2919  10.2919  32.6011  36.0287
    36.7959  36.7959

          k =-0.2000 0.2000-0.2000 (   887 PWs)   bands (ev):

     4.4525   9.2530   9.6430   9.6430  10.3142  10.3142  27.3918  35.5336
    35.6551  35.6551

          k =-0.3000 0.3000-0.3000 (   875 PWs)   bands (ev):

     5.9475   9.2875   9.5977   9.5977  10.5265  10.5265  22.5375  34.7659
    34.9203  34.9203

          k =-0.4000 0.4000-0.4000 (   869 PWs)   bands (ev):

     7.1074   9.4926   9.4926  10.1965  10.7837  10.7837  18.4063  34.0670
    34.5815  34.5815

          k = 0.5000-0.5000 0.5000 (   862 PWs)   bands (ev):

     7.3815   9.4461   9.4461  10.8925  10.8925  11.4097  16.2211  33.7958
    34.5076  34.5076

          k = 0.0000 0.2000 0.0000 (   889 PWs)   bands (ev):

     3.5313   9.3383   9.5962   9.5962  10.1879  10.3671  33.9806  34.6336
    34.6336  36.1684

          k =-0.1000 0.3000-0.1000 (   889 PWs)   bands (ev):

     4.3455   9.1755   9.7009   9.7217  10.1248  10.4297  29.3532  33.0543
    34.0167  37.2709

          k =-0.2000 0.4000-0.2000 (   876 PWs)   bands (ev):

     5.7103   9.0660   9.5946   9.7408  10.4192  10.6043  24.3423  32.1120
    33.3092  35.4884

          k =-0.3000 0.5000-0.3000 (   872 PWs)   bands (ev):

     7.0620   9.3240   9.4694   9.6489  10.8234  11.0851  19.8989  31.8666
    32.3417  33.7977

          k = 0.6000-0.4000 0.6000 (   865 PWs)   bands (ev):

     7.5528   9.3174   9.5689  10.0204  10.9000  12.3445  16.6442  30.9729
    32.3933  33.5530

          k = 0.5000-0.3000 0.5000 (   872 PWs)   bands (ev):

     7.4812   9.3573   9.5696   9.9179  10.7555  11.9620  17.4966  30.0657
    33.7327  34.1187

          k = 0.4000-0.2000 0.4000 (   879 PWs)   bands (ev):

     6.6881   9.2449   9.4917   9.6592  10.4476  11.0619  21.3066  29.8287
    35.3578  35.8450

          k = 0.3000-0.1000 0.3000 (   883 PWs)   bands (ev):

     5.2154   9.1232   9.6283   9.7562  10.1560  10.6253  25.9701  30.2420
    37.0859  38.5136

          k = 0.2000 0.0000 0.2000 (   891 PWs)   bands (ev):

     4.0011   9.2770   9.6365   9.6474  10.1673  10.3887  30.7994  31.5798
    37.5000  39.0824

          k = 0.0000 0.4000 0.0000 (   869 PWs)   bands (ev):

     4.9024   8.9734   9.9105   9.9254   9.9254  10.5050  31.0800  31.0800
    32.1825  33.2621

          k =-0.1000 0.5000-0.1000 (   864 PWs)   bands (ev):

     6.0114   8.7828   9.6572  10.0537  10.3987  10.6473  26.6390  29.8071
    31.0653  32.7670

          k =-0.2000 0.6000-0.2000 (   876 PWs)   bands (ev):

     7.2768   8.7403   9.4343  10.0041  10.8545  11.3563  22.0089  28.7691
    29.3244  32.4845

          k = 0.7000-0.3000 0.7000 (   868 PWs)   bands (ev):

     7.9371   8.8827   9.4460   9.9061  10.9202  13.1613  18.0631  26.8922
    29.7078  32.5395

          k = 0.6000-0.2000 0.6000 (   857 PWs)   bands (ev):

     8.0444   8.9884   9.4699   9.8514  10.7575  13.9235  17.0868  25.6421
    30.9634  33.0826

          k = 0.5000-0.1000 0.5000 (   876 PWs)   bands (ev):

     7.6892   9.0833   9.2065   9.8785  10.4248  12.1713  20.6322  25.1023
    33.0026  34.2170

          k = 0.4000 0.0000 0.4000 (   871 PWs)   bands (ev):

     6.4845   8.9739   9.4595   9.9711  10.0681  11.1861  24.7820  25.5920
    35.6774  35.9387

          k = 0.0000 0.6000 0.0000 (   866 PWs)   bands (ev):

     6.7061   8.5363  10.0097  10.3961  10.3961  10.6775  27.9985  28.1804
    28.1804  30.9478

          k =-0.1000 0.7000-0.1000 (   873 PWs)   bands (ev):

     7.4516   8.3968   9.9945  10.4551  10.8597  11.4340  24.5781  25.4031
    27.3772  31.5126

          k = 0.8000-0.2000 0.8000 (   873 PWs)   bands (ev):

     7.9729   8.4235   9.7605  10.3585  10.9486  13.5783  20.4551  23.3206
    27.5110  31.7254

          k = 0.7000-0.1000 0.7000 (   879 PWs)   bands (ev):

     8.3219   8.5573   9.4703  10.2428  10.8045  16.1868  17.2373  21.9226
    28.5856  32.1398

          k = 0.6000-0.0000 0.6000 (   871 PWs)   bands (ev):

     8.3824   8.8239   9.1233  10.1064  10.5517  14.0173  19.7946  21.7134
    30.4776  32.9669

          k = 0.0000 0.8000 0.0000 (   882 PWs)   bands (ev):

     7.5383   8.1937  10.8188  10.8453  10.8453  11.8623  22.6195  26.2273
    26.2273  30.2622

          k = 0.9000-0.1000 0.9000 (   873 PWs)   bands (ev):

     7.7051   8.1631  10.5920  10.7474  10.9885  13.8038  20.6481  23.4455
    26.0464  31.0188

          k = 0.8000 0.0000 0.8000 (   870 PWs)   bands (ev):

     8.0006   8.3097  10.0253  10.5778  10.9097  15.9187  19.6730  20.1726
    26.8761  31.5110

          k = 0.0000-1.0000 0.0000 (   846 PWs)   bands (ev):

     7.5932   8.0653  10.8732  11.0381  11.0381  13.9091  19.5718  25.5254
    25.5254  30.0448

          k =-0.2000 0.4000 0.0000 (   877 PWs)   bands (ev):

     5.3284   8.9929   9.6379   9.9368  10.1031  10.6437  27.8530  28.4812
    34.6015  36.0918

          k =-0.3000 0.5000-0.1000 (   871 PWs)   bands (ev):

     6.7072   8.9083   9.4151   9.9391  10.3985  11.1585  23.2834  27.5874
    32.0680  36.1828

          k = 0.6000-0.4000 0.8000 (   877 PWs)   bands (ev):

     7.7102   9.0906   9.3323   9.8339  10.7379  12.2867  19.0618  27.6408
    29.9730  35.6650

          k = 0.5000-0.3000 0.7000 (   868 PWs)   bands (ev):

     7.9183   9.0596   9.5985   9.7730  10.8491  13.7672  16.5078  28.2280
    28.6873  35.4461

          k =-0.2000 0.6000 0.0000 (   872 PWs)   bands (ev):

     7.0444   8.6175   9.5240  10.3950  10.4437  11.1804  25.4816  26.0692
    28.4760  34.3209

          k = 0.7000-0.3000 0.9000 (   875 PWs)   bands (ev):

     7.9226   8.6117   9.3402  10.2834  10.7754  12.5845  21.3332  25.6296
    26.1970  34.8929

          k = 0.6000-0.2000 0.8000 (   870 PWs)   bands (ev):

     8.3157   8.6698   9.3019  10.1359  10.8609  14.9490  17.6434  24.4257
    26.3019  35.2510

          k = 0.5000-0.1000 0.7000 (   871 PWs)   bands (ev):

     8.3753   8.7788   9.1301  10.1026  10.7085  14.2217  18.7252  23.4038
    27.6370  36.1299

          k = 0.4000 0.0000 0.6000 (   878 PWs)   bands (ev):

     7.8327   8.8423   9.1156  10.1576  10.4184  12.2669  22.3561  23.4909
    29.5975  37.5390

          k = 0.8000-0.2000 1.0000 (   866 PWs)   bands (ev):

     7.7890   8.3169  10.0067  10.6985  10.8434  12.9346  22.9509  23.8536
    24.5215  33.2720

          k = 0.7000-0.1000 0.9000 (   874 PWs)   bands (ev):

     8.0917   8.4152   9.7182  10.4921  10.9557  15.3714  20.2281  21.2497
    24.6507  34.2764

          k = 0.6000 0.0000 0.8000 (   875 PWs)   bands (ev):

     8.4229   8.5746   9.3097  10.2943  10.8468  16.8737  17.9891  20.7463
    25.8235  35.0667

          k =-0.2000-1.0000 0.0000 (   874 PWs)   bands (ev):

     7.8105   8.2033  10.3492  10.7075  11.0383  15.0300  19.7540  23.2573
    23.9428  32.9322

          k = 0.6000-0.2000 1.0000 (   878 PWs)   bands (ev):

     8.3302   8.6920   9.1213  10.3542  10.8401  14.6597  20.7095  22.2181
    24.0459  38.3463

          k = 0.5000-0.1000 0.9000 (   870 PWs)   bands (ev):

     8.4319   8.7996   9.0321  10.2570  10.9457  17.2562  17.8659  22.4499
    22.6744  38.8936

          k =-0.4000-1.0000 0.0000 (   880 PWs)   bands (ev):

     8.2493   8.6294   9.3618  10.3508  11.0388  17.2971  20.1048  20.3855
    21.8255  37.9609

     the Fermi energy is    12.3867 ev

!    total energy              =    -122.40909817 Ry
     Harris-Foulkes estimate   =    -122.40909817 Ry
     estimated scf accuracy    <          8.8E-10 Ry

     The total energy is the sum of the following terms:

     one-electron contribution =     -27.59485666 Ry
     hartree contribution      =      30.52167901 Ry
     xc contribution           =     -44.11030509 Ry
     ewald contribution        =     -81.22522855 Ry
     smearing contrib. (-TS)   =      -0.00038688 Ry

     convergence has been achieved in   6 iterations

     Forces acting on atoms (cartesian axes, Ry/au):

     atom    1 type  1   force =     0.00000000    0.00000000    0.00000000

     Total force =     0.000000     Total SCF correction =     0.000000


     Computing stress (Cartesian axis) and pressure

          total   stress  (Ry/bohr**3)                   (kbar)     P=  -56.33
  -0.00038292   0.00000000  -0.00000000        -56.33      0.00     -0.00
   0.00000000  -0.00038292  -0.00000000          0.00    -56.33     -0.00
  -0.00000000  -0.00000000  -0.00038292         -0.00     -0.00    -56.33


     Writing output data file Cu.save/

     init_run     :      0.32s CPU      0.32s WALL (       1 calls)
     electrons    :      3.20s CPU      3.36s WALL (       1 calls)
     forces       :      0.05s CPU      0.06s WALL (       1 calls)
     stress       :      0.17s CPU      0.17s WALL (       1 calls)

     Called by init_run:
     wfcinit      :      0.15s CPU      0.15s WALL (       1 calls)
     potinit      :      0.01s CPU      0.01s WALL (       1 calls)
     hinit0       :      0.15s CPU      0.16s WALL (       1 calls)

     Called by electrons:
     c_bands      :      2.55s CPU      2.68s WALL (       7 calls)
     sum_band     :      0.57s CPU      0.60s WALL (       7 calls)
     v_of_rho     :      0.04s CPU      0.04s WALL (       7 calls)
     newd         :      0.05s CPU      0.05s WALL (       7 calls)
     mix_rho      :      0.00s CPU      0.00s WALL (       7 calls)

     Called by c_bands:
     init_us_2    :      0.09s CPU      0.09s WALL (     799 calls)
     cegterg      :      2.42s CPU      2.55s WALL (     329 calls)

     Called by sum_band:
     sum_band:bec :      0.00s CPU      0.00s WALL (     329 calls)
     addusdens    :      0.05s CPU      0.05s WALL (       7 calls)

     Called by *egterg:
     h_psi        :      2.00s CPU      2.11s WALL (    1028 calls)
     s_psi        :      0.06s CPU      0.07s WALL (    1028 calls)
     g_psi        :      0.01s CPU      0.01s WALL (     652 calls)
     cdiaghg      :      0.19s CPU      0.20s WALL (     934 calls)

     Called by h_psi:
     h_psi:pot    :      1.99s CPU      2.10s WALL (    1028 calls)
     h_psi:calbec :      0.08s CPU      0.09s WALL (    1028 calls)
     vloc_psi     :      1.84s CPU      1.94s WALL (    1028 calls)
     add_vuspsi   :      0.07s CPU      0.07s WALL (    1028 calls)

     General routines
     calbec       :      0.15s CPU      0.16s WALL (    1592 calls)
     fft          :      0.02s CPU      0.02s WALL (     104 calls)
     ffts         :      0.00s CPU      0.00s WALL (       7 calls)
     fftw         :      2.12s CPU      2.23s WALL (   19938 calls)

     Parallel routines
     fft_scatt_xy :      0.19s CPU      0.20s WALL (   20049 calls)
     fft_scatt_yz :      0.43s CPU      0.45s WALL (   20049 calls)

     PWSCF        :     4.50s CPU         4.77s WALL


   This run was terminated on:  23:35: 6  25Mar2024            

=------------------------------------------------------------------------------=
   JOB DONE.
=------------------------------------------------------------------------------=
