
     Program PWSCF v.6.3MaX starts on 25Mar2024 at 23:24:35 

     This program is part of the open-source Quantum ESPRESSO suite
     for quantum simulation of materials; please cite
         "P. Giannozzi et al., J. Phys.:Condens. Matter 21 395502 (2009);
         "P. Giannozzi et al., J. Phys.:Condens. Matter 29 465901 (2017);
          URL http://www.quantum-espresso.org", 
     in publications or presentations arising from this work. More details at
     http://www.quantum-espresso.org/quote

     Parallel version (MPI), running on     5 processors

     MPI processes distributed on     1 nodes
     R & G space division:  proc/nbgrp/npool/nimage =       5
     Waiting for input...
     Reading input from standard input

     Current dimensions of program PWSCF are:
     Max number of different atomic species (ntypx) = 10
     Max number of k-points (npk) =  40000
     Max angular momentum in pseudopotentials (lmaxx) =  3
               file Cu.pbe-dn-kjpaw_psl.1.0.0.UPF: wavefunction(s)  4S 3D renormalized

     Subspace diagonalization in iterative solution of the eigenvalue problem:
     a serial algorithm will be used


     Parallelization info
     --------------------
     sticks:   dense  smooth     PW     G-vecs:    dense   smooth      PW
     Min          62      62     21                  765      765     144
     Max          63      63     22                  770      770     146
     Sum         313     313    109                 3839     3839     725



     bravais-lattice index     =            2
     lattice parameter (alat)  =       6.8300  a.u.
     unit-cell volume          =      79.6530 (a.u.)^3
     number of atoms/cell      =            1
     number of atomic types    =            1
     number of electrons       =        11.00
     number of Kohn-Sham states=           10
     kinetic-energy cutoff     =      50.0000  Ry
     charge density cutoff     =     200.0000  Ry
     convergence threshold     =      1.0E-08
     mixing beta               =       0.7000
     number of iterations used =            8  plain     mixing
     Exchange-correlation      = SLA PW PBX PBC ( 1  4  3  4 0 0)

     celldm(1)=   6.830000  celldm(2)=   0.000000  celldm(3)=   0.000000
     celldm(4)=   0.000000  celldm(5)=   0.000000  celldm(6)=   0.000000

     crystal axes: (cart. coord. in units of alat)
               a(1) = (  -0.500000   0.000000   0.500000 )  
               a(2) = (   0.000000   0.500000   0.500000 )  
               a(3) = (  -0.500000   0.500000   0.000000 )  

     reciprocal axes: (cart. coord. in units 2 pi/alat)
               b(1) = ( -1.000000 -1.000000  1.000000 )  
               b(2) = (  1.000000  1.000000  1.000000 )  
               b(3) = ( -1.000000  1.000000 -1.000000 )  


     PseudoPot. # 1 for Cu read from file:
     /home/lorenzo/pseudos/Cu/Cu.pbe-dn-kjpaw_psl.1.0.0.UPF
     MD5 check sum: cfffd1f38ee05704b3e17f46f1730a6f
     Pseudo is Projector augmented-wave + core cor, Zval = 11.0
     Generated using "atomic" code by A. Dal Corso v.6.3
     Shape of augmentation charge: PSQ
     Using radial grid of 1199 points,  6 beta functions with: 
                l(1) =   0
                l(2) =   0
                l(3) =   1
                l(4) =   1
                l(5) =   2
                l(6) =   2
     Q(r) pseudized with 0 coefficients 


     atomic species   valence    mass     pseudopotential
        Cu            11.00    63.54600     Cu( 1.00)

     48 Sym. Ops., with inversion, found



   Cartesian axes

     site n.     atom                  positions (alat units)
         1           Cu  tau(   1) = (   0.0000000   0.0000000   0.0000000  )

     number of k points=    16  gaussian smearing, width (Ry)=  0.0100
                       cart. coord. in units 2pi/alat
        k(    1) = (   0.0000000   0.0000000   0.0000000), wk =   0.0092593
        k(    2) = (  -0.1666667   0.1666667  -0.1666667), wk =   0.0740741
        k(    3) = (  -0.3333333   0.3333333  -0.3333333), wk =   0.0740741
        k(    4) = (   0.5000000  -0.5000000   0.5000000), wk =   0.0370370
        k(    5) = (   0.0000000   0.3333333   0.0000000), wk =   0.0555556
        k(    6) = (  -0.1666667   0.5000000  -0.1666667), wk =   0.2222222
        k(    7) = (   0.6666667  -0.3333333   0.6666667), wk =   0.2222222
        k(    8) = (   0.5000000  -0.1666667   0.5000000), wk =   0.2222222
        k(    9) = (   0.3333333   0.0000000   0.3333333), wk =   0.1111111
        k(   10) = (   0.0000000   0.6666667   0.0000000), wk =   0.0555556
        k(   11) = (   0.8333333  -0.1666667   0.8333333), wk =   0.2222222
        k(   12) = (   0.6666667  -0.0000000   0.6666667), wk =   0.1111111
        k(   13) = (   0.0000000  -1.0000000   0.0000000), wk =   0.0277778
        k(   14) = (   0.6666667  -0.3333333   1.0000000), wk =   0.2222222
        k(   15) = (   0.5000000  -0.1666667   0.8333333), wk =   0.2222222
        k(   16) = (  -0.3333333  -1.0000000   0.0000000), wk =   0.1111111

     Dense  grid:     3839 G-vectors     FFT dimensions: (  24,  24,  24)

     Estimated max dynamical RAM per process >       4.39 MB

     Estimated total dynamical RAM >      21.93 MB

     Check: negative/imaginary core charge=   -0.000002    0.000000

     Initial potential from superposition of free atoms

     starting charge   10.99977, renormalised to   11.00000
     Starting wfcs are    9 randomized atomic wfcs +    1 random wfcs
     Checking if some PAW data can be deallocated... 

     total cpu time spent up to now is        1.1 secs

     Self-consistent Calculation

     iteration #  1     ecut=    50.00 Ry     beta= 0.70
     Davidson diagonalization with overlap
     ethr =  1.00E-02,  avg # of iterations =  3.6

     Threshold (ethr) on eigenvalues was too large:
     Diagonalizing with lowered threshold

     Davidson diagonalization with overlap
     ethr =  5.52E-04,  avg # of iterations =  1.3

     total cpu time spent up to now is        1.5 secs

     total energy              =    -213.05570472 Ry
     Harris-Foulkes estimate   =    -213.10338106 Ry
     estimated scf accuracy    <       0.06055603 Ry

     iteration #  2     ecut=    50.00 Ry     beta= 0.70
     Davidson diagonalization with overlap
     ethr =  5.51E-04,  avg # of iterations =  2.0

     total cpu time spent up to now is        1.8 secs

     total energy              =    -213.05583111 Ry
     Harris-Foulkes estimate   =    -213.14062404 Ry
     estimated scf accuracy    <       0.22075858 Ry

     iteration #  3     ecut=    50.00 Ry     beta= 0.70
     Davidson diagonalization with overlap
     ethr =  5.51E-04,  avg # of iterations =  2.2

     total cpu time spent up to now is        2.0 secs

     total energy              =    -213.09148257 Ry
     Harris-Foulkes estimate   =    -213.09149644 Ry
     estimated scf accuracy    <       0.00005265 Ry

     iteration #  4     ecut=    50.00 Ry     beta= 0.70
     Davidson diagonalization with overlap
     ethr =  4.79E-07,  avg # of iterations =  2.3

     total cpu time spent up to now is        2.3 secs

     total energy              =    -213.09152097 Ry
     Harris-Foulkes estimate   =    -213.09152632 Ry
     estimated scf accuracy    <       0.00001521 Ry

     iteration #  5     ecut=    50.00 Ry     beta= 0.70
     Davidson diagonalization with overlap
     ethr =  1.38E-07,  avg # of iterations =  1.4

     total cpu time spent up to now is        2.5 secs

     total energy              =    -213.09152384 Ry
     Harris-Foulkes estimate   =    -213.09152404 Ry
     estimated scf accuracy    <       0.00000055 Ry

     iteration #  6     ecut=    50.00 Ry     beta= 0.70
     Davidson diagonalization with overlap
     ethr =  5.04E-09,  avg # of iterations =  1.3

     total cpu time spent up to now is        2.7 secs

     End of self-consistent calculation

          k = 0.0000 0.0000 0.0000 (   531 PWs)   bands (ev):

     3.2686   9.6678   9.6678   9.6678  10.5000  10.5000  35.5885  37.9883
    37.9883  37.9883

          k =-0.1667 0.1667-0.1667 (   489 PWs)   bands (ev):

     4.2572   9.4912   9.8086   9.8086  10.4749  10.4749  29.3360  35.9315
    36.2325  36.2325

          k =-0.3333 0.3333-0.3333 (   492 PWs)   bands (ev):

     6.6462   9.6468   9.7496   9.7496  10.8032  10.8032  21.2743  34.7020
    35.0101  35.0101

          k = 0.5000-0.5000 0.5000 (   476 PWs)   bands (ev):

     7.5836   9.6347   9.6347  11.0759  11.0759  11.6289  16.4284  33.9947
    34.7558  34.7558

          k = 0.0000 0.3333 0.0000 (   488 PWs)   bands (ev):

     4.5794   9.3009   9.9822   9.9822  10.1899  10.6374  32.4428  32.4428
    32.9374  34.6080

          k =-0.1667 0.5000-0.1667 (   481 PWs)   bands (ev):

     6.5444   9.0423   9.7195  10.1116  10.8281  10.8959  24.4621  30.5244
    31.5750  33.3894

          k = 0.6667-0.3333 0.6667 (   468 PWs)   bands (ev):

     8.0112   9.2567   9.7397   9.9625  11.0957  13.1436  17.6837  28.4402
    30.8020  33.0818

          k = 0.5000-0.1667 0.5000 (   470 PWs)   bands (ev):

     7.8299   9.4271   9.4979   9.9540  10.7282  12.3302  19.6659  26.9061
    33.4132  34.4047

          k = 0.3333 0.0000 0.3333 (   483 PWs)   bands (ev):

     5.7763   9.2409   9.7779  10.0967  10.2014  10.9787  26.9019  27.6082
    37.5064  37.9434

          k = 0.0000 0.6667 0.0000 (   472 PWs)   bands (ev):

     7.3600   8.5965  10.5885  10.7438  10.7438  10.9156  26.3284  27.6451
    27.6451  30.8732

          k = 0.8333-0.1667 0.8333 (   472 PWs)   bands (ev):

     8.0791   8.5144  10.2165  10.6917  11.1427  13.8752  21.6229  22.5349
    27.1673  31.7121

          k = 0.6667-0.0000 0.6667 (   466 PWs)   bands (ev):

     8.6283   8.7945   9.5312  10.4292  10.8758  15.9129  18.5891  21.1541
    29.3110  32.5599

          k = 0.0000-1.0000 0.0000 (   468 PWs)   bands (ev):

     7.7896   8.2584  11.0572  11.2205  11.2205  14.1347  19.7806  25.7630
    25.7630  30.2547

          k = 0.6667-0.3333 1.0000 (   477 PWs)   bands (ev):

     8.1158   8.8656   9.3847  10.5460  10.7428  12.6064  22.9279  23.9455
    27.4212  37.4359

          k = 0.5000-0.1667 0.8333 (   478 PWs)   bands (ev):

     8.7482   8.7814   9.3517  10.3559  11.0436  16.2238  17.4583  24.4182
    24.6606  37.7684

          k =-0.3333-1.0000 0.0000 (   478 PWs)   bands (ev):

     8.3072   8.6468   9.8621  10.6509  11.2210  16.6878  20.3263  21.3533
    22.6784  36.3929

     the Fermi energy is    12.6373 ev

!    total energy              =    -213.09152393 Ry
     Harris-Foulkes estimate   =    -213.09152393 Ry
     estimated scf accuracy    <          1.9E-10 Ry

     total all-electron energy =     -3309.971290 Ry

     The total energy is the sum of the following terms:

     one-electron contribution =     -28.00679068 Ry
     hartree contribution      =      30.61749788 Ry
     xc contribution           =     -44.62908086 Ry
     ewald contribution        =     -81.22522859 Ry
     one-center paw contrib.   =     -89.84732234 Ry
     smearing contrib. (-TS)   =      -0.00059933 Ry

     convergence has been achieved in   6 iterations

     Forces acting on atoms (cartesian axes, Ry/au):

     atom    1 type  1   force =     0.00000000    0.00000000    0.00000000

     Total force =     0.000000     Total SCF correction =     0.000000


     Computing stress (Cartesian axis) and pressure

          total   stress  (Ry/bohr**3)                   (kbar)     P=   17.13
   0.00011647  -0.00000000  -0.00000000         17.13     -0.00     -0.00
  -0.00000000   0.00011647   0.00000000         -0.00     17.13      0.00
  -0.00000000   0.00000000   0.00011647         -0.00      0.00     17.13


     Writing output data file Cu.save/

     init_run     :      0.28s CPU      0.30s WALL (       1 calls)
     electrons    :      1.47s CPU      1.63s WALL (       1 calls)
     forces       :      0.02s CPU      0.02s WALL (       1 calls)
     stress       :      0.06s CPU      0.06s WALL (       1 calls)

     Called by init_run:
     wfcinit      :      0.03s CPU      0.04s WALL (       1 calls)
     potinit      :      0.10s CPU      0.12s WALL (       1 calls)
     hinit0       :      0.13s CPU      0.13s WALL (       1 calls)

     Called by electrons:
     c_bands      :      0.67s CPU      0.72s WALL (       7 calls)
     sum_band     :      0.15s CPU      0.17s WALL (       7 calls)
     v_of_rho     :      0.02s CPU      0.02s WALL (       7 calls)
     newd         :      0.03s CPU      0.03s WALL (       7 calls)
     PAW_pot      :      0.68s CPU      0.78s WALL (       7 calls)
     mix_rho      :      0.00s CPU      0.00s WALL (       7 calls)

     Called by c_bands:
     init_us_2    :      0.02s CPU      0.02s WALL (     272 calls)
     cegterg      :      0.64s CPU      0.69s WALL (     112 calls)

     Called by sum_band:
     sum_band:bec :      0.00s CPU      0.00s WALL (     112 calls)
     addusdens    :      0.03s CPU      0.03s WALL (       7 calls)

     Called by *egterg:
     h_psi        :      0.51s CPU      0.55s WALL (     355 calls)
     s_psi        :      0.01s CPU      0.01s WALL (     355 calls)
     g_psi        :      0.00s CPU      0.00s WALL (     227 calls)
     cdiaghg      :      0.07s CPU      0.07s WALL (     323 calls)

     Called by h_psi:
     h_psi:pot    :      0.51s CPU      0.55s WALL (     355 calls)
     h_psi:calbec :      0.02s CPU      0.03s WALL (     355 calls)
     vloc_psi     :      0.47s CPU      0.50s WALL (     355 calls)
     add_vuspsi   :      0.01s CPU      0.01s WALL (     355 calls)

     General routines
     calbec       :      0.04s CPU      0.05s WALL (     547 calls)
     fft          :      0.02s CPU      0.02s WALL (     104 calls)
     ffts         :      0.00s CPU      0.00s WALL (       7 calls)
     fftw         :      0.53s CPU      0.57s WALL (    6740 calls)

     Parallel routines
     fft_scatt_xy :      0.04s CPU      0.05s WALL (    6851 calls)
     fft_scatt_yz :      0.21s CPU      0.22s WALL (    6851 calls)

     PWSCF        :     2.61s CPU         2.84s WALL


   This run was terminated on:  23:24:38  25Mar2024            

=------------------------------------------------------------------------------=
   JOB DONE.
=------------------------------------------------------------------------------=
