
     Program PWSCF v.6.3MaX starts on 25Mar2024 at 23: 9:34 

     This program is part of the open-source Quantum ESPRESSO suite
     for quantum simulation of materials; please cite
         "P. Giannozzi et al., J. Phys.:Condens. Matter 21 395502 (2009);
         "P. Giannozzi et al., J. Phys.:Condens. Matter 29 465901 (2017);
          URL http://www.quantum-espresso.org", 
     in publications or presentations arising from this work. More details at
     http://www.quantum-espresso.org/quote

     Parallel version (MPI), running on     5 processors

     MPI processes distributed on     1 nodes
     R & G space division:  proc/nbgrp/npool/nimage =       5
     Waiting for input...
     Reading input from standard input

     Current dimensions of program PWSCF are:
     Max number of different atomic species (ntypx) = 10
     Max number of k-points (npk) =  40000
     Max angular momentum in pseudopotentials (lmaxx) =  3
               file Cu.pbesol-dn-rrkjus_psl.1.0.0.UPF: wavefunction(s)  3D renormalized

     Subspace diagonalization in iterative solution of the eigenvalue problem:
     a serial algorithm will be used


     Parallelization info
     --------------------
     sticks:   dense  smooth     PW     G-vecs:    dense   smooth      PW
     Min          12      12      6                   66       66      22
     Max          13      13      7                   67       67      23
     Sum          61      61     31                  331      331     113



     bravais-lattice index     =            2
     lattice parameter (alat)  =       6.8300  a.u.
     unit-cell volume          =      79.6530 (a.u.)^3
     number of atoms/cell      =            1
     number of atomic types    =            1
     number of electrons       =        11.00
     number of Kohn-Sham states=           10
     kinetic-energy cutoff     =      10.0000  Ry
     charge density cutoff     =      40.0000  Ry
     convergence threshold     =      1.0E-08
     mixing beta               =       0.7000
     number of iterations used =            8  plain     mixing
     Exchange-correlation      = PBESOL ( 1  4 10  8 0 0)

     celldm(1)=   6.830000  celldm(2)=   0.000000  celldm(3)=   0.000000
     celldm(4)=   0.000000  celldm(5)=   0.000000  celldm(6)=   0.000000

     crystal axes: (cart. coord. in units of alat)
               a(1) = (  -0.500000   0.000000   0.500000 )  
               a(2) = (   0.000000   0.500000   0.500000 )  
               a(3) = (  -0.500000   0.500000   0.000000 )  

     reciprocal axes: (cart. coord. in units 2 pi/alat)
               b(1) = ( -1.000000 -1.000000  1.000000 )  
               b(2) = (  1.000000  1.000000  1.000000 )  
               b(3) = ( -1.000000  1.000000 -1.000000 )  


     PseudoPot. # 1 for Cu read from file:
     /home/lorenzo/pseudos/Cu/Cu.pbesol-dn-rrkjus_psl.1.0.0.UPF
     MD5 check sum: bfa4c7aafbc42e028d5f4ccf7ceed93d
     Pseudo is Ultrasoft + core correction, Zval = 11.0
     Generated using "atomic" code by A. Dal Corso v.6.3
     Using radial grid of 1199 points,  6 beta functions with: 
                l(1) =   0
                l(2) =   0
                l(3) =   1
                l(4) =   1
                l(5) =   2
                l(6) =   2
     Q(r) pseudized with 0 coefficients 


     atomic species   valence    mass     pseudopotential
        Cu            11.00    63.54600     Cu( 1.00)

     48 Sym. Ops., with inversion, found



   Cartesian axes

     site n.     atom                  positions (alat units)
         1           Cu  tau(   1) = (   0.0000000   0.0000000   0.0000000  )

     number of k points=    10  gaussian smearing, width (Ry)=  0.0100
                       cart. coord. in units 2pi/alat
        k(    1) = (   0.0000000   0.0000000   0.0000000), wk =   0.0160000
        k(    2) = (  -0.2000000   0.2000000  -0.2000000), wk =   0.1280000
        k(    3) = (  -0.4000000   0.4000000  -0.4000000), wk =   0.1280000
        k(    4) = (   0.0000000   0.4000000   0.0000000), wk =   0.0960000
        k(    5) = (  -0.2000000   0.6000000  -0.2000000), wk =   0.3840000
        k(    6) = (   0.6000000  -0.2000000   0.6000000), wk =   0.3840000
        k(    7) = (   0.4000000   0.0000000   0.4000000), wk =   0.1920000
        k(    8) = (   0.0000000   0.8000000   0.0000000), wk =   0.0960000
        k(    9) = (   0.8000000   0.0000000   0.8000000), wk =   0.1920000
        k(   10) = (   0.6000000  -0.2000000   1.0000000), wk =   0.3840000

     Dense  grid:      331 G-vectors     FFT dimensions: (   9,   9,   9)

     Estimated max dynamical RAM per process >       0.81 MB

     Estimated total dynamical RAM >       4.07 MB

     Check: negative/imaginary core charge=   -0.008419    0.000000

     Initial potential from superposition of free atoms

     starting charge   10.99979, renormalised to   11.00000
     Starting wfcs are    9 randomized atomic wfcs +    1 random wfcs

     total cpu time spent up to now is        1.1 secs

     Self-consistent Calculation

     iteration #  1     ecut=    10.00 Ry     beta= 0.70
     Davidson diagonalization with overlap
     ethr =  1.00E-02,  avg # of iterations =  3.2

     total cpu time spent up to now is        1.1 secs

     total energy              =    -103.23340308 Ry
     Harris-Foulkes estimate   =    -117.01200865 Ry
     estimated scf accuracy    <      16.50201351 Ry

     iteration #  2     ecut=    10.00 Ry     beta= 0.70
     Davidson diagonalization with overlap
     ethr =  1.00E-02,  avg # of iterations =  2.8

     total cpu time spent up to now is        1.1 secs

     total energy              =    -108.51531527 Ry
     Harris-Foulkes estimate   =    -109.04629165 Ry
     estimated scf accuracy    <       0.94206554 Ry

     iteration #  3     ecut=    10.00 Ry     beta= 0.70
     Davidson diagonalization with overlap
     ethr =  8.56E-03,  avg # of iterations =  1.0

     total cpu time spent up to now is        1.1 secs

     total energy              =    -108.56120242 Ry
     Harris-Foulkes estimate   =    -108.59030370 Ry
     estimated scf accuracy    <       0.05730620 Ry

     iteration #  4     ecut=    10.00 Ry     beta= 0.70
     Davidson diagonalization with overlap
     ethr =  5.21E-04,  avg # of iterations =  2.3

     total cpu time spent up to now is        1.2 secs

     total energy              =    -108.56853759 Ry
     Harris-Foulkes estimate   =    -108.57011867 Ry
     estimated scf accuracy    <       0.00232263 Ry

     iteration #  5     ecut=    10.00 Ry     beta= 0.70
     Davidson diagonalization with overlap
     ethr =  2.11E-05,  avg # of iterations =  1.8

     total cpu time spent up to now is        1.2 secs

     total energy              =    -108.56884006 Ry
     Harris-Foulkes estimate   =    -108.56886389 Ry
     estimated scf accuracy    <       0.00003607 Ry

     iteration #  6     ecut=    10.00 Ry     beta= 0.70
     Davidson diagonalization with overlap
     ethr =  3.28E-07,  avg # of iterations =  2.2

     total cpu time spent up to now is        1.2 secs

     total energy              =    -108.56885470 Ry
     Harris-Foulkes estimate   =    -108.56886087 Ry
     estimated scf accuracy    <       0.00000765 Ry

     iteration #  7     ecut=    10.00 Ry     beta= 0.70
     Davidson diagonalization with overlap
     ethr =  6.96E-08,  avg # of iterations =  1.3

     total cpu time spent up to now is        1.2 secs

     total energy              =    -108.56885477 Ry
     Harris-Foulkes estimate   =    -108.56885557 Ry
     estimated scf accuracy    <       0.00000016 Ry

     iteration #  8     ecut=    10.00 Ry     beta= 0.70
     Davidson diagonalization with overlap
     ethr =  1.42E-09,  avg # of iterations =  2.1

     total cpu time spent up to now is        1.3 secs

     total energy              =    -108.56885494 Ry
     Harris-Foulkes estimate   =    -108.56885481 Ry
     estimated scf accuracy    <       0.00000003 Ry

     iteration #  9     ecut=    10.00 Ry     beta= 0.70
     Davidson diagonalization with overlap
     ethr =  2.55E-10,  avg # of iterations =  2.1

     total cpu time spent up to now is        1.3 secs

     End of self-consistent calculation

          k = 0.0000 0.0000 0.0000 (    51 PWs)   bands (ev):

    -7.9176  -7.9176  -1.0666  -1.0666  -1.0666   0.4918  28.7007  28.7007
    28.7007  40.1382

          k =-0.2000 0.2000-0.2000 (    46 PWs)   bands (ev):

    -3.6333  -3.6333  -2.6748   1.9767   4.9457   4.9457  23.2899  27.9298
    27.9298  39.9872

          k =-0.4000 0.4000-0.4000 (    43 PWs)   bands (ev):

    -2.0421  -1.0411  -1.0411   6.6670   8.4233   8.4233  14.0313  26.2460
    26.2460  37.5968

          k = 0.0000 0.4000 0.0000 (    43 PWs)   bands (ev):

    -2.3493   1.8238   3.4923   3.6525   3.6525   4.0072  25.6274  25.8682
    25.8682  39.1387

          k =-0.2000 0.6000-0.2000 (    44 PWs)   bands (ev):

    -3.0250   0.9497   1.3349   2.2331   6.3333   6.3507  17.8618  23.9399
    24.0312  36.6659

          k = 0.6000-0.2000 0.6000 (    38 PWs)   bands (ev):

     0.2403   4.6933   5.3833   7.7397  12.4128  12.7290  15.0225  21.5525
    25.0008  36.9859

          k = 0.4000 0.0000 0.4000 (    43 PWs)   bands (ev):

    -0.7907   0.4101   2.3070   2.6566   5.5533   6.4306  20.0949  22.2446
    27.6481  38.6482

          k = 0.0000 0.8000 0.0000 (    40 PWs)   bands (ev):

    -4.1935  -0.1022   4.6745   8.4239  12.9575  12.9575  17.7747  21.5706
    21.5706  34.4674

          k = 0.8000 0.0000 0.8000 (    40 PWs)   bands (ev):

    -3.8795   0.3217   4.1432   9.8415  13.6168  13.8389  16.3105  17.4422
    21.7202  35.6007

          k = 0.6000-0.2000 1.0000 (    41 PWs)   bands (ev):

    -2.7320  -2.4472   4.1892   8.9483  11.9998  12.1577  16.7119  18.4944
    21.3163  37.7937

     the Fermi energy is    12.5252 ev

!    total energy              =    -108.56885478 Ry
     Harris-Foulkes estimate   =    -108.56885495 Ry
     estimated scf accuracy    <          1.5E-09 Ry

     The total energy is the sum of the following terms:

     one-electron contribution =      -0.22529832 Ry
     hartree contribution      =      11.38699172 Ry
     xc contribution           =     -38.50465692 Ry
     ewald contribution        =     -81.22522857 Ry
     smearing contrib. (-TS)   =      -0.00066270 Ry

     convergence has been achieved in   9 iterations

     Forces acting on atoms (cartesian axes, Ry/au):

     atom    1 type  1   force =     0.00000000    0.00000000    0.00000000

     Total force =     0.000000     Total SCF correction =     0.000000


     Computing stress (Cartesian axis) and pressure

          total   stress  (Ry/bohr**3)                   (kbar)     P=********
  -0.29226306  -0.00000000  -0.00000000     -42993.37     -0.00     -0.00
  -0.00000000  -0.29226306   0.00000000         -0.00 -42993.37      0.00
  -0.00000000   0.00000000  -0.29226306         -0.00      0.00 -42993.37


     Writing output data file Cu.save/

     init_run     :      0.07s CPU      0.08s WALL (       1 calls)
     electrons    :      0.20s CPU      0.24s WALL (       1 calls)
     forces       :      0.01s CPU      0.01s WALL (       1 calls)
     stress       :      0.01s CPU      0.01s WALL (       1 calls)

     Called by init_run:
     wfcinit      :      0.01s CPU      0.01s WALL (       1 calls)
     potinit      :      0.00s CPU      0.00s WALL (       1 calls)
     hinit0       :      0.06s CPU      0.06s WALL (       1 calls)

     Called by electrons:
     c_bands      :      0.16s CPU      0.19s WALL (       9 calls)
     sum_band     :      0.02s CPU      0.03s WALL (       9 calls)
     v_of_rho     :      0.00s CPU      0.00s WALL (      10 calls)
     newd         :      0.00s CPU      0.00s WALL (      10 calls)
     mix_rho      :      0.00s CPU      0.00s WALL (       9 calls)

     Called by c_bands:
     init_us_2    :      0.00s CPU      0.00s WALL (     210 calls)
     cegterg      :      0.16s CPU      0.19s WALL (      90 calls)

     Called by sum_band:
     sum_band:bec :      0.00s CPU      0.00s WALL (      90 calls)
     addusdens    :      0.00s CPU      0.00s WALL (       9 calls)

     Called by *egterg:
     h_psi        :      0.09s CPU      0.10s WALL (     288 calls)
     s_psi        :      0.00s CPU      0.00s WALL (     288 calls)
     g_psi        :      0.00s CPU      0.00s WALL (     188 calls)
     cdiaghg      :      0.05s CPU      0.06s WALL (     278 calls)

     Called by h_psi:
     h_psi:pot    :      0.09s CPU      0.10s WALL (     288 calls)
     h_psi:calbec :      0.01s CPU      0.01s WALL (     288 calls)
     vloc_psi     :      0.07s CPU      0.09s WALL (     288 calls)
     add_vuspsi   :      0.00s CPU      0.00s WALL (     288 calls)

     General routines
     calbec       :      0.01s CPU      0.01s WALL (     428 calls)
     fft          :      0.00s CPU      0.00s WALL (     136 calls)
     ffts         :      0.00s CPU      0.00s WALL (       9 calls)
     fftw         :      0.08s CPU      0.09s WALL (    5398 calls)

     Parallel routines
     fft_scatt_xy :      0.01s CPU      0.01s WALL (    5543 calls)
     fft_scatt_yz :      0.04s CPU      0.05s WALL (    5543 calls)

     PWSCF        :     1.29s CPU         1.37s WALL


   This run was terminated on:  23: 9:35  25Mar2024            

=------------------------------------------------------------------------------=
   JOB DONE.
=------------------------------------------------------------------------------=
