
     Program PWSCF v.6.3MaX starts on 25Mar2024 at 23:15:14 

     This program is part of the open-source Quantum ESPRESSO suite
     for quantum simulation of materials; please cite
         "P. Giannozzi et al., J. Phys.:Condens. Matter 21 395502 (2009);
         "P. Giannozzi et al., J. Phys.:Condens. Matter 29 465901 (2017);
          URL http://www.quantum-espresso.org", 
     in publications or presentations arising from this work. More details at
     http://www.quantum-espresso.org/quote

     Parallel version (MPI), running on     5 processors

     MPI processes distributed on     1 nodes
     R & G space division:  proc/nbgrp/npool/nimage =       5
     Waiting for input...
     Reading input from standard input

     Current dimensions of program PWSCF are:
     Max number of different atomic species (ntypx) = 10
     Max number of k-points (npk) =  40000
     Max angular momentum in pseudopotentials (lmaxx) =  3
               file Cu.pbesol-dn-rrkjus_psl.1.0.0.UPF: wavefunction(s)  3D renormalized

     Subspace diagonalization in iterative solution of the eigenvalue problem:
     a serial algorithm will be used


     Parallelization info
     --------------------
     sticks:   dense  smooth     PW     G-vecs:    dense   smooth      PW
     Min          32      32     12                  272      272      66
     Max          33      33     13                  273      273      67
     Sum         163     163     61                 1363     1363     331



     bravais-lattice index     =            2
     lattice parameter (alat)  =       6.8300  a.u.
     unit-cell volume          =      79.6530 (a.u.)^3
     number of atoms/cell      =            1
     number of atomic types    =            1
     number of electrons       =        11.00
     number of Kohn-Sham states=           10
     kinetic-energy cutoff     =      25.0000  Ry
     charge density cutoff     =     100.0000  Ry
     convergence threshold     =      1.0E-08
     mixing beta               =       0.7000
     number of iterations used =            8  plain     mixing
     Exchange-correlation      = PBESOL ( 1  4 10  8 0 0)

     celldm(1)=   6.830000  celldm(2)=   0.000000  celldm(3)=   0.000000
     celldm(4)=   0.000000  celldm(5)=   0.000000  celldm(6)=   0.000000

     crystal axes: (cart. coord. in units of alat)
               a(1) = (  -0.500000   0.000000   0.500000 )  
               a(2) = (   0.000000   0.500000   0.500000 )  
               a(3) = (  -0.500000   0.500000   0.000000 )  

     reciprocal axes: (cart. coord. in units 2 pi/alat)
               b(1) = ( -1.000000 -1.000000  1.000000 )  
               b(2) = (  1.000000  1.000000  1.000000 )  
               b(3) = ( -1.000000  1.000000 -1.000000 )  


     PseudoPot. # 1 for Cu read from file:
     /home/lorenzo/pseudos/Cu/Cu.pbesol-dn-rrkjus_psl.1.0.0.UPF
     MD5 check sum: bfa4c7aafbc42e028d5f4ccf7ceed93d
     Pseudo is Ultrasoft + core correction, Zval = 11.0
     Generated using "atomic" code by A. Dal Corso v.6.3
     Using radial grid of 1199 points,  6 beta functions with: 
                l(1) =   0
                l(2) =   0
                l(3) =   1
                l(4) =   1
                l(5) =   2
                l(6) =   2
     Q(r) pseudized with 0 coefficients 


     atomic species   valence    mass     pseudopotential
        Cu            11.00    63.54600     Cu( 1.00)

     48 Sym. Ops., with inversion, found



   Cartesian axes

     site n.     atom                  positions (alat units)
         1           Cu  tau(   1) = (   0.0000000   0.0000000   0.0000000  )

     number of k points=    20  gaussian smearing, width (Ry)=  0.0100
                       cart. coord. in units 2pi/alat
        k(    1) = (   0.0000000   0.0000000   0.0000000), wk =   0.0058309
        k(    2) = (  -0.1428571   0.1428571  -0.1428571), wk =   0.0466472
        k(    3) = (  -0.2857143   0.2857143  -0.2857143), wk =   0.0466472
        k(    4) = (  -0.4285714   0.4285714  -0.4285714), wk =   0.0466472
        k(    5) = (   0.0000000   0.2857143   0.0000000), wk =   0.0349854
        k(    6) = (  -0.1428571   0.4285714  -0.1428571), wk =   0.1399417
        k(    7) = (  -0.2857143   0.5714286  -0.2857143), wk =   0.1399417
        k(    8) = (   0.5714286  -0.2857143   0.5714286), wk =   0.1399417
        k(    9) = (   0.4285714  -0.1428571   0.4285714), wk =   0.1399417
        k(   10) = (   0.2857143  -0.0000000   0.2857143), wk =   0.0699708
        k(   11) = (   0.0000000   0.5714286   0.0000000), wk =   0.0349854
        k(   12) = (  -0.1428571   0.7142857  -0.1428571), wk =   0.1399417
        k(   13) = (   0.7142857  -0.1428571   0.7142857), wk =   0.1399417
        k(   14) = (   0.5714286   0.0000000   0.5714286), wk =   0.0699708
        k(   15) = (   0.0000000   0.8571429   0.0000000), wk =   0.0349854
        k(   16) = (   0.8571429  -0.0000000   0.8571429), wk =   0.0699708
        k(   17) = (  -0.2857143   0.5714286   0.0000000), wk =   0.1399417
        k(   18) = (   0.5714286  -0.2857143   0.8571429), wk =   0.2798834
        k(   19) = (   0.7142857  -0.1428571   1.0000000), wk =   0.1399417
        k(   20) = (   0.5714286   0.0000000   0.8571429), wk =   0.1399417

     Dense  grid:     1363 G-vectors     FFT dimensions: (  15,  15,  15)

     Estimated max dynamical RAM per process >       1.98 MB

     Estimated total dynamical RAM >       9.91 MB

     Check: negative/imaginary core charge=   -0.000132    0.000000

     Initial potential from superposition of free atoms

     starting charge   10.99979, renormalised to   11.00000
     Starting wfcs are    9 randomized atomic wfcs +    1 random wfcs

     total cpu time spent up to now is        0.8 secs

     Self-consistent Calculation

     iteration #  1     ecut=    25.00 Ry     beta= 0.70
     Davidson diagonalization with overlap
     ethr =  1.00E-02,  avg # of iterations =  3.5

     total cpu time spent up to now is        0.9 secs

     total energy              =    -122.18102593 Ry
     Harris-Foulkes estimate   =    -122.32339540 Ry
     estimated scf accuracy    <       0.17277643 Ry

     iteration #  2     ecut=    25.00 Ry     beta= 0.70
     Davidson diagonalization with overlap
     ethr =  1.57E-03,  avg # of iterations =  2.0

     total cpu time spent up to now is        1.0 secs

     total energy              =    -122.22018044 Ry
     Harris-Foulkes estimate   =    -122.40778169 Ry
     estimated scf accuracy    <       0.44852207 Ry

     iteration #  3     ecut=    25.00 Ry     beta= 0.70
     Davidson diagonalization with overlap
     ethr =  1.57E-03,  avg # of iterations =  2.0

     total cpu time spent up to now is        1.0 secs

     total energy              =    -122.28624812 Ry
     Harris-Foulkes estimate   =    -122.28768539 Ry
     estimated scf accuracy    <       0.00261690 Ry

     iteration #  4     ecut=    25.00 Ry     beta= 0.70
     Davidson diagonalization with overlap
     ethr =  2.38E-05,  avg # of iterations =  2.2

     total cpu time spent up to now is        1.1 secs

     total energy              =    -122.28716445 Ry
     Harris-Foulkes estimate   =    -122.28755980 Ry
     estimated scf accuracy    <       0.00117259 Ry

     iteration #  5     ecut=    25.00 Ry     beta= 0.70
     Davidson diagonalization with overlap
     ethr =  1.07E-05,  avg # of iterations =  1.3

     total cpu time spent up to now is        1.2 secs

     total energy              =    -122.28729288 Ry
     Harris-Foulkes estimate   =    -122.28730250 Ry
     estimated scf accuracy    <       0.00003407 Ry

     iteration #  6     ecut=    25.00 Ry     beta= 0.70
     Davidson diagonalization with overlap
     ethr =  3.10E-07,  avg # of iterations =  1.7

     total cpu time spent up to now is        1.3 secs

     total energy              =    -122.28729609 Ry
     Harris-Foulkes estimate   =    -122.28729712 Ry
     estimated scf accuracy    <       0.00000252 Ry

     iteration #  7     ecut=    25.00 Ry     beta= 0.70
     Davidson diagonalization with overlap
     ethr =  2.29E-08,  avg # of iterations =  1.9

     total cpu time spent up to now is        1.3 secs

     total energy              =    -122.28729666 Ry
     Harris-Foulkes estimate   =    -122.28729667 Ry
     estimated scf accuracy    <       0.00000002 Ry

     iteration #  8     ecut=    25.00 Ry     beta= 0.70
     Davidson diagonalization with overlap
     ethr =  1.46E-10,  avg # of iterations =  2.7

     total cpu time spent up to now is        1.4 secs

     total energy              =    -122.28729667 Ry
     Harris-Foulkes estimate   =    -122.28729667 Ry
     estimated scf accuracy    <       0.00000001 Ry

     iteration #  9     ecut=    25.00 Ry     beta= 0.70
     Davidson diagonalization with overlap
     ethr =  1.28E-10,  avg # of iterations =  1.1

     total cpu time spent up to now is        1.5 secs

     End of self-consistent calculation

          k = 0.0000 0.0000 0.0000 (   169 PWs)   bands (ev):

     3.0896   9.1365   9.1365   9.1365   9.9123   9.9123  35.4660  37.7493
    37.7493  37.7493

          k =-0.1429 0.1429-0.1429 (   168 PWs)   bands (ev):

     3.8194   9.0524   9.2607   9.2607   9.9043   9.9043  30.6098  35.9279
    36.4927  36.4927

          k =-0.2857 0.2857-0.2857 (   162 PWs)   bands (ev):

     5.7370   9.0358   9.2996   9.2996  10.2392  10.2392  23.3487  34.9977
    35.2156  35.2156

          k =-0.4286 0.4286-0.4286 (   162 PWs)   bands (ev):

     7.0859   9.2054   9.2054  10.5909  10.5909  10.6159  17.4615  33.9929
    34.5903  34.5903

          k = 0.0000 0.2857 0.0000 (   165 PWs)   bands (ev):

     4.0591   8.8721   9.4094   9.4094   9.8013  10.0328  33.2660  33.2660
    33.5195  35.2116

          k =-0.1429 0.4286-0.1429 (   162 PWs)   bands (ev):

     5.5933   8.7002   9.3570   9.5789  10.0792  10.2967  26.1825  31.3498
    33.0583  34.6323

          k =-0.2857 0.5714-0.2857 (   164 PWs)   bands (ev):

     7.2776   8.9372   9.1691   9.4700  10.6029  11.3827  19.6621  30.5976
    30.9155  33.2829

          k = 0.5714-0.2857 0.5714 (   168 PWs)   bands (ev):

     7.5400   8.9221   9.4091   9.5344  10.4609  13.0460  16.5908  28.5240
    32.2380  33.6107

          k = 0.4286-0.1429 0.4286 (   166 PWs)   bands (ev):

     6.8952   8.9078   9.1243   9.4857  10.0626  11.0528  21.6936  27.9057
    35.2591  35.3194

          k = 0.2857-0.0000 0.2857 (   164 PWs)   bands (ev):

     4.9683   8.8695   9.3141   9.4921   9.7684  10.2974  28.4142  28.9134
    38.4405  38.6609

          k = 0.0000 0.5714 0.0000 (   166 PWs)   bands (ev):

     6.4489   8.3192   9.6951  10.0755  10.0755  10.2703  28.6584  28.6584
    29.0724  31.6798

          k =-0.1429 0.7143-0.1429 (   167 PWs)   bands (ev):

     7.4737   8.1772   9.6006  10.0352  10.6732  11.7732  23.0812  25.3620
    27.6248  32.1424

          k = 0.7143-0.1429 0.7143 (   173 PWs)   bands (ev):

     7.9871   8.3263   9.2511   9.9007  10.4674  15.4277  17.6109  22.8057
    28.5688  32.4007

          k = 0.5714 0.0000 0.5714 (   168 PWs)   bands (ev):

     8.0902   8.6831   8.8211   9.7874  10.1364  13.2696  20.5459  22.2109
    31.3128  33.5383

          k = 0.0000 0.8571 0.0000 (   170 PWs)   bands (ev):

     7.3639   7.8751  10.4959  10.6504  10.6504  12.6469  21.4338  25.9154
    25.9154  30.8372

          k = 0.8571-0.0000 0.8571 (   170 PWs)   bands (ev):

     7.5859   7.9530  10.1299  10.3612  10.6650  15.0677  19.8336  21.9186
    26.2586  31.7270

          k =-0.2857 0.5714 0.0000 (   168 PWs)   bands (ev):

     7.1126   8.4905   9.0680   9.9564  10.0092  11.1915  24.5752  25.2527
    29.9443  37.0941

          k = 0.5714-0.2857 0.8571 (   169 PWs)   bands (ev):

     8.0340   8.5337   8.9215   9.8005  10.4629  13.7110  18.7652  25.1632
    26.8915  36.9226

          k = 0.7143-0.1429 1.0000 (   171 PWs)   bands (ev):

     7.7897   8.1555   9.4493  10.2393  10.6197  14.3872  22.0751  22.3084
    23.2685  35.7073

          k = 0.5714 0.0000 0.8571 (   169 PWs)   bands (ev):

     8.1508   8.4199   8.9448  10.0073  10.6413  17.5274  18.0425  20.8322
    24.2398  37.1416

     the Fermi energy is    12.6266 ev

!    total energy              =    -122.28729667 Ry
     Harris-Foulkes estimate   =    -122.28729667 Ry
     estimated scf accuracy    <          2.3E-11 Ry

     The total energy is the sum of the following terms:

     one-electron contribution =     -27.25975611 Ry
     hartree contribution      =      30.18903739 Ry
     xc contribution           =     -43.99125278 Ry
     ewald contribution        =     -81.22522862 Ry
     smearing contrib. (-TS)   =      -0.00009656 Ry

     convergence has been achieved in   9 iterations

     Forces acting on atoms (cartesian axes, Ry/au):

     atom    1 type  1   force =     0.00000000    0.00000000    0.00000000

     Total force =     0.000000     Total SCF correction =     0.000000


     Computing stress (Cartesian axis) and pressure

          total   stress  (Ry/bohr**3)                   (kbar)     P=-1493.63
  -0.01015353   0.00000000   0.00000000      -1493.63      0.00      0.00
   0.00000000  -0.01015353  -0.00000000          0.00  -1493.63     -0.00
   0.00000000  -0.00000000  -0.01015353          0.00     -0.00  -1493.63


     Writing output data file Cu.save/

     init_run     :      0.11s CPU      0.12s WALL (       1 calls)
     electrons    :      0.60s CPU      0.69s WALL (       1 calls)
     forces       :      0.02s CPU      0.02s WALL (       1 calls)
     stress       :      0.03s CPU      0.03s WALL (       1 calls)

     Called by init_run:
     wfcinit      :      0.02s CPU      0.03s WALL (       1 calls)
     potinit      :      0.00s CPU      0.00s WALL (       1 calls)
     hinit0       :      0.08s CPU      0.08s WALL (       1 calls)

     Called by electrons:
     c_bands      :      0.48s CPU      0.54s WALL (       9 calls)
     sum_band     :      0.09s CPU      0.10s WALL (       9 calls)
     v_of_rho     :      0.01s CPU      0.01s WALL (      10 calls)
     newd         :      0.01s CPU      0.02s WALL (      10 calls)
     mix_rho      :      0.00s CPU      0.00s WALL (       9 calls)

     Called by c_bands:
     init_us_2    :      0.01s CPU      0.01s WALL (     420 calls)
     cegterg      :      0.46s CPU      0.52s WALL (     180 calls)

     Called by sum_band:
     sum_band:bec :      0.00s CPU      0.00s WALL (     180 calls)
     addusdens    :      0.01s CPU      0.01s WALL (       9 calls)

     Called by *egterg:
     h_psi        :      0.31s CPU      0.35s WALL (     568 calls)
     s_psi        :      0.01s CPU      0.01s WALL (     568 calls)
     g_psi        :      0.00s CPU      0.00s WALL (     368 calls)
     cdiaghg      :      0.10s CPU      0.11s WALL (     548 calls)

     Called by h_psi:
     h_psi:pot    :      0.30s CPU      0.34s WALL (     568 calls)
     h_psi:calbec :      0.03s CPU      0.03s WALL (     568 calls)
     vloc_psi     :      0.26s CPU      0.30s WALL (     568 calls)
     add_vuspsi   :      0.01s CPU      0.01s WALL (     568 calls)

     General routines
     calbec       :      0.03s CPU      0.04s WALL (     848 calls)
     fft          :      0.01s CPU      0.01s WALL (     136 calls)
     ffts         :      0.00s CPU      0.00s WALL (       9 calls)
     fftw         :      0.30s CPU      0.34s WALL (   10718 calls)

     Parallel routines
     fft_scatt_xy :      0.03s CPU      0.03s WALL (   10863 calls)
     fft_scatt_yz :      0.16s CPU      0.18s WALL (   10863 calls)

     PWSCF        :     1.47s CPU         1.60s WALL


   This run was terminated on:  23:15:15  25Mar2024            

=------------------------------------------------------------------------------=
   JOB DONE.
=------------------------------------------------------------------------------=
