
     Program PWSCF v.6.3MaX starts on 25Mar2024 at 23:31: 6 

     This program is part of the open-source Quantum ESPRESSO suite
     for quantum simulation of materials; please cite
         "P. Giannozzi et al., J. Phys.:Condens. Matter 21 395502 (2009);
         "P. Giannozzi et al., J. Phys.:Condens. Matter 29 465901 (2017);
          URL http://www.quantum-espresso.org", 
     in publications or presentations arising from this work. More details at
     http://www.quantum-espresso.org/quote

     Parallel version (MPI), running on     5 processors

     MPI processes distributed on     1 nodes
     R & G space division:  proc/nbgrp/npool/nimage =       5
     Waiting for input...
     Reading input from standard input

     Current dimensions of program PWSCF are:
     Max number of different atomic species (ntypx) = 10
     Max number of k-points (npk) =  40000
     Max angular momentum in pseudopotentials (lmaxx) =  3
               file Cu.pbe-dn-rrkjus_psl.1.0.0.UPF: wavefunction(s)  3D renormalized

     Subspace diagonalization in iterative solution of the eigenvalue problem:
     a serial algorithm will be used


     Parallelization info
     --------------------
     sticks:   dense  smooth     PW     G-vecs:    dense   smooth      PW
     Min          84      84     25                 1134     1134     192
     Max          85      85     26                 1137     1137     195
     Sum         421     421    127                 5673     5673     965



     bravais-lattice index     =            2
     lattice parameter (alat)  =       6.8300  a.u.
     unit-cell volume          =      79.6530 (a.u.)^3
     number of atoms/cell      =            1
     number of atomic types    =            1
     number of electrons       =        11.00
     number of Kohn-Sham states=           10
     kinetic-energy cutoff     =      65.0000  Ry
     charge density cutoff     =     260.0000  Ry
     convergence threshold     =      1.0E-08
     mixing beta               =       0.7000
     number of iterations used =            8  plain     mixing
     Exchange-correlation      = PBE ( 1  4  3  4 0 0)

     celldm(1)=   6.830000  celldm(2)=   0.000000  celldm(3)=   0.000000
     celldm(4)=   0.000000  celldm(5)=   0.000000  celldm(6)=   0.000000

     crystal axes: (cart. coord. in units of alat)
               a(1) = (  -0.500000   0.000000   0.500000 )  
               a(2) = (   0.000000   0.500000   0.500000 )  
               a(3) = (  -0.500000   0.500000   0.000000 )  

     reciprocal axes: (cart. coord. in units 2 pi/alat)
               b(1) = ( -1.000000 -1.000000  1.000000 )  
               b(2) = (  1.000000  1.000000  1.000000 )  
               b(3) = ( -1.000000  1.000000 -1.000000 )  


     PseudoPot. # 1 for Cu read from file:
     /home/lorenzo/pseudos/Cu/Cu.pbe-dn-rrkjus_psl.1.0.0.UPF
     MD5 check sum: ba3d6c84e19846e79d48cdc68ff7152b
     Pseudo is Ultrasoft + core correction, Zval = 11.0
     Generated using "atomic" code by A. Dal Corso v.6.3
     Using radial grid of 1199 points,  6 beta functions with: 
                l(1) =   0
                l(2) =   0
                l(3) =   1
                l(4) =   1
                l(5) =   2
                l(6) =   2
     Q(r) pseudized with 0 coefficients 


     atomic species   valence    mass     pseudopotential
        Cu            11.00    63.54600     Cu( 1.00)

     48 Sym. Ops., with inversion, found



   Cartesian axes

     site n.     atom                  positions (alat units)
         1           Cu  tau(   1) = (   0.0000000   0.0000000   0.0000000  )

     number of k points=     8  gaussian smearing, width (Ry)=  0.0100
                       cart. coord. in units 2pi/alat
        k(    1) = (   0.0000000   0.0000000   0.0000000), wk =   0.0312500
        k(    2) = (  -0.2500000   0.2500000  -0.2500000), wk =   0.2500000
        k(    3) = (   0.5000000  -0.5000000   0.5000000), wk =   0.1250000
        k(    4) = (   0.0000000   0.5000000   0.0000000), wk =   0.1875000
        k(    5) = (   0.7500000  -0.2500000   0.7500000), wk =   0.7500000
        k(    6) = (   0.5000000   0.0000000   0.5000000), wk =   0.3750000
        k(    7) = (   0.0000000  -1.0000000   0.0000000), wk =   0.0937500
        k(    8) = (  -0.5000000  -1.0000000   0.0000000), wk =   0.1875000

     Dense  grid:     5673 G-vectors     FFT dimensions: (  25,  25,  25)

     Estimated max dynamical RAM per process >       5.81 MB

     Estimated total dynamical RAM >      29.07 MB

     Initial potential from superposition of free atoms

     starting charge   10.99977, renormalised to   11.00000
     Starting wfcs are    9 randomized atomic wfcs +    1 random wfcs

     total cpu time spent up to now is        0.9 secs

     Self-consistent Calculation

     iteration #  1     ecut=    65.00 Ry     beta= 0.70
     Davidson diagonalization with overlap
     ethr =  1.00E-02,  avg # of iterations =  3.5

     Threshold (ethr) on eigenvalues was too large:
     Diagonalizing with lowered threshold

     Davidson diagonalization with overlap
     ethr =  5.53E-04,  avg # of iterations =  2.1

     total cpu time spent up to now is        1.0 secs

     total energy              =    -122.69951365 Ry
     Harris-Foulkes estimate   =    -122.74702919 Ry
     estimated scf accuracy    <       0.06067000 Ry

     iteration #  2     ecut=    65.00 Ry     beta= 0.70
     Davidson diagonalization with overlap
     ethr =  5.52E-04,  avg # of iterations =  2.0

     total cpu time spent up to now is        1.1 secs

     total energy              =    -122.70118144 Ry
     Harris-Foulkes estimate   =    -122.78187979 Ry
     estimated scf accuracy    <       0.20598798 Ry

     iteration #  3     ecut=    65.00 Ry     beta= 0.70
     Davidson diagonalization with overlap
     ethr =  5.52E-04,  avg # of iterations =  2.0

     total cpu time spent up to now is        1.2 secs

     total energy              =    -122.73480495 Ry
     Harris-Foulkes estimate   =    -122.73480711 Ry
     estimated scf accuracy    <       0.00004122 Ry

     iteration #  4     ecut=    65.00 Ry     beta= 0.70
     Davidson diagonalization with overlap
     ethr =  3.75E-07,  avg # of iterations =  2.2

     total cpu time spent up to now is        1.3 secs

     total energy              =    -122.73483672 Ry
     Harris-Foulkes estimate   =    -122.73483832 Ry
     estimated scf accuracy    <       0.00000676 Ry

     iteration #  5     ecut=    65.00 Ry     beta= 0.70
     Davidson diagonalization with overlap
     ethr =  6.14E-08,  avg # of iterations =  1.1

     total cpu time spent up to now is        1.4 secs

     total energy              =    -122.73483772 Ry
     Harris-Foulkes estimate   =    -122.73483773 Ry
     estimated scf accuracy    <       0.00000003 Ry

     iteration #  6     ecut=    65.00 Ry     beta= 0.70
     Davidson diagonalization with overlap
     ethr =  2.37E-10,  avg # of iterations =  2.9

     total cpu time spent up to now is        1.5 secs

     End of self-consistent calculation

          k = 0.0000 0.0000 0.0000 (   725 PWs)   bands (ev):

     3.2729   9.6591   9.6591   9.6591  10.4863  10.4863  35.5973  37.9899
    37.9899  37.9899

          k =-0.2500 0.2500-0.2500 (   703 PWs)   bands (ev):

     5.3959   9.4004   9.8156   9.8156  10.5713  10.5713  25.1164  35.3791
    35.4729  35.4729

          k = 0.5000-0.5000 0.5000 (   718 PWs)   bands (ev):

     7.5798   9.6235   9.6235  11.0623  11.0623  11.6336  16.4227  34.0025
    34.7544  34.7544

          k = 0.0000 0.5000 0.0000 (   713 PWs)   bands (ev):

     6.0387   8.9355  10.0206  10.3262  10.3262  10.7608  29.7667  29.7667
    31.0558  31.7038

          k = 0.7500-0.2500 0.7500 (   703 PWs)   bands (ev):

     8.2291   8.8072   9.6746  10.3010  11.1033  13.6069  19.3726  25.2368
    28.7694  32.3149

          k = 0.5000 0.0000 0.5000 (   708 PWs)   bands (ev):

     7.9459   9.1480   9.3550  10.1581  10.4893  12.3733  22.3730  23.5768
    33.1427  34.4510

          k = 0.0000-1.0000 0.0000 (   692 PWs)   bands (ev):

     7.7827   8.2512  11.0415  11.2081  11.2081  14.1385  19.7749  25.7648
    25.7648  30.2543

          k =-0.5000-1.0000 0.0000 (   700 PWs)   bands (ev):

     8.5283   9.1426   9.1426  10.4440  11.2089  18.8636  18.8636  20.9762
    21.4565  41.0764

     the Fermi energy is    13.4403 ev

!    total energy              =    -122.73483773 Ry
     Harris-Foulkes estimate   =    -122.73483774 Ry
     estimated scf accuracy    <          2.3E-09 Ry

     The total energy is the sum of the following terms:

     one-electron contribution =     -27.48197470 Ry
     hartree contribution      =      30.59832783 Ry
     xc contribution           =     -44.62548993 Ry
     ewald contribution        =     -81.22522855 Ry
     smearing contrib. (-TS)   =      -0.00047239 Ry

     convergence has been achieved in   6 iterations

     Forces acting on atoms (cartesian axes, Ry/au):

     atom    1 type  1   force =     0.00000000    0.00000000    0.00000000

     Total force =     0.000000     Total SCF correction =     0.000000


     Computing stress (Cartesian axis) and pressure

          total   stress  (Ry/bohr**3)                   (kbar)     P=   45.05
   0.00030622   0.00000000   0.00000000         45.05      0.00      0.00
   0.00000000   0.00030622  -0.00000000          0.00     45.05     -0.00
   0.00000000  -0.00000000   0.00030622          0.00     -0.00     45.05


     Writing output data file Cu.save/

     init_run     :      0.18s CPU      0.19s WALL (       1 calls)
     electrons    :      0.52s CPU      0.57s WALL (       1 calls)
     forces       :      0.03s CPU      0.03s WALL (       1 calls)
     stress       :      0.10s CPU      0.10s WALL (       1 calls)

     Called by init_run:
     wfcinit      :      0.02s CPU      0.02s WALL (       1 calls)
     potinit      :      0.01s CPU      0.01s WALL (       1 calls)
     hinit0       :      0.15s CPU      0.15s WALL (       1 calls)

     Called by electrons:
     c_bands      :      0.34s CPU      0.38s WALL (       7 calls)
     sum_band     :      0.13s CPU      0.13s WALL (       7 calls)
     v_of_rho     :      0.02s CPU      0.02s WALL (       7 calls)
     newd         :      0.04s CPU      0.04s WALL (       7 calls)
     mix_rho      :      0.00s CPU      0.00s WALL (       7 calls)

     Called by c_bands:
     init_us_2    :      0.01s CPU      0.02s WALL (     136 calls)
     cegterg      :      0.32s CPU      0.36s WALL (      56 calls)

     Called by sum_band:
     sum_band:bec :      0.00s CPU      0.00s WALL (      56 calls)
     addusdens    :      0.05s CPU      0.05s WALL (       7 calls)

     Called by *egterg:
     h_psi        :      0.26s CPU      0.29s WALL (     191 calls)
     s_psi        :      0.01s CPU      0.01s WALL (     191 calls)
     g_psi        :      0.00s CPU      0.00s WALL (     127 calls)
     cdiaghg      :      0.03s CPU      0.04s WALL (     175 calls)

     Called by h_psi:
     h_psi:pot    :      0.26s CPU      0.28s WALL (     191 calls)
     h_psi:calbec :      0.01s CPU      0.02s WALL (     191 calls)
     vloc_psi     :      0.24s CPU      0.26s WALL (     191 calls)
     add_vuspsi   :      0.01s CPU      0.01s WALL (     191 calls)

     General routines
     calbec       :      0.02s CPU      0.02s WALL (     287 calls)
     fft          :      0.02s CPU      0.02s WALL (     104 calls)
     ffts         :      0.00s CPU      0.00s WALL (       7 calls)
     fftw         :      0.28s CPU      0.30s WALL (    3450 calls)

     Parallel routines
     fft_scatt_xy :      0.02s CPU      0.02s WALL (    3561 calls)
     fft_scatt_yz :      0.09s CPU      0.10s WALL (    3561 calls)

     PWSCF        :     1.54s CPU         1.63s WALL


   This run was terminated on:  23:31: 8  25Mar2024            

=------------------------------------------------------------------------------=
   JOB DONE.
=------------------------------------------------------------------------------=
