
     Program PWSCF v.6.3MaX starts on 25Mar2024 at 23:31:28 

     This program is part of the open-source Quantum ESPRESSO suite
     for quantum simulation of materials; please cite
         "P. Giannozzi et al., J. Phys.:Condens. Matter 21 395502 (2009);
         "P. Giannozzi et al., J. Phys.:Condens. Matter 29 465901 (2017);
          URL http://www.quantum-espresso.org", 
     in publications or presentations arising from this work. More details at
     http://www.quantum-espresso.org/quote

     Parallel version (MPI), running on     5 processors

     MPI processes distributed on     1 nodes
     R & G space division:  proc/nbgrp/npool/nimage =       5
     Waiting for input...
     Reading input from standard input

     Current dimensions of program PWSCF are:
     Max number of different atomic species (ntypx) = 10
     Max number of k-points (npk) =  40000
     Max angular momentum in pseudopotentials (lmaxx) =  3
               file Cu.pbesol-dn-kjpaw_psl.1.0.0.UPF: wavefunction(s)  4S 3D renormalized

     Subspace diagonalization in iterative solution of the eigenvalue problem:
     a serial algorithm will be used


     Parallelization info
     --------------------
     sticks:   dense  smooth     PW     G-vecs:    dense   smooth      PW
     Min          84      84     27                 1134     1134     213
     Max          85      85     28                 1137     1137     214
     Sum         421     421    139                 5673     5673    1067



     bravais-lattice index     =            2
     lattice parameter (alat)  =       6.8300  a.u.
     unit-cell volume          =      79.6530 (a.u.)^3
     number of atoms/cell      =            1
     number of atomic types    =            1
     number of electrons       =        11.00
     number of Kohn-Sham states=           10
     kinetic-energy cutoff     =      65.0000  Ry
     charge density cutoff     =     260.0000  Ry
     convergence threshold     =      1.0E-08
     mixing beta               =       0.7000
     number of iterations used =            8  plain     mixing
     Exchange-correlation      = SLA PW PSX PSC ( 1  4 10  8 0 0)

     celldm(1)=   6.830000  celldm(2)=   0.000000  celldm(3)=   0.000000
     celldm(4)=   0.000000  celldm(5)=   0.000000  celldm(6)=   0.000000

     crystal axes: (cart. coord. in units of alat)
               a(1) = (  -0.500000   0.000000   0.500000 )  
               a(2) = (   0.000000   0.500000   0.500000 )  
               a(3) = (  -0.500000   0.500000   0.000000 )  

     reciprocal axes: (cart. coord. in units 2 pi/alat)
               b(1) = ( -1.000000 -1.000000  1.000000 )  
               b(2) = (  1.000000  1.000000  1.000000 )  
               b(3) = ( -1.000000  1.000000 -1.000000 )  


     PseudoPot. # 1 for Cu read from file:
     /home/lorenzo/pseudos/Cu/Cu.pbesol-dn-kjpaw_psl.1.0.0.UPF
     MD5 check sum: 1e9735a74797514c934643dbd229f231
     Pseudo is Projector augmented-wave + core cor, Zval = 11.0
     Generated using "atomic" code by A. Dal Corso v.6.3
     Shape of augmentation charge: PSQ
     Using radial grid of 1199 points,  6 beta functions with: 
                l(1) =   0
                l(2) =   0
                l(3) =   1
                l(4) =   1
                l(5) =   2
                l(6) =   2
     Q(r) pseudized with 0 coefficients 


     atomic species   valence    mass     pseudopotential
        Cu            11.00    63.54600     Cu( 1.00)

     48 Sym. Ops., with inversion, found



   Cartesian axes

     site n.     atom                  positions (alat units)
         1           Cu  tau(   1) = (   0.0000000   0.0000000   0.0000000  )

     number of k points=    16  gaussian smearing, width (Ry)=  0.0100
                       cart. coord. in units 2pi/alat
        k(    1) = (   0.0000000   0.0000000   0.0000000), wk =   0.0092593
        k(    2) = (  -0.1666667   0.1666667  -0.1666667), wk =   0.0740741
        k(    3) = (  -0.3333333   0.3333333  -0.3333333), wk =   0.0740741
        k(    4) = (   0.5000000  -0.5000000   0.5000000), wk =   0.0370370
        k(    5) = (   0.0000000   0.3333333   0.0000000), wk =   0.0555556
        k(    6) = (  -0.1666667   0.5000000  -0.1666667), wk =   0.2222222
        k(    7) = (   0.6666667  -0.3333333   0.6666667), wk =   0.2222222
        k(    8) = (   0.5000000  -0.1666667   0.5000000), wk =   0.2222222
        k(    9) = (   0.3333333   0.0000000   0.3333333), wk =   0.1111111
        k(   10) = (   0.0000000   0.6666667   0.0000000), wk =   0.0555556
        k(   11) = (   0.8333333  -0.1666667   0.8333333), wk =   0.2222222
        k(   12) = (   0.6666667  -0.0000000   0.6666667), wk =   0.1111111
        k(   13) = (   0.0000000  -1.0000000   0.0000000), wk =   0.0277778
        k(   14) = (   0.6666667  -0.3333333   1.0000000), wk =   0.2222222
        k(   15) = (   0.5000000  -0.1666667   0.8333333), wk =   0.2222222
        k(   16) = (  -0.3333333  -1.0000000   0.0000000), wk =   0.1111111

     Dense  grid:     5673 G-vectors     FFT dimensions: (  25,  25,  25)

     Estimated max dynamical RAM per process >       5.99 MB

     Estimated total dynamical RAM >      29.93 MB

     Initial potential from superposition of free atoms

     starting charge   10.99979, renormalised to   11.00000
     Starting wfcs are    9 randomized atomic wfcs +    1 random wfcs
     Checking if some PAW data can be deallocated... 

     total cpu time spent up to now is        1.1 secs

     Self-consistent Calculation

     iteration #  1     ecut=    65.00 Ry     beta= 0.70
     Davidson diagonalization with overlap
     ethr =  1.00E-02,  avg # of iterations =  3.6

     Threshold (ethr) on eigenvalues was too large:
     Diagonalizing with lowered threshold

     Davidson diagonalization with overlap
     ethr =  6.66E-04,  avg # of iterations =  1.4

     total cpu time spent up to now is        1.5 secs

     total energy              =    -210.37244120 Ry
     Harris-Foulkes estimate   =    -210.43087498 Ry
     estimated scf accuracy    <       0.07306082 Ry

     iteration #  2     ecut=    65.00 Ry     beta= 0.70
     Davidson diagonalization with overlap
     ethr =  6.64E-04,  avg # of iterations =  2.1

     total cpu time spent up to now is        1.8 secs

     total energy              =    -210.37297350 Ry
     Harris-Foulkes estimate   =    -210.47691217 Ry
     estimated scf accuracy    <       0.27133347 Ry

     iteration #  3     ecut=    65.00 Ry     beta= 0.70
     Davidson diagonalization with overlap
     ethr =  6.64E-04,  avg # of iterations =  2.0

     total cpu time spent up to now is        2.0 secs

     total energy              =    -210.41625148 Ry
     Harris-Foulkes estimate   =    -210.41629196 Ry
     estimated scf accuracy    <       0.00008439 Ry

     iteration #  4     ecut=    65.00 Ry     beta= 0.70
     Davidson diagonalization with overlap
     ethr =  7.67E-07,  avg # of iterations =  2.7

     total cpu time spent up to now is        2.3 secs

     total energy              =    -210.41631030 Ry
     Harris-Foulkes estimate   =    -210.41631739 Ry
     estimated scf accuracy    <       0.00001888 Ry

     iteration #  5     ecut=    65.00 Ry     beta= 0.70
     Davidson diagonalization with overlap
     ethr =  1.72E-07,  avg # of iterations =  1.2

     total cpu time spent up to now is        2.5 secs

     total energy              =    -210.41631374 Ry
     Harris-Foulkes estimate   =    -210.41631390 Ry
     estimated scf accuracy    <       0.00000045 Ry

     iteration #  6     ecut=    65.00 Ry     beta= 0.70
     Davidson diagonalization with overlap
     ethr =  4.10E-09,  avg # of iterations =  1.8

     total cpu time spent up to now is        2.7 secs

     End of self-consistent calculation

          k = 0.0000 0.0000 0.0000 (   725 PWs)   bands (ev):

     3.0428   9.4718   9.4718   9.4718  10.3134  10.3134  35.3782  37.7504
    37.7504  37.7504

          k =-0.1667 0.1667-0.1667 (   712 PWs)   bands (ev):

     4.0313   9.2929   9.6128   9.6128  10.2869  10.2869  29.1085  35.7196
    35.9910  35.9910

          k =-0.3333 0.3333-0.3333 (   697 PWs)   bands (ev):

     6.4243   9.4414   9.5560   9.5560  10.6141  10.6141  21.0530  34.4943
    34.7645  34.7645

          k = 0.5000-0.5000 0.5000 (   718 PWs)   bands (ev):

     7.3732   9.4412   9.4412  10.8871  10.8871  11.4034  16.2162  33.7873
    34.5050  34.5050

          k = 0.0000 0.3333 0.0000 (   693 PWs)   bands (ev):

     4.3537   9.1027   9.7862   9.7862  10.0006  10.4507  32.2027  32.2027
    32.7195  34.3957

          k =-0.1667 0.5000-0.1667 (   700 PWs)   bands (ev):

     6.3211   8.8421   9.5255   9.9182  10.6339  10.7080  24.2364  30.2837
    31.3561  33.1605

          k = 0.6667-0.3333 0.6667 (   706 PWs)   bands (ev):

     7.8020   9.0598   9.5378   9.7698  10.9067  12.9348  17.4658  28.2139
    30.5599  32.8603

          k = 0.5000-0.1667 0.5000 (   703 PWs)   bands (ev):

     7.6155   9.2304   9.2959   9.7619  10.5370  12.1300  19.4455  26.6787
    33.1703  34.1837

          k = 0.3333 0.0000 0.3333 (   710 PWs)   bands (ev):

     5.5510   9.0413   9.5833   9.9017  10.0125  10.7892  26.6751  27.3809
    37.2847  37.6992

          k = 0.0000 0.6667 0.0000 (   717 PWs)   bands (ev):

     7.1459   8.3953  10.3818  10.5507  10.5507  10.7301  26.1075  27.4044
    27.4044  30.6562

          k = 0.8333-0.1667 0.8333 (   709 PWs)   bands (ev):

     7.8771   8.3127  10.0167  10.5031  10.9533  13.6605  21.3971  22.3142
    26.9261  31.4951

          k = 0.6667-0.0000 0.6667 (   702 PWs)   bands (ev):

     8.4254   8.5951   9.3302  10.2406  10.6837  15.6974  18.3663  20.9350
    29.0700  32.3423

          k = 0.0000-1.0000 0.0000 (   692 PWs)   bands (ev):

     7.5891   8.0563  10.8722  11.0297  11.0297  13.9032  19.5700  25.5209
    25.5209  30.0389

          k = 0.6667-0.3333 1.0000 (   709 PWs)   bands (ev):

     7.9041   8.6646   9.1869  10.3573  10.5500  12.4040  22.7016  23.7198
    27.1944  37.2041

          k = 0.5000-0.1667 0.8333 (   702 PWs)   bands (ev):

     8.5441   8.5842   9.1507  10.1664  10.8528  16.0084  17.2380  24.1994
    24.4274  37.5358

          k =-0.3333-1.0000 0.0000 (   708 PWs)   bands (ev):

     8.1089   8.4451   9.6623  10.4635  11.0303  16.4640  20.1131  21.1257
    22.4502  36.1615

     the Fermi energy is    12.4348 ev

!    total energy              =    -210.41631382 Ry
     Harris-Foulkes estimate   =    -210.41631382 Ry
     estimated scf accuracy    <          7.5E-10 Ry

     total all-electron energy =     -3307.295375 Ry

     The total energy is the sum of the following terms:

     one-electron contribution =     -28.00721330 Ry
     hartree contribution      =      30.53037544 Ry
     xc contribution           =     -44.11226518 Ry
     ewald contribution        =     -81.22522855 Ry
     one-center paw contrib.   =     -87.60138263 Ry
     smearing contrib. (-TS)   =      -0.00059960 Ry

     convergence has been achieved in   6 iterations

     Forces acting on atoms (cartesian axes, Ry/au):

     atom    1 type  1   force =     0.00000000    0.00000000    0.00000000

     Total force =     0.000000     Total SCF correction =     0.000000


     Computing stress (Cartesian axis) and pressure

          total   stress  (Ry/bohr**3)                   (kbar)     P=  -50.85
  -0.00034569   0.00000000  -0.00000000        -50.85      0.00     -0.00
   0.00000000  -0.00034569  -0.00000000          0.00    -50.85     -0.00
   0.00000000  -0.00000000  -0.00034569          0.00     -0.00    -50.85


     Writing output data file Cu.save/

     init_run     :      0.30s CPU      0.32s WALL (       1 calls)
     electrons    :      1.49s CPU      1.61s WALL (       1 calls)
     forces       :      0.02s CPU      0.02s WALL (       1 calls)
     stress       :      0.13s CPU      0.13s WALL (       1 calls)

     Called by init_run:
     wfcinit      :      0.04s CPU      0.04s WALL (       1 calls)
     potinit      :      0.10s CPU      0.11s WALL (       1 calls)
     hinit0       :      0.14s CPU      0.14s WALL (       1 calls)

     Called by electrons:
     c_bands      :      0.70s CPU      0.74s WALL (       7 calls)
     sum_band     :      0.17s CPU      0.18s WALL (       7 calls)
     v_of_rho     :      0.02s CPU      0.02s WALL (       7 calls)
     newd         :      0.04s CPU      0.05s WALL (       7 calls)
     PAW_pot      :      0.65s CPU      0.72s WALL (       7 calls)
     mix_rho      :      0.00s CPU      0.00s WALL (       7 calls)

     Called by c_bands:
     init_us_2    :      0.02s CPU      0.03s WALL (     272 calls)
     cegterg      :      0.67s CPU      0.71s WALL (     112 calls)

     Called by sum_band:
     sum_band:bec :      0.00s CPU      0.00s WALL (     112 calls)
     addusdens    :      0.04s CPU      0.04s WALL (       7 calls)

     Called by *egterg:
     h_psi        :      0.54s CPU      0.57s WALL (     364 calls)
     s_psi        :      0.02s CPU      0.02s WALL (     364 calls)
     g_psi        :      0.00s CPU      0.00s WALL (     236 calls)
     cdiaghg      :      0.06s CPU      0.07s WALL (     332 calls)

     Called by h_psi:
     h_psi:pot    :      0.54s CPU      0.57s WALL (     364 calls)
     h_psi:calbec :      0.03s CPU      0.03s WALL (     364 calls)
     vloc_psi     :      0.49s CPU      0.52s WALL (     364 calls)
     add_vuspsi   :      0.02s CPU      0.02s WALL (     364 calls)

     General routines
     calbec       :      0.04s CPU      0.04s WALL (     556 calls)
     fft          :      0.02s CPU      0.02s WALL (     104 calls)
     ffts         :      0.00s CPU      0.00s WALL (       7 calls)
     fftw         :      0.56s CPU      0.59s WALL (    6814 calls)

     Parallel routines
     fft_scatt_xy :      0.05s CPU      0.05s WALL (    6925 calls)
     fft_scatt_yz :      0.16s CPU      0.17s WALL (    6925 calls)

     PWSCF        :     2.77s CPU         2.97s WALL


   This run was terminated on:  23:31:31  25Mar2024            

=------------------------------------------------------------------------------=
   JOB DONE.
=------------------------------------------------------------------------------=
