
     Program PWSCF v.6.3MaX starts on 25Mar2024 at 23:11:53 

     This program is part of the open-source Quantum ESPRESSO suite
     for quantum simulation of materials; please cite
         "P. Giannozzi et al., J. Phys.:Condens. Matter 21 395502 (2009);
         "P. Giannozzi et al., J. Phys.:Condens. Matter 29 465901 (2017);
          URL http://www.quantum-espresso.org", 
     in publications or presentations arising from this work. More details at
     http://www.quantum-espresso.org/quote

     Parallel version (MPI), running on     5 processors

     MPI processes distributed on     1 nodes
     R & G space division:  proc/nbgrp/npool/nimage =       5
     Waiting for input...
     Reading input from standard input

     Current dimensions of program PWSCF are:
     Max number of different atomic species (ntypx) = 10
     Max number of k-points (npk) =  40000
     Max angular momentum in pseudopotentials (lmaxx) =  3
               file Cu.pbe-dn-rrkjus_psl.1.0.0.UPF: wavefunction(s)  3D renormalized

     Subspace diagonalization in iterative solution of the eigenvalue problem:
     a serial algorithm will be used


     Parallelization info
     --------------------
     sticks:   dense  smooth     PW     G-vecs:    dense   smooth      PW
     Min          18      18      7                  121      121      33
     Max          19      19      8                  123      123      35
     Sum          91      91     37                  609      609     169



     bravais-lattice index     =            2
     lattice parameter (alat)  =       6.8300  a.u.
     unit-cell volume          =      79.6530 (a.u.)^3
     number of atoms/cell      =            1
     number of atomic types    =            1
     number of electrons       =        11.00
     number of Kohn-Sham states=           10
     kinetic-energy cutoff     =      15.0000  Ry
     charge density cutoff     =      60.0000  Ry
     convergence threshold     =      1.0E-08
     mixing beta               =       0.7000
     number of iterations used =            8  plain     mixing
     Exchange-correlation      = PBE ( 1  4  3  4 0 0)

     celldm(1)=   6.830000  celldm(2)=   0.000000  celldm(3)=   0.000000
     celldm(4)=   0.000000  celldm(5)=   0.000000  celldm(6)=   0.000000

     crystal axes: (cart. coord. in units of alat)
               a(1) = (  -0.500000   0.000000   0.500000 )  
               a(2) = (   0.000000   0.500000   0.500000 )  
               a(3) = (  -0.500000   0.500000   0.000000 )  

     reciprocal axes: (cart. coord. in units 2 pi/alat)
               b(1) = ( -1.000000 -1.000000  1.000000 )  
               b(2) = (  1.000000  1.000000  1.000000 )  
               b(3) = ( -1.000000  1.000000 -1.000000 )  


     PseudoPot. # 1 for Cu read from file:
     /home/lorenzo/pseudos/Cu/Cu.pbe-dn-rrkjus_psl.1.0.0.UPF
     MD5 check sum: ba3d6c84e19846e79d48cdc68ff7152b
     Pseudo is Ultrasoft + core correction, Zval = 11.0
     Generated using "atomic" code by A. Dal Corso v.6.3
     Using radial grid of 1199 points,  6 beta functions with: 
                l(1) =   0
                l(2) =   0
                l(3) =   1
                l(4) =   1
                l(5) =   2
                l(6) =   2
     Q(r) pseudized with 0 coefficients 


     atomic species   valence    mass     pseudopotential
        Cu            11.00    63.54600     Cu( 1.00)

     48 Sym. Ops., with inversion, found



   Cartesian axes

     site n.     atom                  positions (alat units)
         1           Cu  tau(   1) = (   0.0000000   0.0000000   0.0000000  )

     number of k points=    35  gaussian smearing, width (Ry)=  0.0100
                       cart. coord. in units 2pi/alat
        k(    1) = (   0.0000000   0.0000000   0.0000000), wk =   0.0027435
        k(    2) = (  -0.1111111   0.1111111  -0.1111111), wk =   0.0219479
        k(    3) = (  -0.2222222   0.2222222  -0.2222222), wk =   0.0219479
        k(    4) = (  -0.3333333   0.3333333  -0.3333333), wk =   0.0219479
        k(    5) = (  -0.4444444   0.4444444  -0.4444444), wk =   0.0219479
        k(    6) = (   0.0000000   0.2222222   0.0000000), wk =   0.0164609
        k(    7) = (  -0.1111111   0.3333333  -0.1111111), wk =   0.0658436
        k(    8) = (  -0.2222222   0.4444444  -0.2222222), wk =   0.0658436
        k(    9) = (  -0.3333333   0.5555556  -0.3333333), wk =   0.0658436
        k(   10) = (   0.5555556  -0.3333333   0.5555556), wk =   0.0658436
        k(   11) = (   0.4444444  -0.2222222   0.4444444), wk =   0.0658436
        k(   12) = (   0.3333333  -0.1111111   0.3333333), wk =   0.0658436
        k(   13) = (   0.2222222  -0.0000000   0.2222222), wk =   0.0329218
        k(   14) = (   0.0000000   0.4444444   0.0000000), wk =   0.0164609
        k(   15) = (  -0.1111111   0.5555556  -0.1111111), wk =   0.0658436
        k(   16) = (  -0.2222222   0.6666667  -0.2222222), wk =   0.0658436
        k(   17) = (   0.6666667  -0.2222222   0.6666667), wk =   0.0658436
        k(   18) = (   0.5555556  -0.1111111   0.5555556), wk =   0.0658436
        k(   19) = (   0.4444444   0.0000000   0.4444444), wk =   0.0329218
        k(   20) = (   0.0000000   0.6666667   0.0000000), wk =   0.0164609
        k(   21) = (  -0.1111111   0.7777778  -0.1111111), wk =   0.0658436
        k(   22) = (   0.7777778  -0.1111111   0.7777778), wk =   0.0658436
        k(   23) = (   0.6666667  -0.0000000   0.6666667), wk =   0.0329218
        k(   24) = (   0.0000000   0.8888889   0.0000000), wk =   0.0164609
        k(   25) = (   0.8888889   0.0000000   0.8888889), wk =   0.0329218
        k(   26) = (  -0.2222222   0.4444444   0.0000000), wk =   0.0658436
        k(   27) = (  -0.3333333   0.5555556  -0.1111111), wk =   0.1316872
        k(   28) = (   0.5555556  -0.3333333   0.7777778), wk =   0.1316872
        k(   29) = (  -0.2222222   0.6666667   0.0000000), wk =   0.0658436
        k(   30) = (   0.6666667  -0.2222222   0.8888889), wk =   0.1316872
        k(   31) = (   0.5555556  -0.1111111   0.7777778), wk =   0.1316872
        k(   32) = (   0.4444444   0.0000000   0.6666667), wk =   0.0658436
        k(   33) = (   0.7777778  -0.1111111   1.0000000), wk =   0.0658436
        k(   34) = (   0.6666667  -0.0000000   0.8888889), wk =   0.0658436
        k(   35) = (   0.5555556  -0.1111111   1.0000000), wk =   0.0658436

     Dense  grid:      609 G-vectors     FFT dimensions: (  12,  12,  12)

     Estimated max dynamical RAM per process >       1.22 MB

     Estimated total dynamical RAM >       6.11 MB

     Check: negative/imaginary core charge=   -0.001143    0.000000

     Initial potential from superposition of free atoms

     starting charge   10.99977, renormalised to   11.00000
     Starting wfcs are    9 randomized atomic wfcs +    1 random wfcs

     total cpu time spent up to now is        1.4 secs

     Self-consistent Calculation

     iteration #  1     ecut=    15.00 Ry     beta= 0.70
     Davidson diagonalization with overlap
     ethr =  1.00E-02,  avg # of iterations =  3.7

     total cpu time spent up to now is        1.6 secs

     total energy              =    -117.77093862 Ry
     Harris-Foulkes estimate   =    -120.70689887 Ry
     estimated scf accuracy    <       3.57601185 Ry

     iteration #  2     ecut=    15.00 Ry     beta= 0.70
     Davidson diagonalization with overlap
     ethr =  1.00E-02,  avg # of iterations =  2.3

     total cpu time spent up to now is        1.7 secs

     total energy              =    -119.46078056 Ry
     Harris-Foulkes estimate   =    -120.28528226 Ry
     estimated scf accuracy    <       1.44916422 Ry

     iteration #  3     ecut=    15.00 Ry     beta= 0.70
     Davidson diagonalization with overlap
     ethr =  1.00E-02,  avg # of iterations =  1.6

     total cpu time spent up to now is        1.7 secs

     total energy              =    -119.53370698 Ry
     Harris-Foulkes estimate   =    -119.61024977 Ry
     estimated scf accuracy    <       0.11301749 Ry

     iteration #  4     ecut=    15.00 Ry     beta= 0.70
     Davidson diagonalization with overlap
     ethr =  1.03E-03,  avg # of iterations =  2.3

     total cpu time spent up to now is        1.8 secs

     total energy              =    -119.55179301 Ry
     Harris-Foulkes estimate   =    -119.61251664 Ry
     estimated scf accuracy    <       0.10931052 Ry

     iteration #  5     ecut=    15.00 Ry     beta= 0.70
     Davidson diagonalization with overlap
     ethr =  9.94E-04,  avg # of iterations =  1.8

     total cpu time spent up to now is        1.9 secs

     total energy              =    -119.57415650 Ry
     Harris-Foulkes estimate   =    -119.57404587 Ry
     estimated scf accuracy    <       0.00002274 Ry

     iteration #  6     ecut=    15.00 Ry     beta= 0.70
     Davidson diagonalization with overlap
     ethr =  2.07E-07,  avg # of iterations =  3.1

     total cpu time spent up to now is        2.0 secs

     total energy              =    -119.57409656 Ry
     Harris-Foulkes estimate   =    -119.57436366 Ry
     estimated scf accuracy    <       0.00045909 Ry

     iteration #  7     ecut=    15.00 Ry     beta= 0.70
     Davidson diagonalization with overlap
     ethr =  2.07E-07,  avg # of iterations =  2.5

     total cpu time spent up to now is        2.1 secs

     total energy              =    -119.57418576 Ry
     Harris-Foulkes estimate   =    -119.57418591 Ry
     estimated scf accuracy    <       0.00000051 Ry

     iteration #  8     ecut=    15.00 Ry     beta= 0.70
     Davidson diagonalization with overlap
     ethr =  4.64E-09,  avg # of iterations =  1.1

     total cpu time spent up to now is        2.2 secs

     total energy              =    -119.57418578 Ry
     Harris-Foulkes estimate   =    -119.57418581 Ry
     estimated scf accuracy    <       0.00000005 Ry

     iteration #  9     ecut=    15.00 Ry     beta= 0.70
     Davidson diagonalization with overlap
     ethr =  4.90E-10,  avg # of iterations =  2.3

     total cpu time spent up to now is        2.3 secs

     total energy              =    -119.57418580 Ry
     Harris-Foulkes estimate   =    -119.57418582 Ry
     estimated scf accuracy    <       0.00000002 Ry

     iteration # 10     ecut=    15.00 Ry     beta= 0.70
     Davidson diagonalization with overlap
     ethr =  1.77E-10,  avg # of iterations =  2.0

     total cpu time spent up to now is        2.3 secs

     End of self-consistent calculation

          k = 0.0000 0.0000 0.0000 (    65 PWs)   bands (ev):

     3.5594   7.9945   7.9945   9.1359   9.1359   9.1359  37.0464  37.0464
    37.0464  37.2203

          k =-0.1111 0.1111-0.1111 (    68 PWs)   bands (ev):

     3.9897   7.5230   7.7820   7.7820   9.0628   9.0628  33.2868  36.8046
    36.8046  37.4908

          k =-0.2222 0.2222-0.2222 (    74 PWs)   bands (ev):

     5.0380   6.2242   6.2242   7.0580   8.4185   8.4185  27.1682  35.7538
    35.7538  37.3216

          k =-0.3333 0.3333-0.3333 (    74 PWs)   bands (ev):

     5.6766   6.3200   6.3200   8.1446   8.1446   8.5951  21.6356  34.5513
    34.5513  36.2474

          k =-0.4444 0.4444-0.4444 (    76 PWs)   bands (ev):

     5.3783   5.9329   5.9329   7.9917   7.9917  11.2241  16.9503  33.7429
    33.7429  35.4259

          k = 0.0000 0.2222 0.0000 (    72 PWs)   bands (ev):

     4.1359   6.9125   6.9125   7.1228   8.3876   8.7190  34.6915  34.6915
    35.8042  37.0918

          k =-0.1111 0.3333-0.1111 (    73 PWs)   bands (ev):

     4.9672   6.7121   6.9067   7.3422   7.4700   8.8379  29.4553  33.0290
    35.7317  37.9842

          k =-0.2222 0.4444-0.2222 (    78 PWs)   bands (ev):

     5.4431   5.7325   6.1144   7.0400   7.3361   8.2005  23.5044  31.9239
    34.1432  35.7012

          k =-0.3333 0.5556-0.3333 (    79 PWs)   bands (ev):

     4.9164   5.8785   6.3312   6.6989   7.2641  10.6864  18.3929  31.7817
    31.9526  35.0041

          k = 0.5556-0.3333 0.5556 (    80 PWs)   bands (ev):

     4.8764   5.7270   5.9080   6.4765   7.2206  12.5937  15.9408  30.4649
    32.6214  35.0950

          k = 0.4444-0.2222 0.4444 (    76 PWs)   bands (ev):

     5.5909   6.2063   6.2847   7.3893   7.8080   9.9441  20.2023  30.0146
    34.5292  36.0357

          k = 0.3333-0.1111 0.3333 (    75 PWs)   bands (ev):

     5.4371   6.1610   6.4562   7.4572   7.9458   8.1775  25.5599  30.3557
    36.9557  37.8678

          k = 0.2222-0.0000 0.2222 (    71 PWs)   bands (ev):

     4.6293   6.6890   6.8938   8.0791   8.3397   8.9671  31.2531  31.8381
    38.1411  38.8055

          k = 0.0000 0.4444 0.0000 (    76 PWs)   bands (ev):

     5.3627   6.1765   6.1765   7.1141   7.2711   7.9013  30.6512  30.6512
    33.4439  35.0444

          k =-0.1111 0.5556-0.1111 (    79 PWs)   bands (ev):

     5.4750   5.7152   5.7253   6.4187   7.2896   8.5517  26.1132  29.2648
    30.5164  34.9221

          k =-0.2222 0.6667-0.2222 (    78 PWs)   bands (ev):

     5.0210   6.0235   6.3180   7.2143   7.4257  11.0198  21.0072  27.8190
    29.0228  34.7989

          k = 0.6667-0.2222 0.6667 (    79 PWs)   bands (ev):

     5.1504   6.0915   6.2229   6.7666   7.0277  14.4416  16.6807  25.7717
    29.9229  34.9133

          k = 0.5556-0.1111 0.5556 (    81 PWs)   bands (ev):

     4.8034   5.3533   5.8079   6.8455   6.8839  12.1611  19.2377  24.6843
    31.8612  35.4003

          k = 0.4444 0.0000 0.4444 (    79 PWs)   bands (ev):

     5.6340   5.6472   5.9794   6.2220   7.4232   9.4249  24.4301  24.7937
    34.6545  36.7618

          k = 0.0000 0.6667 0.0000 (    76 PWs)   bands (ev):

     5.5641   6.5603   6.5603   7.4003   7.4535   9.7296  26.8370  27.4977
    27.4977  33.7332

          k =-0.1111 0.7778-0.1111 (    80 PWs)   bands (ev):

     5.2046   5.5828   5.9298   6.7978   6.9358  11.8789  23.5019  24.3410
    26.8287  34.3894

          k = 0.7778-0.1111 0.7778 (    76 PWs)   bands (ev):

     6.1227   6.6591   6.7735   7.1332   7.2373  15.2917  19.7508  21.9522
    27.4687  34.9494

          k = 0.6667-0.0000 0.6667 (    81 PWs)   bands (ev):

     5.3863   5.7107   5.8898   5.9378   6.9399  15.5080  18.5846  21.1208
    29.1659  35.0790

          k = 0.0000 0.8889 0.0000 (    84 PWs)   bands (ev):

     4.8961   5.1807   5.2917   5.2917   6.8004  13.3470  20.8182  25.6978
    25.6978  33.3183

          k = 0.8889 0.0000 0.8889 (    77 PWs)   bands (ev):

     6.1357   6.1773   6.7425   6.9472   7.5450  14.9849  20.1520  23.3835
    25.9529  34.7637

          k =-0.2222 0.4444 0.0000 (    76 PWs)   bands (ev):

     5.5660   5.8714   6.3638   7.4733   7.5003   8.1774  27.8024  28.1154
    34.4645  37.6903

          k =-0.3333 0.5556-0.1111 (    78 PWs)   bands (ev):

     5.5972   5.6999   6.1965   6.7835   7.5064   9.9279  22.4234  27.3420
    31.5005  37.1906

          k = 0.5556-0.3333 0.7778 (    79 PWs)   bands (ev):

     5.3621   5.5763   6.3256   6.5422   7.4066  12.8497  17.6827  27.5970
    29.3663  36.4896

          k =-0.2222 0.6667 0.0000 (    78 PWs)   bands (ev):

     5.5815   5.9428   6.1376   6.9878   7.2987  10.4816  25.0619  25.3578
    27.5125  36.7009

          k = 0.6667-0.2222 0.8889 (    82 PWs)   bands (ev):

     4.9656   5.2753   5.6032   6.2223   6.9912  13.2401  20.3478  24.4727
    25.6697  37.1033

          k = 0.5556-0.1111 0.7778 (    79 PWs)   bands (ev):

     5.5738   6.0908   6.2579   6.6094   7.0058  16.0087  17.5980  23.0420
    26.7973  37.4938

          k = 0.4444 0.0000 0.6667 (    80 PWs)   bands (ev):

     5.2858   5.3021   6.0384   6.9197   7.1200  12.3802  21.5858  22.6104
    28.7697  38.0795

          k = 0.7778-0.1111 1.0000 (    82 PWs)   bands (ev):

     4.7496   5.4870   5.9268   6.4948   6.5152  14.2035  21.1681  23.7247
    23.9620  36.3379

          k = 0.6667-0.0000 0.8889 (    78 PWs)   bands (ev):

     5.3881   6.5036   6.7007   6.8268   7.1942  16.9729  19.7183  20.3718
    24.8666  37.1958

          k = 0.5556-0.1111 1.0000 (    80 PWs)   bands (ev):

     5.1313   6.2893   6.3029   6.4967   6.6813  16.7201  20.2560  21.1840
    22.9745  40.5498

     the Fermi energy is    12.0418 ev

!    total energy              =    -119.57418581 Ry
     Harris-Foulkes estimate   =    -119.57418581 Ry
     estimated scf accuracy    <          9.4E-10 Ry

     The total energy is the sum of the following terms:

     one-electron contribution =     -20.37090004 Ry
     hartree contribution      =      24.90577544 Ry
     xc contribution           =     -42.88369851 Ry
     ewald contribution        =     -81.22523186 Ry
     smearing contrib. (-TS)   =      -0.00013083 Ry

     convergence has been achieved in  10 iterations

     Forces acting on atoms (cartesian axes, Ry/au):

     atom    1 type  1   force =     0.00000000    0.00000000    0.00000000

     Total force =     0.000000     Total SCF correction =     0.000000


     Computing stress (Cartesian axis) and pressure

          total   stress  (Ry/bohr**3)                   (kbar)     P=********
  -0.11933290  -0.00000000  -0.00000000     -17554.47     -0.00     -0.00
  -0.00000000  -0.11933290   0.00000000         -0.00 -17554.47      0.00
  -0.00000000   0.00000000  -0.11933290         -0.00      0.00 -17554.47


     Writing output data file Cu.save/

     init_run     :      0.10s CPU      0.11s WALL (       1 calls)
     electrons    :      0.76s CPU      0.91s WALL (       1 calls)
     forces       :      0.01s CPU      0.01s WALL (       1 calls)
     stress       :      0.02s CPU      0.02s WALL (       1 calls)

     Called by init_run:
     wfcinit      :      0.03s CPU      0.03s WALL (       1 calls)
     potinit      :      0.00s CPU      0.00s WALL (       1 calls)
     hinit0       :      0.07s CPU      0.07s WALL (       1 calls)

     Called by electrons:
     c_bands      :      0.66s CPU      0.78s WALL (      10 calls)
     sum_band     :      0.09s CPU      0.10s WALL (      10 calls)
     v_of_rho     :      0.01s CPU      0.01s WALL (      11 calls)
     newd         :      0.01s CPU      0.01s WALL (      11 calls)
     mix_rho      :      0.00s CPU      0.00s WALL (      10 calls)

     Called by c_bands:
     init_us_2    :      0.01s CPU      0.01s WALL (     805 calls)
     cegterg      :      0.64s CPU      0.76s WALL (     350 calls)

     Called by sum_band:
     sum_band:bec :      0.00s CPU      0.00s WALL (     350 calls)
     addusdens    :      0.01s CPU      0.01s WALL (      10 calls)

     Called by *egterg:
     h_psi        :      0.37s CPU      0.45s WALL (    1179 calls)
     s_psi        :      0.01s CPU      0.02s WALL (    1179 calls)
     g_psi        :      0.00s CPU      0.00s WALL (     794 calls)
     cdiaghg      :      0.19s CPU      0.22s WALL (    1144 calls)

     Called by h_psi:
     h_psi:pot    :      0.37s CPU      0.45s WALL (    1179 calls)
     h_psi:calbec :      0.02s CPU      0.03s WALL (    1179 calls)
     vloc_psi     :      0.33s CPU      0.39s WALL (    1179 calls)
     add_vuspsi   :      0.01s CPU      0.02s WALL (    1179 calls)

     General routines
     calbec       :      0.03s CPU      0.04s WALL (    1704 calls)
     fft          :      0.00s CPU      0.00s WALL (     147 calls)
     ffts         :      0.00s CPU      0.00s WALL (      10 calls)
     fftw         :      0.34s CPU      0.41s WALL (   22128 calls)

     Parallel routines
     fft_scatt_xy :      0.04s CPU      0.05s WALL (   22285 calls)
     fft_scatt_yz :      0.15s CPU      0.18s WALL (   22285 calls)

     PWSCF        :     2.25s CPU         2.45s WALL


   This run was terminated on:  23:11:55  25Mar2024            

=------------------------------------------------------------------------------=
   JOB DONE.
=------------------------------------------------------------------------------=
