
     Program PWSCF v.6.3MaX starts on 25Mar2024 at 23:26:53 

     This program is part of the open-source Quantum ESPRESSO suite
     for quantum simulation of materials; please cite
         "P. Giannozzi et al., J. Phys.:Condens. Matter 21 395502 (2009);
         "P. Giannozzi et al., J. Phys.:Condens. Matter 29 465901 (2017);
          URL http://www.quantum-espresso.org", 
     in publications or presentations arising from this work. More details at
     http://www.quantum-espresso.org/quote

     Parallel version (MPI), running on     5 processors

     MPI processes distributed on     1 nodes
     R & G space division:  proc/nbgrp/npool/nimage =       5
     Waiting for input...
     Reading input from standard input

     Current dimensions of program PWSCF are:
     Max number of different atomic species (ntypx) = 10
     Max number of k-points (npk) =  40000
     Max angular momentum in pseudopotentials (lmaxx) =  3
               file Cu.pbesol-dn-kjpaw_psl.1.0.0.UPF: wavefunction(s)  4S 3D renormalized

     Subspace diagonalization in iterative solution of the eigenvalue problem:
     a serial algorithm will be used


     Parallelization info
     --------------------
     sticks:   dense  smooth     PW     G-vecs:    dense   smooth      PW
     Min          72      72     24                  876      876     173
     Max          73      73     25                  877      877     174
     Sum         361     361    121                 4381     4381     869



     bravais-lattice index     =            2
     lattice parameter (alat)  =       6.8300  a.u.
     unit-cell volume          =      79.6530 (a.u.)^3
     number of atoms/cell      =            1
     number of atomic types    =            1
     number of electrons       =        11.00
     number of Kohn-Sham states=           10
     kinetic-energy cutoff     =      55.0000  Ry
     charge density cutoff     =     220.0000  Ry
     convergence threshold     =      1.0E-08
     mixing beta               =       0.7000
     number of iterations used =            8  plain     mixing
     Exchange-correlation      = SLA PW PSX PSC ( 1  4 10  8 0 0)

     celldm(1)=   6.830000  celldm(2)=   0.000000  celldm(3)=   0.000000
     celldm(4)=   0.000000  celldm(5)=   0.000000  celldm(6)=   0.000000

     crystal axes: (cart. coord. in units of alat)
               a(1) = (  -0.500000   0.000000   0.500000 )  
               a(2) = (   0.000000   0.500000   0.500000 )  
               a(3) = (  -0.500000   0.500000   0.000000 )  

     reciprocal axes: (cart. coord. in units 2 pi/alat)
               b(1) = ( -1.000000 -1.000000  1.000000 )  
               b(2) = (  1.000000  1.000000  1.000000 )  
               b(3) = ( -1.000000  1.000000 -1.000000 )  


     PseudoPot. # 1 for Cu read from file:
     /home/lorenzo/pseudos/Cu/Cu.pbesol-dn-kjpaw_psl.1.0.0.UPF
     MD5 check sum: 1e9735a74797514c934643dbd229f231
     Pseudo is Projector augmented-wave + core cor, Zval = 11.0
     Generated using "atomic" code by A. Dal Corso v.6.3
     Shape of augmentation charge: PSQ
     Using radial grid of 1199 points,  6 beta functions with: 
                l(1) =   0
                l(2) =   0
                l(3) =   1
                l(4) =   1
                l(5) =   2
                l(6) =   2
     Q(r) pseudized with 0 coefficients 


     atomic species   valence    mass     pseudopotential
        Cu            11.00    63.54600     Cu( 1.00)

     48 Sym. Ops., with inversion, found



   Cartesian axes

     site n.     atom                  positions (alat units)
         1           Cu  tau(   1) = (   0.0000000   0.0000000   0.0000000  )

     number of k points=    16  gaussian smearing, width (Ry)=  0.0100
                       cart. coord. in units 2pi/alat
        k(    1) = (   0.0000000   0.0000000   0.0000000), wk =   0.0092593
        k(    2) = (  -0.1666667   0.1666667  -0.1666667), wk =   0.0740741
        k(    3) = (  -0.3333333   0.3333333  -0.3333333), wk =   0.0740741
        k(    4) = (   0.5000000  -0.5000000   0.5000000), wk =   0.0370370
        k(    5) = (   0.0000000   0.3333333   0.0000000), wk =   0.0555556
        k(    6) = (  -0.1666667   0.5000000  -0.1666667), wk =   0.2222222
        k(    7) = (   0.6666667  -0.3333333   0.6666667), wk =   0.2222222
        k(    8) = (   0.5000000  -0.1666667   0.5000000), wk =   0.2222222
        k(    9) = (   0.3333333   0.0000000   0.3333333), wk =   0.1111111
        k(   10) = (   0.0000000   0.6666667   0.0000000), wk =   0.0555556
        k(   11) = (   0.8333333  -0.1666667   0.8333333), wk =   0.2222222
        k(   12) = (   0.6666667  -0.0000000   0.6666667), wk =   0.1111111
        k(   13) = (   0.0000000  -1.0000000   0.0000000), wk =   0.0277778
        k(   14) = (   0.6666667  -0.3333333   1.0000000), wk =   0.2222222
        k(   15) = (   0.5000000  -0.1666667   0.8333333), wk =   0.2222222
        k(   16) = (  -0.3333333  -1.0000000   0.0000000), wk =   0.1111111

     Dense  grid:     4381 G-vectors     FFT dimensions: (  24,  24,  24)

     Estimated max dynamical RAM per process >       4.86 MB

     Estimated total dynamical RAM >      24.30 MB

     Initial potential from superposition of free atoms

     starting charge   10.99979, renormalised to   11.00000
     Starting wfcs are    9 randomized atomic wfcs +    1 random wfcs
     Checking if some PAW data can be deallocated... 

     total cpu time spent up to now is        1.0 secs

     Self-consistent Calculation

     iteration #  1     ecut=    55.00 Ry     beta= 0.70
     Davidson diagonalization with overlap
     ethr =  1.00E-02,  avg # of iterations =  3.9

     Threshold (ethr) on eigenvalues was too large:
     Diagonalizing with lowered threshold

     Davidson diagonalization with overlap
     ethr =  6.67E-04,  avg # of iterations =  1.0

     total cpu time spent up to now is        1.5 secs

     total energy              =    -210.37225043 Ry
     Harris-Foulkes estimate   =    -210.43070199 Ry
     estimated scf accuracy    <       0.07308119 Ry

     iteration #  2     ecut=    55.00 Ry     beta= 0.70
     Davidson diagonalization with overlap
     ethr =  6.64E-04,  avg # of iterations =  2.1

     total cpu time spent up to now is        1.7 secs

     total energy              =    -210.37278818 Ry
     Harris-Foulkes estimate   =    -210.47672063 Ry
     estimated scf accuracy    <       0.27126598 Ry

     iteration #  3     ecut=    55.00 Ry     beta= 0.70
     Davidson diagonalization with overlap
     ethr =  6.64E-04,  avg # of iterations =  2.1

     total cpu time spent up to now is        1.9 secs

     total energy              =    -210.41606968 Ry
     Harris-Foulkes estimate   =    -210.41610973 Ry
     estimated scf accuracy    <       0.00008351 Ry

     iteration #  4     ecut=    55.00 Ry     beta= 0.70
     Davidson diagonalization with overlap
     ethr =  7.59E-07,  avg # of iterations =  2.2

     total cpu time spent up to now is        2.1 secs

     total energy              =    -210.41612528 Ry
     Harris-Foulkes estimate   =    -210.41613230 Ry
     estimated scf accuracy    <       0.00001853 Ry

     iteration #  5     ecut=    55.00 Ry     beta= 0.70
     Davidson diagonalization with overlap
     ethr =  1.68E-07,  avg # of iterations =  1.2

     total cpu time spent up to now is        2.3 secs

     total energy              =    -210.41612869 Ry
     Harris-Foulkes estimate   =    -210.41612886 Ry
     estimated scf accuracy    <       0.00000047 Ry

     iteration #  6     ecut=    55.00 Ry     beta= 0.70
     Davidson diagonalization with overlap
     ethr =  4.27E-09,  avg # of iterations =  1.6

     total cpu time spent up to now is        2.5 secs

     End of self-consistent calculation

          k = 0.0000 0.0000 0.0000 (   537 PWs)   bands (ev):

     3.0430   9.4716   9.4716   9.4716  10.3133  10.3133  35.3782  37.7506
    37.7506  37.7506

          k =-0.1667 0.1667-0.1667 (   552 PWs)   bands (ev):

     4.0315   9.2927   9.6126   9.6126  10.2867  10.2867  29.1092  35.7197
    35.9920  35.9920

          k =-0.3333 0.3333-0.3333 (   555 PWs)   bands (ev):

     6.4244   9.4413   9.5557   9.5557  10.6140  10.6140  21.0535  34.4944
    34.7652  34.7652

          k = 0.5000-0.5000 0.5000 (   568 PWs)   bands (ev):

     7.3731   9.4409   9.4409  10.8868  10.8868  11.4036  16.2165  33.7873
    34.5053  34.5053

          k = 0.0000 0.3333 0.0000 (   548 PWs)   bands (ev):

     4.3538   9.1026   9.7860   9.7860  10.0003  10.4507  32.2034  32.2034
    32.7206  34.3961

          k =-0.1667 0.5000-0.1667 (   556 PWs)   bands (ev):

     6.3212   8.8419   9.5252   9.9179  10.6338  10.7078  24.2369  30.2843
    31.3568  33.1613

          k = 0.6667-0.3333 0.6667 (   548 PWs)   bands (ev):

     7.8019   9.0597   9.5378   9.7697  10.9067  12.9350  17.4662  28.2145
    30.5605  32.8609

          k = 0.5000-0.1667 0.5000 (   549 PWs)   bands (ev):

     7.6155   9.2303   9.2958   9.7617  10.5369  12.1301  19.4460  26.6793
    33.1710  34.1841

          k = 0.3333 0.0000 0.3333 (   554 PWs)   bands (ev):

     5.5512   9.0411   9.5831   9.9015  10.0123  10.7892  26.6758  27.3814
    37.2851  37.7004

          k = 0.0000 0.6667 0.0000 (   556 PWs)   bands (ev):

     7.1459   8.3951  10.3818  10.5506  10.5506  10.7300  26.1081  27.4049
    27.4049  30.6576

          k = 0.8333-0.1667 0.8333 (   548 PWs)   bands (ev):

     7.8770   8.3125  10.0167  10.5030  10.9533  13.6607  21.3975  22.3148
    26.9264  31.4961

          k = 0.6667-0.0000 0.6667 (   544 PWs)   bands (ev):

     8.4252   8.5951   9.3301  10.2404  10.6836  15.6978  18.3668  20.9354
    29.0705  32.3431

          k = 0.0000-1.0000 0.0000 (   524 PWs)   bands (ev):

     7.5892   8.0561  10.8724  11.0299  11.0299  13.9034  19.5706  25.5212
    25.5212  30.0401

          k = 0.6667-0.3333 1.0000 (   549 PWs)   bands (ev):

     7.9041   8.6645   9.1867  10.3571  10.5499  12.4041  22.7022  23.7202
    27.1950  37.2053

          k = 0.5000-0.1667 0.8333 (   552 PWs)   bands (ev):

     8.5440   8.5840   9.1506  10.1662  10.8526  16.0087  17.2384  24.2000
    24.4278  37.5363

          k =-0.3333-1.0000 0.0000 (   534 PWs)   bands (ev):

     8.1089   8.4450   9.6623  10.4635  11.0303  16.4643  20.1137  21.1262
    22.4506  36.1626

     the Fermi energy is    12.4349 ev

!    total energy              =    -210.41612877 Ry
     Harris-Foulkes estimate   =    -210.41612877 Ry
     estimated scf accuracy    <          3.7E-10 Ry

     total all-electron energy =     -3307.295190 Ry

     The total energy is the sum of the following terms:

     one-electron contribution =     -28.00676945 Ry
     hartree contribution      =      30.52996304 Ry
     xc contribution           =     -44.11216032 Ry
     ewald contribution        =     -81.22522864 Ry
     one-center paw contrib.   =     -87.60133381 Ry
     smearing contrib. (-TS)   =      -0.00059960 Ry

     convergence has been achieved in   6 iterations

     Forces acting on atoms (cartesian axes, Ry/au):

     atom    1 type  1   force =     0.00000000    0.00000000    0.00000000

     Total force =     0.000000     Total SCF correction =     0.000000


     Computing stress (Cartesian axis) and pressure

          total   stress  (Ry/bohr**3)                   (kbar)     P=  -55.77
  -0.00037913  -0.00000000  -0.00000000        -55.77     -0.00     -0.00
  -0.00000000  -0.00037913   0.00000000         -0.00    -55.77      0.00
  -0.00000000   0.00000000  -0.00037913         -0.00      0.00    -55.77


     Writing output data file Cu.save/

     init_run     :      0.27s CPU      0.29s WALL (       1 calls)
     electrons    :      1.36s CPU      1.48s WALL (       1 calls)
     forces       :      0.02s CPU      0.02s WALL (       1 calls)
     stress       :      0.06s CPU      0.06s WALL (       1 calls)

     Called by init_run:
     wfcinit      :      0.03s CPU      0.03s WALL (       1 calls)
     potinit      :      0.09s CPU      0.10s WALL (       1 calls)
     hinit0       :      0.12s CPU      0.13s WALL (       1 calls)

     Called by electrons:
     c_bands      :      0.62s CPU      0.67s WALL (       7 calls)
     sum_band     :      0.14s CPU      0.15s WALL (       7 calls)
     v_of_rho     :      0.02s CPU      0.02s WALL (       7 calls)
     newd         :      0.03s CPU      0.03s WALL (       7 calls)
     PAW_pot      :      0.63s CPU      0.71s WALL (       7 calls)
     mix_rho      :      0.00s CPU      0.00s WALL (       7 calls)

     Called by c_bands:
     init_us_2    :      0.02s CPU      0.02s WALL (     272 calls)
     cegterg      :      0.60s CPU      0.64s WALL (     112 calls)

     Called by sum_band:
     sum_band:bec :      0.00s CPU      0.00s WALL (     112 calls)
     addusdens    :      0.03s CPU      0.03s WALL (       7 calls)

     Called by *egterg:
     h_psi        :      0.47s CPU      0.50s WALL (     356 calls)
     s_psi        :      0.02s CPU      0.02s WALL (     356 calls)
     g_psi        :      0.00s CPU      0.00s WALL (     228 calls)
     cdiaghg      :      0.07s CPU      0.07s WALL (     324 calls)

     Called by h_psi:
     h_psi:pot    :      0.47s CPU      0.50s WALL (     356 calls)
     h_psi:calbec :      0.02s CPU      0.02s WALL (     356 calls)
     vloc_psi     :      0.42s CPU      0.45s WALL (     356 calls)
     add_vuspsi   :      0.02s CPU      0.02s WALL (     356 calls)

     General routines
     calbec       :      0.03s CPU      0.04s WALL (     548 calls)
     fft          :      0.01s CPU      0.01s WALL (     104 calls)
     ffts         :      0.00s CPU      0.00s WALL (       7 calls)
     fftw         :      0.47s CPU      0.50s WALL (    6788 calls)

     Parallel routines
     fft_scatt_xy :      0.05s CPU      0.05s WALL (    6899 calls)
     fft_scatt_yz :      0.12s CPU      0.13s WALL (    6899 calls)

     PWSCF        :     2.45s CPU         2.63s WALL


   This run was terminated on:  23:26:55  25Mar2024            

=------------------------------------------------------------------------------=
   JOB DONE.
=------------------------------------------------------------------------------=
