
     Program PWSCF v.6.3MaX starts on 25Mar2024 at 23:14:57 

     This program is part of the open-source Quantum ESPRESSO suite
     for quantum simulation of materials; please cite
         "P. Giannozzi et al., J. Phys.:Condens. Matter 21 395502 (2009);
         "P. Giannozzi et al., J. Phys.:Condens. Matter 29 465901 (2017);
          URL http://www.quantum-espresso.org", 
     in publications or presentations arising from this work. More details at
     http://www.quantum-espresso.org/quote

     Parallel version (MPI), running on     5 processors

     MPI processes distributed on     1 nodes
     R & G space division:  proc/nbgrp/npool/nimage =       5
     Waiting for input...
     Reading input from standard input

     Current dimensions of program PWSCF are:
     Max number of different atomic species (ntypx) = 10
     Max number of k-points (npk) =  40000
     Max angular momentum in pseudopotentials (lmaxx) =  3
               file Cu.pbe-dn-rrkjus_psl.1.0.0.UPF: wavefunction(s)  3D renormalized

     Subspace diagonalization in iterative solution of the eigenvalue problem:
     a serial algorithm will be used


     Parallelization info
     --------------------
     sticks:   dense  smooth     PW     G-vecs:    dense   smooth      PW
     Min          32      32     12                  272      272      66
     Max          33      33     13                  273      273      67
     Sum         163     163     61                 1363     1363     331



     bravais-lattice index     =            2
     lattice parameter (alat)  =       6.8300  a.u.
     unit-cell volume          =      79.6530 (a.u.)^3
     number of atoms/cell      =            1
     number of atomic types    =            1
     number of electrons       =        11.00
     number of Kohn-Sham states=           10
     kinetic-energy cutoff     =      25.0000  Ry
     charge density cutoff     =     100.0000  Ry
     convergence threshold     =      1.0E-08
     mixing beta               =       0.7000
     number of iterations used =            8  plain     mixing
     Exchange-correlation      = PBE ( 1  4  3  4 0 0)

     celldm(1)=   6.830000  celldm(2)=   0.000000  celldm(3)=   0.000000
     celldm(4)=   0.000000  celldm(5)=   0.000000  celldm(6)=   0.000000

     crystal axes: (cart. coord. in units of alat)
               a(1) = (  -0.500000   0.000000   0.500000 )  
               a(2) = (   0.000000   0.500000   0.500000 )  
               a(3) = (  -0.500000   0.500000   0.000000 )  

     reciprocal axes: (cart. coord. in units 2 pi/alat)
               b(1) = ( -1.000000 -1.000000  1.000000 )  
               b(2) = (  1.000000  1.000000  1.000000 )  
               b(3) = ( -1.000000  1.000000 -1.000000 )  


     PseudoPot. # 1 for Cu read from file:
     /home/lorenzo/pseudos/Cu/Cu.pbe-dn-rrkjus_psl.1.0.0.UPF
     MD5 check sum: ba3d6c84e19846e79d48cdc68ff7152b
     Pseudo is Ultrasoft + core correction, Zval = 11.0
     Generated using "atomic" code by A. Dal Corso v.6.3
     Using radial grid of 1199 points,  6 beta functions with: 
                l(1) =   0
                l(2) =   0
                l(3) =   1
                l(4) =   1
                l(5) =   2
                l(6) =   2
     Q(r) pseudized with 0 coefficients 


     atomic species   valence    mass     pseudopotential
        Cu            11.00    63.54600     Cu( 1.00)

     48 Sym. Ops., with inversion, found



   Cartesian axes

     site n.     atom                  positions (alat units)
         1           Cu  tau(   1) = (   0.0000000   0.0000000   0.0000000  )

     number of k points=    16  gaussian smearing, width (Ry)=  0.0100
                       cart. coord. in units 2pi/alat
        k(    1) = (   0.0000000   0.0000000   0.0000000), wk =   0.0092593
        k(    2) = (  -0.1666667   0.1666667  -0.1666667), wk =   0.0740741
        k(    3) = (  -0.3333333   0.3333333  -0.3333333), wk =   0.0740741
        k(    4) = (   0.5000000  -0.5000000   0.5000000), wk =   0.0370370
        k(    5) = (   0.0000000   0.3333333   0.0000000), wk =   0.0555556
        k(    6) = (  -0.1666667   0.5000000  -0.1666667), wk =   0.2222222
        k(    7) = (   0.6666667  -0.3333333   0.6666667), wk =   0.2222222
        k(    8) = (   0.5000000  -0.1666667   0.5000000), wk =   0.2222222
        k(    9) = (   0.3333333   0.0000000   0.3333333), wk =   0.1111111
        k(   10) = (   0.0000000   0.6666667   0.0000000), wk =   0.0555556
        k(   11) = (   0.8333333  -0.1666667   0.8333333), wk =   0.2222222
        k(   12) = (   0.6666667  -0.0000000   0.6666667), wk =   0.1111111
        k(   13) = (   0.0000000  -1.0000000   0.0000000), wk =   0.0277778
        k(   14) = (   0.6666667  -0.3333333   1.0000000), wk =   0.2222222
        k(   15) = (   0.5000000  -0.1666667   0.8333333), wk =   0.2222222
        k(   16) = (  -0.3333333  -1.0000000   0.0000000), wk =   0.1111111

     Dense  grid:     1363 G-vectors     FFT dimensions: (  15,  15,  15)

     Estimated max dynamical RAM per process >       1.96 MB

     Estimated total dynamical RAM >       9.81 MB

     Check: negative/imaginary core charge=   -0.000134    0.000000

     Initial potential from superposition of free atoms

     starting charge   10.99977, renormalised to   11.00000
     Starting wfcs are    9 randomized atomic wfcs +    1 random wfcs

     total cpu time spent up to now is        0.8 secs

     Self-consistent Calculation

     iteration #  1     ecut=    25.00 Ry     beta= 0.70
     Davidson diagonalization with overlap
     ethr =  1.00E-02,  avg # of iterations =  3.8

     total cpu time spent up to now is        0.8 secs

     total energy              =    -122.52384228 Ry
     Harris-Foulkes estimate   =    -122.64939971 Ry
     estimated scf accuracy    <       0.15340980 Ry

     iteration #  2     ecut=    25.00 Ry     beta= 0.70
     Davidson diagonalization with overlap
     ethr =  1.39E-03,  avg # of iterations =  2.1

     total cpu time spent up to now is        0.9 secs

     total energy              =    -122.55562041 Ry
     Harris-Foulkes estimate   =    -122.72256586 Ry
     estimated scf accuracy    <       0.40092176 Ry

     iteration #  3     ecut=    25.00 Ry     beta= 0.70
     Davidson diagonalization with overlap
     ethr =  1.39E-03,  avg # of iterations =  2.0

     total cpu time spent up to now is        0.9 secs

     total energy              =    -122.61638170 Ry
     Harris-Foulkes estimate   =    -122.61718115 Ry
     estimated scf accuracy    <       0.00153215 Ry

     iteration #  4     ecut=    25.00 Ry     beta= 0.70
     Davidson diagonalization with overlap
     ethr =  1.39E-05,  avg # of iterations =  2.3

     total cpu time spent up to now is        1.0 secs

     total energy              =    -122.61699410 Ry
     Harris-Foulkes estimate   =    -122.61727707 Ry
     estimated scf accuracy    <       0.00086626 Ry

     iteration #  5     ecut=    25.00 Ry     beta= 0.70
     Davidson diagonalization with overlap
     ethr =  7.88E-06,  avg # of iterations =  1.0

     total cpu time spent up to now is        1.0 secs

     total energy              =    -122.61707782 Ry
     Harris-Foulkes estimate   =    -122.61708895 Ry
     estimated scf accuracy    <       0.00003199 Ry

     iteration #  6     ecut=    25.00 Ry     beta= 0.70
     Davidson diagonalization with overlap
     ethr =  2.91E-07,  avg # of iterations =  1.6

     total cpu time spent up to now is        1.1 secs

     total energy              =    -122.61708317 Ry
     Harris-Foulkes estimate   =    -122.61708315 Ry
     estimated scf accuracy    <       0.00000031 Ry

     iteration #  7     ecut=    25.00 Ry     beta= 0.70
     Davidson diagonalization with overlap
     ethr =  2.83E-09,  avg # of iterations =  2.1

     total cpu time spent up to now is        1.1 secs

     End of self-consistent calculation

          k = 0.0000 0.0000 0.0000 (   169 PWs)   bands (ev):

     3.3245   9.3085   9.3085   9.3085  10.0791  10.0791  35.6864  37.9953
    37.9953  37.9953

          k =-0.1667 0.1667-0.1667 (   171 PWs)   bands (ev):

     4.3096   9.1762   9.4425   9.4425  10.0621  10.0621  29.5614  36.0495
    36.4704  36.4704

          k =-0.3333 0.3333-0.3333 (   165 PWs)   bands (ev):

     6.6273   9.4211   9.4211   9.4898  10.4920  10.4920  21.4148  34.8168
    35.1842  35.1842

          k = 0.5000-0.5000 0.5000 (   168 PWs)   bands (ev):

     7.3741   9.3317   9.3317  10.7096  10.7096  11.6729  16.3836  34.0650
    34.7643  34.7643

          k = 0.0000 0.3333 0.0000 (   169 PWs)   bands (ev):

     4.6303   8.9611   9.6228   9.6228   9.8932  10.2074  32.6214  32.6214
    33.3498  34.8222

          k =-0.1667 0.5000-0.1667 (   161 PWs)   bands (ev):

     6.5533   8.7892   9.4532   9.8110  10.5657  10.6433  24.6502  30.6947
    31.9281  33.6682

          k = 0.6667-0.3333 0.6667 (   168 PWs)   bands (ev):

     7.7987   8.9831   9.4745   9.6709  10.7614  13.0452  17.6982  28.6324
    30.9533  33.2894

          k = 0.5000-0.1667 0.5000 (   166 PWs)   bands (ev):

     7.6912   9.1392   9.2807   9.6831  10.3891  12.1276  19.7501  27.0664
    33.6524  34.5671

          k = 0.3333 0.0000 0.3333 (   160 PWs)   bands (ev):

     5.8136   8.9852   9.4575   9.7836   9.9768  10.7012  27.2011  27.7318
    37.6396  38.3895

          k = 0.0000 0.6667 0.0000 (   170 PWs)   bands (ev):

     7.2582   8.3115  10.4276  10.4276  10.4370  10.5096  26.5147  27.7220
    27.7220  31.5075

          k = 0.8333-0.1667 0.8333 (   172 PWs)   bands (ev):

     7.8501   8.2566   9.9409  10.3168  10.7495  13.8211  21.7274  22.6514
    27.2223  32.1514

          k = 0.6667-0.0000 0.6667 (   172 PWs)   bands (ev):

     8.3539   8.5410   9.2544  10.0809  10.5042  15.8791  18.6321  21.2314
    29.4181  32.8728

          k = 0.0000-1.0000 0.0000 (   174 PWs)   bands (ev):

     7.5288   7.9712  10.8160  10.8383  10.8383  14.1836  19.8048  25.7955
    25.7955  30.8759

          k = 0.6667-0.3333 1.0000 (   163 PWs)   bands (ev):

     7.9848   8.6340   9.1394  10.2846  10.4716  12.4456  23.1177  24.0494
    27.6216  38.0052

          k = 0.5000-0.1667 0.8333 (   168 PWs)   bands (ev):

     8.5063   8.5261   9.0825  10.0474  10.7317  16.2106  17.4858  24.6160
    24.7211  37.9407

          k =-0.3333-1.0000 0.0000 (   172 PWs)   bands (ev):

     8.0420   8.4093   9.5694  10.2704  10.8620  16.7014  20.3829  21.4845
    22.7235  37.0042

     the Fermi energy is    12.4763 ev

!    total energy              =    -122.61708323 Ry
     Harris-Foulkes estimate   =    -122.61708323 Ry
     estimated scf accuracy    <          1.0E-09 Ry

     The total energy is the sum of the following terms:

     one-electron contribution =     -27.15045375 Ry
     hartree contribution      =      30.26299951 Ry
     xc contribution           =     -44.50380372 Ry
     ewald contribution        =     -81.22522862 Ry
     smearing contrib. (-TS)   =      -0.00059666 Ry

     convergence has been achieved in   7 iterations

     Forces acting on atoms (cartesian axes, Ry/au):

     atom    1 type  1   force =     0.00000000    0.00000000    0.00000000

     Total force =     0.000000     Total SCF correction =     0.000000


     Computing stress (Cartesian axis) and pressure

          total   stress  (Ry/bohr**3)                   (kbar)     P=-1399.81
  -0.00951575  -0.00000000  -0.00000000      -1399.81     -0.00     -0.00
  -0.00000000  -0.00951575   0.00000000         -0.00  -1399.81      0.00
  -0.00000000   0.00000000  -0.00951575         -0.00      0.00  -1399.81


     Writing output data file Cu.save/

     init_run     :      0.10s CPU      0.10s WALL (       1 calls)
     electrons    :      0.31s CPU      0.36s WALL (       1 calls)
     forces       :      0.01s CPU      0.01s WALL (       1 calls)
     stress       :      0.03s CPU      0.03s WALL (       1 calls)

     Called by init_run:
     wfcinit      :      0.01s CPU      0.01s WALL (       1 calls)
     potinit      :      0.00s CPU      0.00s WALL (       1 calls)
     hinit0       :      0.08s CPU      0.08s WALL (       1 calls)

     Called by electrons:
     c_bands      :      0.24s CPU      0.28s WALL (       7 calls)
     sum_band     :      0.04s CPU      0.05s WALL (       7 calls)
     v_of_rho     :      0.01s CPU      0.01s WALL (       8 calls)
     newd         :      0.02s CPU      0.02s WALL (       8 calls)
     mix_rho      :      0.00s CPU      0.00s WALL (       7 calls)

     Called by c_bands:
     init_us_2    :      0.01s CPU      0.01s WALL (     272 calls)
     cegterg      :      0.23s CPU      0.27s WALL (     112 calls)

     Called by sum_band:
     sum_band:bec :      0.00s CPU      0.00s WALL (     112 calls)
     addusdens    :      0.01s CPU      0.01s WALL (       7 calls)

     Called by *egterg:
     h_psi        :      0.15s CPU      0.18s WALL (     366 calls)
     s_psi        :      0.01s CPU      0.01s WALL (     366 calls)
     g_psi        :      0.00s CPU      0.00s WALL (     238 calls)
     cdiaghg      :      0.05s CPU      0.06s WALL (     350 calls)

     Called by h_psi:
     h_psi:pot    :      0.15s CPU      0.17s WALL (     366 calls)
     h_psi:calbec :      0.01s CPU      0.01s WALL (     366 calls)
     vloc_psi     :      0.13s CPU      0.15s WALL (     366 calls)
     add_vuspsi   :      0.01s CPU      0.01s WALL (     366 calls)

     General routines
     calbec       :      0.02s CPU      0.02s WALL (     558 calls)
     fft          :      0.01s CPU      0.01s WALL (     114 calls)
     ffts         :      0.00s CPU      0.00s WALL (       7 calls)
     fftw         :      0.14s CPU      0.16s WALL (    6800 calls)

     Parallel routines
     fft_scatt_xy :      0.02s CPU      0.02s WALL (    6921 calls)
     fft_scatt_yz :      0.06s CPU      0.07s WALL (    6921 calls)

     PWSCF        :     1.15s CPU         1.26s WALL


   This run was terminated on:  23:14:59  25Mar2024            

=------------------------------------------------------------------------------=
   JOB DONE.
=------------------------------------------------------------------------------=
