
     Program PWSCF v.6.3MaX starts on 25Mar2024 at 23:33:36 

     This program is part of the open-source Quantum ESPRESSO suite
     for quantum simulation of materials; please cite
         "P. Giannozzi et al., J. Phys.:Condens. Matter 21 395502 (2009);
         "P. Giannozzi et al., J. Phys.:Condens. Matter 29 465901 (2017);
          URL http://www.quantum-espresso.org", 
     in publications or presentations arising from this work. More details at
     http://www.quantum-espresso.org/quote

     Parallel version (MPI), running on     5 processors

     MPI processes distributed on     1 nodes
     R & G space division:  proc/nbgrp/npool/nimage =       5
     Waiting for input...
     Reading input from standard input

     Current dimensions of program PWSCF are:
     Max number of different atomic species (ntypx) = 10
     Max number of k-points (npk) =  40000
     Max angular momentum in pseudopotentials (lmaxx) =  3
               file Cu.pbesol-dn-rrkjus_psl.1.0.0.UPF: wavefunction(s)  3D renormalized

     Subspace diagonalization in iterative solution of the eigenvalue problem:
     a serial algorithm will be used


     Parallelization info
     --------------------
     sticks:   dense  smooth     PW     G-vecs:    dense   smooth      PW
     Min          87      87     30                 1245     1245     227
     Max          88      88     31                 1247     1247     228
     Sum         439     439    151                 6231     6231    1139



     bravais-lattice index     =            2
     lattice parameter (alat)  =       6.8300  a.u.
     unit-cell volume          =      79.6530 (a.u.)^3
     number of atoms/cell      =            1
     number of atomic types    =            1
     number of electrons       =        11.00
     number of Kohn-Sham states=           10
     kinetic-energy cutoff     =      70.0000  Ry
     charge density cutoff     =     280.0000  Ry
     convergence threshold     =      1.0E-08
     mixing beta               =       0.7000
     number of iterations used =            8  plain     mixing
     Exchange-correlation      = PBESOL ( 1  4 10  8 0 0)

     celldm(1)=   6.830000  celldm(2)=   0.000000  celldm(3)=   0.000000
     celldm(4)=   0.000000  celldm(5)=   0.000000  celldm(6)=   0.000000

     crystal axes: (cart. coord. in units of alat)
               a(1) = (  -0.500000   0.000000   0.500000 )  
               a(2) = (   0.000000   0.500000   0.500000 )  
               a(3) = (  -0.500000   0.500000   0.000000 )  

     reciprocal axes: (cart. coord. in units 2 pi/alat)
               b(1) = ( -1.000000 -1.000000  1.000000 )  
               b(2) = (  1.000000  1.000000  1.000000 )  
               b(3) = ( -1.000000  1.000000 -1.000000 )  


     PseudoPot. # 1 for Cu read from file:
     /home/lorenzo/pseudos/Cu/Cu.pbesol-dn-rrkjus_psl.1.0.0.UPF
     MD5 check sum: bfa4c7aafbc42e028d5f4ccf7ceed93d
     Pseudo is Ultrasoft + core correction, Zval = 11.0
     Generated using "atomic" code by A. Dal Corso v.6.3
     Using radial grid of 1199 points,  6 beta functions with: 
                l(1) =   0
                l(2) =   0
                l(3) =   1
                l(4) =   1
                l(5) =   2
                l(6) =   2
     Q(r) pseudized with 0 coefficients 


     atomic species   valence    mass     pseudopotential
        Cu            11.00    63.54600     Cu( 1.00)

     48 Sym. Ops., with inversion, found



   Cartesian axes

     site n.     atom                  positions (alat units)
         1           Cu  tau(   1) = (   0.0000000   0.0000000   0.0000000  )

     number of k points=     8  gaussian smearing, width (Ry)=  0.0100
                       cart. coord. in units 2pi/alat
        k(    1) = (   0.0000000   0.0000000   0.0000000), wk =   0.0312500
        k(    2) = (  -0.2500000   0.2500000  -0.2500000), wk =   0.2500000
        k(    3) = (   0.5000000  -0.5000000   0.5000000), wk =   0.1250000
        k(    4) = (   0.0000000   0.5000000   0.0000000), wk =   0.1875000
        k(    5) = (   0.7500000  -0.2500000   0.7500000), wk =   0.7500000
        k(    6) = (   0.5000000   0.0000000   0.5000000), wk =   0.3750000
        k(    7) = (   0.0000000  -1.0000000   0.0000000), wk =   0.0937500
        k(    8) = (  -0.5000000  -1.0000000   0.0000000), wk =   0.1875000

     Dense  grid:     6231 G-vectors     FFT dimensions: (  25,  25,  25)

     Estimated max dynamical RAM per process >       6.27 MB

     Estimated total dynamical RAM >      31.34 MB

     Initial potential from superposition of free atoms

     starting charge   10.99979, renormalised to   11.00000
     Starting wfcs are    9 randomized atomic wfcs +    1 random wfcs

     total cpu time spent up to now is        0.9 secs

     Self-consistent Calculation

     iteration #  1     ecut=    70.00 Ry     beta= 0.70
     Davidson diagonalization with overlap
     ethr =  1.00E-02,  avg # of iterations =  3.5

     Threshold (ethr) on eigenvalues was too large:
     Diagonalizing with lowered threshold

     Davidson diagonalization with overlap
     ethr =  6.69E-04,  avg # of iterations =  1.0

     total cpu time spent up to now is        1.1 secs

     total energy              =    -122.35446534 Ry
     Harris-Foulkes estimate   =    -122.41289985 Ry
     estimated scf accuracy    <       0.07354292 Ry

     iteration #  2     ecut=    70.00 Ry     beta= 0.70
     Davidson diagonalization with overlap
     ethr =  6.69E-04,  avg # of iterations =  2.2

     total cpu time spent up to now is        1.1 secs

     total energy              =    -122.35716861 Ry
     Harris-Foulkes estimate   =    -122.45642400 Ry
     estimated scf accuracy    <       0.25427752 Ry

     iteration #  3     ecut=    70.00 Ry     beta= 0.70
     Davidson diagonalization with overlap
     ethr =  6.69E-04,  avg # of iterations =  2.2

     total cpu time spent up to now is        1.2 secs

     total energy              =    -122.39794618 Ry
     Harris-Foulkes estimate   =    -122.39797280 Ry
     estimated scf accuracy    <       0.00007337 Ry

     iteration #  4     ecut=    70.00 Ry     beta= 0.70
     Davidson diagonalization with overlap
     ethr =  6.67E-07,  avg # of iterations =  2.4

     total cpu time spent up to now is        1.3 secs

     total energy              =    -122.39801621 Ry
     Harris-Foulkes estimate   =    -122.39801985 Ry
     estimated scf accuracy    <       0.00001107 Ry

     iteration #  5     ecut=    70.00 Ry     beta= 0.70
     Davidson diagonalization with overlap
     ethr =  1.01E-07,  avg # of iterations =  1.2

     total cpu time spent up to now is        1.4 secs

     total energy              =    -122.39801815 Ry
     Harris-Foulkes estimate   =    -122.39801828 Ry
     estimated scf accuracy    <       0.00000038 Ry

     iteration #  6     ecut=    70.00 Ry     beta= 0.70
     Davidson diagonalization with overlap
     ethr =  3.48E-09,  avg # of iterations =  1.5

     total cpu time spent up to now is        1.4 secs

     End of self-consistent calculation

          k = 0.0000 0.0000 0.0000 (   749 PWs)   bands (ev):

     3.0474   9.4649   9.4649   9.4649  10.2994  10.2994  35.3848  37.7532
    37.7532  37.7532

          k =-0.2500 0.2500-0.2500 (   797 PWs)   bands (ev):

     5.1709   9.2027   9.6230   9.6230  10.3836  10.3836  24.8927  35.1715
    35.2309  35.2309

          k = 0.5000-0.5000 0.5000 (   778 PWs)   bands (ev):

     7.3707   9.4312   9.4312  10.8759  10.8759  11.4092  16.2118  33.7972
    34.5033  34.5033

          k = 0.0000 0.5000 0.0000 (   817 PWs)   bands (ev):

     5.8150   8.7381   9.8277  10.1345  10.1345  10.5751  29.5276  29.5276
    30.8398  31.4863

          k = 0.7500-0.2500 0.7500 (   788 PWs)   bands (ev):

     8.0250   8.6085   9.4761  10.1116  10.9169  13.3986  19.1513  25.0143
    28.5288  32.0977

          k = 0.5000 0.0000 0.5000 (   792 PWs)   bands (ev):

     7.7294   8.9496   9.1611   9.9694  10.2988  12.1765  22.1494  23.3542
    32.9013  34.2321

          k = 0.0000-1.0000 0.0000 (   790 PWs)   bands (ev):

     7.5829   8.0512  10.8572  11.0209  11.0209  13.9066  19.5655  25.5231
    25.5231  30.0387

          k =-0.5000-1.0000 0.0000 (   772 PWs)   bands (ev):

     8.3317   8.9434   8.9434  10.2561  11.0217  18.6397  18.6397  20.7697
    21.2251  40.8412

     the Fermi energy is    13.2320 ev

!    total energy              =    -122.39801821 Ry
     Harris-Foulkes estimate   =    -122.39801821 Ry
     estimated scf accuracy    <          2.3E-09 Ry

     The total energy is the sum of the following terms:

     one-electron contribution =     -27.57421982 Ry
     hartree contribution      =      30.51061520 Ry
     xc contribution           =     -44.10871264 Ry
     ewald contribution        =     -81.22522855 Ry
     smearing contrib. (-TS)   =      -0.00047239 Ry

     convergence has been achieved in   6 iterations

     Forces acting on atoms (cartesian axes, Ry/au):

     atom    1 type  1   force =     0.00000000    0.00000000    0.00000000

     Total force =     0.000000     Total SCF correction =     0.000000


     Computing stress (Cartesian axis) and pressure

          total   stress  (Ry/bohr**3)                   (kbar)     P=  -38.67
  -0.00026286   0.00000000   0.00000000        -38.67      0.00      0.00
   0.00000000  -0.00026286  -0.00000000          0.00    -38.67     -0.00
   0.00000000  -0.00000000  -0.00026286          0.00     -0.00    -38.67


     Writing output data file Cu.save/

     init_run     :      0.18s CPU      0.19s WALL (       1 calls)
     electrons    :      0.53s CPU      0.56s WALL (       1 calls)
     forces       :      0.02s CPU      0.02s WALL (       1 calls)
     stress       :      0.07s CPU      0.07s WALL (       1 calls)

     Called by init_run:
     wfcinit      :      0.01s CPU      0.02s WALL (       1 calls)
     potinit      :      0.01s CPU      0.01s WALL (       1 calls)
     hinit0       :      0.15s CPU      0.15s WALL (       1 calls)

     Called by electrons:
     c_bands      :      0.35s CPU      0.38s WALL (       7 calls)
     sum_band     :      0.12s CPU      0.12s WALL (       7 calls)
     v_of_rho     :      0.02s CPU      0.02s WALL (       7 calls)
     newd         :      0.04s CPU      0.04s WALL (       7 calls)
     mix_rho      :      0.00s CPU      0.00s WALL (       7 calls)

     Called by c_bands:
     init_us_2    :      0.01s CPU      0.02s WALL (     136 calls)
     cegterg      :      0.33s CPU      0.36s WALL (      56 calls)

     Called by sum_band:
     sum_band:bec :      0.00s CPU      0.00s WALL (      56 calls)
     addusdens    :      0.04s CPU      0.04s WALL (       7 calls)

     Called by *egterg:
     h_psi        :      0.26s CPU      0.29s WALL (     177 calls)
     s_psi        :      0.01s CPU      0.01s WALL (     177 calls)
     g_psi        :      0.00s CPU      0.00s WALL (     113 calls)
     cdiaghg      :      0.03s CPU      0.03s WALL (     161 calls)

     Called by h_psi:
     h_psi:pot    :      0.26s CPU      0.28s WALL (     177 calls)
     h_psi:calbec :      0.01s CPU      0.02s WALL (     177 calls)
     vloc_psi     :      0.23s CPU      0.26s WALL (     177 calls)
     add_vuspsi   :      0.01s CPU      0.01s WALL (     177 calls)

     General routines
     calbec       :      0.02s CPU      0.02s WALL (     273 calls)
     fft          :      0.02s CPU      0.02s WALL (     104 calls)
     ffts         :      0.00s CPU      0.00s WALL (       7 calls)
     fftw         :      0.27s CPU      0.29s WALL (    3428 calls)

     Parallel routines
     fft_scatt_xy :      0.02s CPU      0.03s WALL (    3539 calls)
     fft_scatt_yz :      0.07s CPU      0.08s WALL (    3539 calls)

     PWSCF        :     1.50s CPU         1.59s WALL


   This run was terminated on:  23:33:37  25Mar2024            

=------------------------------------------------------------------------------=
   JOB DONE.
=------------------------------------------------------------------------------=
