
     Program PWSCF v.6.3MaX starts on 25Mar2024 at 23:39:59 

     This program is part of the open-source Quantum ESPRESSO suite
     for quantum simulation of materials; please cite
         "P. Giannozzi et al., J. Phys.:Condens. Matter 21 395502 (2009);
         "P. Giannozzi et al., J. Phys.:Condens. Matter 29 465901 (2017);
          URL http://www.quantum-espresso.org", 
     in publications or presentations arising from this work. More details at
     http://www.quantum-espresso.org/quote

     Parallel version (MPI), running on     5 processors

     MPI processes distributed on     1 nodes
     R & G space division:  proc/nbgrp/npool/nimage =       5
     Waiting for input...
     Reading input from standard input

     Current dimensions of program PWSCF are:
     Max number of different atomic species (ntypx) = 10
     Max number of k-points (npk) =  40000
     Max angular momentum in pseudopotentials (lmaxx) =  3
               file Cu.pbesol-dn-rrkjus_psl.1.0.0.UPF: wavefunction(s)  3D renormalized

     Subspace diagonalization in iterative solution of the eigenvalue problem:
     a serial algorithm will be used


     Parallelization info
     --------------------
     sticks:   dense  smooth     PW     G-vecs:    dense   smooth      PW
     Min         102     102     32                 1545     1545     280
     Max         103     103     33                 1546     1546     283
     Sum         511     511    163                 7727     7727    1411



     bravais-lattice index     =            2
     lattice parameter (alat)  =       6.8300  a.u.
     unit-cell volume          =      79.6530 (a.u.)^3
     number of atoms/cell      =            1
     number of atomic types    =            1
     number of electrons       =        11.00
     number of Kohn-Sham states=           10
     kinetic-energy cutoff     =      80.0000  Ry
     charge density cutoff     =     320.0000  Ry
     convergence threshold     =      1.0E-08
     mixing beta               =       0.7000
     number of iterations used =            8  plain     mixing
     Exchange-correlation      = PBESOL ( 1  4 10  8 0 0)

     celldm(1)=   6.830000  celldm(2)=   0.000000  celldm(3)=   0.000000
     celldm(4)=   0.000000  celldm(5)=   0.000000  celldm(6)=   0.000000

     crystal axes: (cart. coord. in units of alat)
               a(1) = (  -0.500000   0.000000   0.500000 )  
               a(2) = (   0.000000   0.500000   0.500000 )  
               a(3) = (  -0.500000   0.500000   0.000000 )  

     reciprocal axes: (cart. coord. in units 2 pi/alat)
               b(1) = ( -1.000000 -1.000000  1.000000 )  
               b(2) = (  1.000000  1.000000  1.000000 )  
               b(3) = ( -1.000000  1.000000 -1.000000 )  


     PseudoPot. # 1 for Cu read from file:
     /home/lorenzo/pseudos/Cu/Cu.pbesol-dn-rrkjus_psl.1.0.0.UPF
     MD5 check sum: bfa4c7aafbc42e028d5f4ccf7ceed93d
     Pseudo is Ultrasoft + core correction, Zval = 11.0
     Generated using "atomic" code by A. Dal Corso v.6.3
     Using radial grid of 1199 points,  6 beta functions with: 
                l(1) =   0
                l(2) =   0
                l(3) =   1
                l(4) =   1
                l(5) =   2
                l(6) =   2
     Q(r) pseudized with 0 coefficients 


     atomic species   valence    mass     pseudopotential
        Cu            11.00    63.54600     Cu( 1.00)

     48 Sym. Ops., with inversion, found



   Cartesian axes

     site n.     atom                  positions (alat units)
         1           Cu  tau(   1) = (   0.0000000   0.0000000   0.0000000  )

     number of k points=    35  gaussian smearing, width (Ry)=  0.0100
                       cart. coord. in units 2pi/alat
        k(    1) = (   0.0000000   0.0000000   0.0000000), wk =   0.0027435
        k(    2) = (  -0.1111111   0.1111111  -0.1111111), wk =   0.0219479
        k(    3) = (  -0.2222222   0.2222222  -0.2222222), wk =   0.0219479
        k(    4) = (  -0.3333333   0.3333333  -0.3333333), wk =   0.0219479
        k(    5) = (  -0.4444444   0.4444444  -0.4444444), wk =   0.0219479
        k(    6) = (   0.0000000   0.2222222   0.0000000), wk =   0.0164609
        k(    7) = (  -0.1111111   0.3333333  -0.1111111), wk =   0.0658436
        k(    8) = (  -0.2222222   0.4444444  -0.2222222), wk =   0.0658436
        k(    9) = (  -0.3333333   0.5555556  -0.3333333), wk =   0.0658436
        k(   10) = (   0.5555556  -0.3333333   0.5555556), wk =   0.0658436
        k(   11) = (   0.4444444  -0.2222222   0.4444444), wk =   0.0658436
        k(   12) = (   0.3333333  -0.1111111   0.3333333), wk =   0.0658436
        k(   13) = (   0.2222222  -0.0000000   0.2222222), wk =   0.0329218
        k(   14) = (   0.0000000   0.4444444   0.0000000), wk =   0.0164609
        k(   15) = (  -0.1111111   0.5555556  -0.1111111), wk =   0.0658436
        k(   16) = (  -0.2222222   0.6666667  -0.2222222), wk =   0.0658436
        k(   17) = (   0.6666667  -0.2222222   0.6666667), wk =   0.0658436
        k(   18) = (   0.5555556  -0.1111111   0.5555556), wk =   0.0658436
        k(   19) = (   0.4444444   0.0000000   0.4444444), wk =   0.0329218
        k(   20) = (   0.0000000   0.6666667   0.0000000), wk =   0.0164609
        k(   21) = (  -0.1111111   0.7777778  -0.1111111), wk =   0.0658436
        k(   22) = (   0.7777778  -0.1111111   0.7777778), wk =   0.0658436
        k(   23) = (   0.6666667  -0.0000000   0.6666667), wk =   0.0329218
        k(   24) = (   0.0000000   0.8888889   0.0000000), wk =   0.0164609
        k(   25) = (   0.8888889   0.0000000   0.8888889), wk =   0.0329218
        k(   26) = (  -0.2222222   0.4444444   0.0000000), wk =   0.0658436
        k(   27) = (  -0.3333333   0.5555556  -0.1111111), wk =   0.1316872
        k(   28) = (   0.5555556  -0.3333333   0.7777778), wk =   0.1316872
        k(   29) = (  -0.2222222   0.6666667   0.0000000), wk =   0.0658436
        k(   30) = (   0.6666667  -0.2222222   0.8888889), wk =   0.1316872
        k(   31) = (   0.5555556  -0.1111111   0.7777778), wk =   0.1316872
        k(   32) = (   0.4444444   0.0000000   0.6666667), wk =   0.0658436
        k(   33) = (   0.7777778  -0.1111111   1.0000000), wk =   0.0658436
        k(   34) = (   0.6666667  -0.0000000   0.8888889), wk =   0.0658436
        k(   35) = (   0.5555556  -0.1111111   1.0000000), wk =   0.0658436

     Dense  grid:     7727 G-vectors     FFT dimensions: (  27,  27,  27)

     Estimated max dynamical RAM per process >       8.35 MB

     Estimated total dynamical RAM >      41.76 MB

     Initial potential from superposition of free atoms

     starting charge   10.99979, renormalised to   11.00000
     Starting wfcs are    9 randomized atomic wfcs +    1 random wfcs

     total cpu time spent up to now is        1.3 secs

     Self-consistent Calculation

     iteration #  1     ecut=    80.00 Ry     beta= 0.70
     Davidson diagonalization with overlap
     ethr =  1.00E-02,  avg # of iterations =  3.7

     Threshold (ethr) on eigenvalues was too large:
     Diagonalizing with lowered threshold

     Davidson diagonalization with overlap
     ethr =  6.72E-04,  avg # of iterations =  1.0

     total cpu time spent up to now is        2.0 secs

     total energy              =    -122.36708118 Ry
     Harris-Foulkes estimate   =    -122.42557096 Ry
     estimated scf accuracy    <       0.07357047 Ry

     iteration #  2     ecut=    80.00 Ry     beta= 0.70
     Davidson diagonalization with overlap
     ethr =  6.69E-04,  avg # of iterations =  2.0

     total cpu time spent up to now is        2.4 secs

     total energy              =    -122.36945332 Ry
     Harris-Foulkes estimate   =    -122.47178724 Ry
     estimated scf accuracy    <       0.26523927 Ry

     iteration #  3     ecut=    80.00 Ry     beta= 0.70
     Davidson diagonalization with overlap
     ethr =  6.69E-04,  avg # of iterations =  2.1

     total cpu time spent up to now is        2.8 secs

     total energy              =    -122.41101278 Ry
     Harris-Foulkes estimate   =    -122.41106323 Ry
     estimated scf accuracy    <       0.00012963 Ry

     iteration #  4     ecut=    80.00 Ry     beta= 0.70
     Davidson diagonalization with overlap
     ethr =  1.18E-06,  avg # of iterations =  2.6

     total cpu time spent up to now is        3.1 secs

     total energy              =    -122.41108351 Ry
     Harris-Foulkes estimate   =    -122.41108821 Ry
     estimated scf accuracy    <       0.00001412 Ry

     iteration #  5     ecut=    80.00 Ry     beta= 0.70
     Davidson diagonalization with overlap
     ethr =  1.28E-07,  avg # of iterations =  1.1

     total cpu time spent up to now is        3.4 secs

     total energy              =    -122.41108603 Ry
     Harris-Foulkes estimate   =    -122.41108611 Ry
     estimated scf accuracy    <       0.00000021 Ry

     iteration #  6     ecut=    80.00 Ry     beta= 0.70
     Davidson diagonalization with overlap
     ethr =  1.92E-09,  avg # of iterations =  2.3

     total cpu time spent up to now is        3.7 secs

     End of self-consistent calculation

          k = 0.0000 0.0000 0.0000 (   941 PWs)   bands (ev):

     3.0506   9.4949   9.4949   9.4949  10.3290  10.3290  35.3894  37.7553
    37.7553  37.7553

          k =-0.1111 0.1111-0.1111 (   950 PWs)   bands (ev):

     3.4967   9.4039   9.5732   9.5732  10.3027  10.3027  32.0307  35.9787
    36.6562  36.6562

          k =-0.2222 0.2222-0.2222 (   953 PWs)   bands (ev):

     4.7623   9.2424   9.6609   9.6609  10.3596  10.3596  26.2719  35.3822
    35.4578  35.4578

          k =-0.3333 0.3333-0.3333 (   956 PWs)   bands (ev):

     6.4349   9.4595   9.5753   9.5753  10.6338  10.6338  21.0625  34.5024
    34.7710  34.7710

          k =-0.4444 0.4444-0.4444 (   969 PWs)   bands (ev):

     7.3178   9.4746   9.4746  10.8728  10.8728  10.9073  17.0220  33.8808
    34.5306  34.5306

          k = 0.0000 0.2222 0.0000 (   945 PWs)   bands (ev):

     3.6443   9.3207   9.6375   9.6375  10.1743  10.3931  33.7648  34.2195
    34.2195  35.8938

          k =-0.1111 0.3333-0.1111 (   959 PWs)   bands (ev):

     4.6365   9.1318   9.7254   9.7755  10.1489  10.4797  28.4538  32.5310
    33.7027  36.7288

          k =-0.2222 0.4444-0.2222 (   966 PWs)   bands (ev):

     6.2218   9.0630   9.5435   9.7596  10.6176  10.7034  23.0145  31.6589
    32.8319  34.4414

          k =-0.3333 0.5556-0.3333 (   958 PWs)   bands (ev):

     7.4208   9.3204   9.6386   9.6503  10.9013  11.6615  18.4003  31.2983
    31.6955  33.4236

          k = 0.5556-0.3333 0.5556 (   962 PWs)   bands (ev):

     7.6234   9.3066   9.5960  10.0082  10.8614  12.6749  16.4495  29.9010
    32.7303  33.6806

          k = 0.4444-0.2222 0.4444 (   955 PWs)   bands (ev):

     7.1640   9.4186   9.4336   9.6544  10.5705  11.4120  19.8203  29.2976
    34.7631  34.7929

          k = 0.3333-0.1111 0.3333 (   956 PWs)   bands (ev):

     5.6684   9.1038   9.6043   9.7816  10.2024  10.7759  24.7693  29.5260
    36.6944  37.6831

          k = 0.2222-0.0000 0.2222 (   951 PWs)   bands (ev):

     4.2189   9.2519   9.6638   9.6991  10.1537  10.4394  30.0919  30.8345
    37.7441  39.3850

          k = 0.0000 0.4444 0.0000 (   966 PWs)   bands (ev):

     5.3010   8.8900   9.8769  10.0365  10.0365  10.5568  30.3719  30.3719
    31.8611  32.2860

          k =-0.1111 0.5556-0.1111 (   965 PWs)   bands (ev):

     6.5542   8.6905   9.6407  10.1556  10.6563  10.7370  25.5997  29.1076
    29.5524  32.3563

          k =-0.2222 0.6667-0.2222 (   968 PWs)   bands (ev):

     7.7248   8.6964   9.4495  10.0716  10.9305  12.1219  20.6664  27.0477
    28.8730  32.2548

          k = 0.6667-0.2222 0.6667 (   965 PWs)   bands (ev):

     8.1381   8.8356   9.4675   9.9703  10.8780  14.5014  16.9090  25.2348
    29.7440  32.5609

          k = 0.5556-0.1111 0.5556 (   965 PWs)   bands (ev):

     8.0737   9.0336   9.2139   9.9405  10.5705  13.0991  19.2343  24.2617
    31.6525  33.4949

          k = 0.4444 0.0000 0.4444 (   961 PWs)   bands (ev):

     7.0907   8.9643   9.3569   9.9776  10.1927  11.5652  23.5865  24.5310
    34.4085  35.1295

          k = 0.0000 0.6667 0.0000 (   962 PWs)   bands (ev):

     7.1561   8.4174  10.3939  10.5744  10.5744  10.7457  26.1146  27.4112
    27.4112  30.6680

          k =-0.1111 0.7778-0.1111 (   977 PWs)   bands (ev):

     7.6774   8.3078  10.2247  10.5800  10.9455  12.3457  23.3493  23.6820
    26.7912  31.3366

          k = 0.7778-0.1111 0.7778 (   959 PWs)   bands (ev):

     8.0915   8.4029   9.8247  10.4502  10.9279  15.1974  19.3261  21.4689
    27.3750  31.6906

          k = 0.6667-0.0000 0.6667 (   961 PWs)   bands (ev):

     8.4452   8.6091   9.3513  10.2560  10.7076  15.7084  18.3772  20.9420
    29.0765  32.3503

          k = 0.0000 0.8889 0.0000 (   974 PWs)   bands (ev):

     7.5960   8.1184  10.8705  10.9914  10.9914  13.0704  20.7191  25.7473
    25.7473  30.1170

          k = 0.8889 0.0000 0.8889 (   964 PWs)   bands (ev):

     7.7407   8.1599  10.6145  10.7858  11.0138  14.6583  19.6869  22.9237
    25.9556  31.0445

          k =-0.2222 0.4444 0.0000 (   961 PWs)   bands (ev):

     5.8048   8.9308   9.5842  10.0477  10.1527  10.7927  26.9055  27.5406
    33.3370  36.1804

          k =-0.3333 0.5556-0.1111 (   963 PWs)   bands (ev):

     7.2830   8.8980   9.3190   9.9945  10.5384  11.5810  21.9702  26.7824
    30.5912  36.2408

          k = 0.5556-0.3333 0.7778 (   964 PWs)   bands (ev):

     7.9833   9.0071   9.4196   9.8807  10.8242  13.3629  17.6672  27.1571
    28.5133  35.7993

          k =-0.2222 0.6667 0.0000 (   963 PWs)   bands (ev):

     7.5297   8.5379   9.5525  10.5483  10.5719  11.7094  24.4818  25.1369
    26.6383  34.4138

          k = 0.6667-0.2222 0.8889 (   964 PWs)   bands (ev):

     8.1724   8.5831   9.3750  10.3503  10.8710  13.8645  20.1157  24.2610
    25.0405  35.1972

          k = 0.5556-0.1111 0.7778 (   964 PWs)   bands (ev):

     8.5250   8.6058   9.2205  10.1962  10.8392  15.9149  17.5061  22.7455
    26.0996  35.8989

          k = 0.4444 0.0000 0.6667 (   955 PWs)   bands (ev):

     8.2825   8.8858   8.9486  10.2073  10.5870  13.2684  21.0824  22.5328
    28.0028  37.1999

          k = 0.7778-0.1111 1.0000 (   969 PWs)   bands (ev):

     7.8725   8.2834  10.1299  10.6951  10.9907  14.3236  21.0613  23.0920
    23.8602  33.5442

          k = 0.6667-0.0000 0.8889 (   971 PWs)   bands (ev):

     8.1775   8.4731   9.6485  10.4543  10.9879  16.7134  19.3461  20.2775
    24.3960  34.8421

          k = 0.5556-0.1111 1.0000 (   963 PWs)   bands (ev):

     8.3662   8.7925   9.1092  10.3166  10.9887  16.5750  19.6430  21.5191
    22.2827  39.3379

     the Fermi energy is    12.5418 ev

!    total energy              =    -122.41108611 Ry
     Harris-Foulkes estimate   =    -122.41108611 Ry
     estimated scf accuracy    <          1.9E-10 Ry

     The total energy is the sum of the following terms:

     one-electron contribution =     -27.60552081 Ry
     hartree contribution      =      30.53162225 Ry
     xc contribution           =     -44.11186441 Ry
     ewald contribution        =     -81.22522855 Ry
     smearing contrib. (-TS)   =      -0.00009460 Ry

     convergence has been achieved in   6 iterations

     Forces acting on atoms (cartesian axes, Ry/au):

     atom    1 type  1   force =     0.00000000    0.00000000    0.00000000

     Total force =     0.000000     Total SCF correction =     0.000000


     Computing stress (Cartesian axis) and pressure

          total   stress  (Ry/bohr**3)                   (kbar)     P=  -56.96
  -0.00038718   0.00000000  -0.00000000        -56.96      0.00     -0.00
   0.00000000  -0.00038718   0.00000000          0.00    -56.96      0.00
  -0.00000000   0.00000000  -0.00038718         -0.00      0.00    -56.96


     Writing output data file Cu.save/

     init_run     :      0.28s CPU      0.29s WALL (       1 calls)
     electrons    :      2.35s CPU      2.45s WALL (       1 calls)
     forces       :      0.05s CPU      0.05s WALL (       1 calls)
     stress       :      0.15s CPU      0.15s WALL (       1 calls)

     Called by init_run:
     wfcinit      :      0.09s CPU      0.10s WALL (       1 calls)
     potinit      :      0.01s CPU      0.01s WALL (       1 calls)
     hinit0       :      0.16s CPU      0.17s WALL (       1 calls)

     Called by electrons:
     c_bands      :      1.85s CPU      1.93s WALL (       7 calls)
     sum_band     :      0.42s CPU      0.44s WALL (       7 calls)
     v_of_rho     :      0.03s CPU      0.03s WALL (       7 calls)
     newd         :      0.05s CPU      0.05s WALL (       7 calls)
     mix_rho      :      0.00s CPU      0.00s WALL (       7 calls)

     Called by c_bands:
     init_us_2    :      0.08s CPU      0.08s WALL (     595 calls)
     cegterg      :      1.75s CPU      1.83s WALL (     245 calls)

     Called by sum_band:
     sum_band:bec :      0.00s CPU      0.00s WALL (     245 calls)
     addusdens    :      0.05s CPU      0.05s WALL (       7 calls)

     Called by *egterg:
     h_psi        :      1.42s CPU      1.49s WALL (     800 calls)
     s_psi        :      0.05s CPU      0.05s WALL (     800 calls)
     g_psi        :      0.00s CPU      0.00s WALL (     520 calls)
     cdiaghg      :      0.15s CPU      0.15s WALL (     730 calls)

     Called by h_psi:
     h_psi:pot    :      1.41s CPU      1.48s WALL (     800 calls)
     h_psi:calbec :      0.07s CPU      0.07s WALL (     800 calls)
     vloc_psi     :      1.29s CPU      1.35s WALL (     800 calls)
     add_vuspsi   :      0.05s CPU      0.05s WALL (     800 calls)

     General routines
     calbec       :      0.11s CPU      0.11s WALL (    1220 calls)
     fft          :      0.02s CPU      0.02s WALL (     104 calls)
     ffts         :      0.00s CPU      0.00s WALL (       7 calls)
     fftw         :      1.48s CPU      1.55s WALL (   14934 calls)

     Parallel routines
     fft_scatt_xy :      0.13s CPU      0.14s WALL (   15045 calls)
     fft_scatt_yz :      0.34s CPU      0.36s WALL (   15045 calls)

     PWSCF        :     3.85s CPU         4.02s WALL


   This run was terminated on:  23:40: 3  25Mar2024            

=------------------------------------------------------------------------------=
   JOB DONE.
=------------------------------------------------------------------------------=
