
     Program PWSCF v.6.3MaX starts on 25Mar2024 at 23:31: 2 

     This program is part of the open-source Quantum ESPRESSO suite
     for quantum simulation of materials; please cite
         "P. Giannozzi et al., J. Phys.:Condens. Matter 21 395502 (2009);
         "P. Giannozzi et al., J. Phys.:Condens. Matter 29 465901 (2017);
          URL http://www.quantum-espresso.org", 
     in publications or presentations arising from this work. More details at
     http://www.quantum-espresso.org/quote

     Parallel version (MPI), running on     5 processors

     MPI processes distributed on     1 nodes
     R & G space division:  proc/nbgrp/npool/nimage =       5
     Waiting for input...
     Reading input from standard input

     Current dimensions of program PWSCF are:
     Max number of different atomic species (ntypx) = 10
     Max number of k-points (npk) =  40000
     Max angular momentum in pseudopotentials (lmaxx) =  3
               file Cu.pbesol-dn-rrkjus_psl.1.0.0.UPF: wavefunction(s)  3D renormalized

     Subspace diagonalization in iterative solution of the eigenvalue problem:
     a serial algorithm will be used


     Parallelization info
     --------------------
     sticks:   dense  smooth     PW     G-vecs:    dense   smooth      PW
     Min          84      84     24                 1134     1134     187
     Max          85      85     25                 1137     1137     191
     Sum         421     421    121                 5673     5673     941



     bravais-lattice index     =            2
     lattice parameter (alat)  =       6.8300  a.u.
     unit-cell volume          =      79.6530 (a.u.)^3
     number of atoms/cell      =            1
     number of atomic types    =            1
     number of electrons       =        11.00
     number of Kohn-Sham states=           10
     kinetic-energy cutoff     =      65.0000  Ry
     charge density cutoff     =     260.0000  Ry
     convergence threshold     =      1.0E-08
     mixing beta               =       0.7000
     number of iterations used =            8  plain     mixing
     Exchange-correlation      = PBESOL ( 1  4 10  8 0 0)

     celldm(1)=   6.830000  celldm(2)=   0.000000  celldm(3)=   0.000000
     celldm(4)=   0.000000  celldm(5)=   0.000000  celldm(6)=   0.000000

     crystal axes: (cart. coord. in units of alat)
               a(1) = (  -0.500000   0.000000   0.500000 )  
               a(2) = (   0.000000   0.500000   0.500000 )  
               a(3) = (  -0.500000   0.500000   0.000000 )  

     reciprocal axes: (cart. coord. in units 2 pi/alat)
               b(1) = ( -1.000000 -1.000000  1.000000 )  
               b(2) = (  1.000000  1.000000  1.000000 )  
               b(3) = ( -1.000000  1.000000 -1.000000 )  


     PseudoPot. # 1 for Cu read from file:
     /home/lorenzo/pseudos/Cu/Cu.pbesol-dn-rrkjus_psl.1.0.0.UPF
     MD5 check sum: bfa4c7aafbc42e028d5f4ccf7ceed93d
     Pseudo is Ultrasoft + core correction, Zval = 11.0
     Generated using "atomic" code by A. Dal Corso v.6.3
     Using radial grid of 1199 points,  6 beta functions with: 
                l(1) =   0
                l(2) =   0
                l(3) =   1
                l(4) =   1
                l(5) =   2
                l(6) =   2
     Q(r) pseudized with 0 coefficients 


     atomic species   valence    mass     pseudopotential
        Cu            11.00    63.54600     Cu( 1.00)

     48 Sym. Ops., with inversion, found



   Cartesian axes

     site n.     atom                  positions (alat units)
         1           Cu  tau(   1) = (   0.0000000   0.0000000   0.0000000  )

     number of k points=     4  gaussian smearing, width (Ry)=  0.0100
                       cart. coord. in units 2pi/alat
        k(    1) = (   0.0000000   0.0000000   0.0000000), wk =   0.0740741
        k(    2) = (  -0.3333333   0.3333333  -0.3333333), wk =   0.5925926
        k(    3) = (   0.0000000   0.6666667   0.0000000), wk =   0.4444444
        k(    4) = (   0.6666667  -0.0000000   0.6666667), wk =   0.8888889

     Dense  grid:     5673 G-vectors     FFT dimensions: (  25,  25,  25)

     Estimated max dynamical RAM per process >       5.73 MB

     Estimated total dynamical RAM >      28.64 MB

     Initial potential from superposition of free atoms

     starting charge   10.99979, renormalised to   11.00000
     Starting wfcs are    9 randomized atomic wfcs +    1 random wfcs

     total cpu time spent up to now is        0.9 secs

     Self-consistent Calculation

     iteration #  1     ecut=    65.00 Ry     beta= 0.70
     Davidson diagonalization with overlap
     ethr =  1.00E-02,  avg # of iterations =  4.5

     Threshold (ethr) on eigenvalues was too large:
     Diagonalizing with lowered threshold

     Davidson diagonalization with overlap
     ethr =  6.80E-04,  avg # of iterations =  1.0

     total cpu time spent up to now is        1.0 secs

     total energy              =    -122.39206447 Ry
     Harris-Foulkes estimate   =    -122.45147602 Ry
     estimated scf accuracy    <       0.07471892 Ry

     iteration #  2     ecut=    65.00 Ry     beta= 0.70
     Davidson diagonalization with overlap
     ethr =  6.79E-04,  avg # of iterations =  2.0

     total cpu time spent up to now is        1.0 secs

     total energy              =    -122.39168612 Ry
     Harris-Foulkes estimate   =    -122.49612091 Ry
     estimated scf accuracy    <       0.27120575 Ry

     iteration #  3     ecut=    65.00 Ry     beta= 0.70
     Davidson diagonalization with overlap
     ethr =  6.79E-04,  avg # of iterations =  2.0

     total cpu time spent up to now is        1.1 secs

     total energy              =    -122.43559274 Ry
     Harris-Foulkes estimate   =    -122.43562044 Ry
     estimated scf accuracy    <       0.00010463 Ry

     iteration #  4     ecut=    65.00 Ry     beta= 0.70
     Davidson diagonalization with overlap
     ethr =  9.51E-07,  avg # of iterations =  2.8

     total cpu time spent up to now is        1.1 secs

     total energy              =    -122.43573225 Ry
     Harris-Foulkes estimate   =    -122.43573325 Ry
     estimated scf accuracy    <       0.00000675 Ry

     iteration #  5     ecut=    65.00 Ry     beta= 0.70
     Davidson diagonalization with overlap
     ethr =  6.14E-08,  avg # of iterations =  1.0

     total cpu time spent up to now is        1.2 secs

     total energy              =    -122.43573285 Ry
     Harris-Foulkes estimate   =    -122.43573279 Ry
     estimated scf accuracy    <       0.00000019 Ry

     iteration #  6     ecut=    65.00 Ry     beta= 0.70
     Davidson diagonalization with overlap
     ethr =  1.69E-09,  avg # of iterations =  1.8

     total cpu time spent up to now is        1.2 secs

     End of self-consistent calculation

          k = 0.0000 0.0000 0.0000 (   725 PWs)   bands (ev):

     3.0465   9.4184   9.4184   9.4184  10.2452  10.2452  35.3949  37.7453
    37.7453  37.7453

          k =-0.3333 0.3333-0.3333 (   697 PWs)   bands (ev):

     6.4179   9.4064   9.4979   9.4979  10.5494  10.5494  21.0376  34.5057
    34.7548  34.7548

          k = 0.0000 0.6667 0.0000 (   717 PWs)   bands (ev):

     7.1271   8.3498  10.3461  10.4921  10.4921  10.6595  26.0946  27.3991
    27.3991  30.6457

          k = 0.6667-0.0000 0.6667 (   702 PWs)   bands (ev):

     8.3825   8.5505   9.2852  10.1741  10.6237  15.6761  18.3524  20.9174
    29.0622  32.3367

     the Fermi energy is    10.7768 ev

!    total energy              =    -122.43573285 Ry
     Harris-Foulkes estimate   =    -122.43573286 Ry
     estimated scf accuracy    <          8.9E-09 Ry

     The total energy is the sum of the following terms:

     one-electron contribution =     -27.58467337 Ry
     hartree contribution      =      30.47463922 Ry
     xc contribution           =     -44.09893150 Ry
     ewald contribution        =     -81.22522855 Ry
     smearing contrib. (-TS)   =      -0.00153865 Ry

     convergence has been achieved in   6 iterations

     Forces acting on atoms (cartesian axes, Ry/au):

     atom    1 type  1   force =     0.00000000    0.00000000    0.00000000

     Total force =     0.000000     Total SCF correction =     0.000000


     Computing stress (Cartesian axis) and pressure

          total   stress  (Ry/bohr**3)                   (kbar)     P=  -97.93
  -0.00066570  -0.00000000   0.00000000        -97.93     -0.00      0.00
  -0.00000000  -0.00066570   0.00000000         -0.00    -97.93      0.00
  -0.00000000  -0.00000000  -0.00066570         -0.00     -0.00    -97.93


     Writing output data file Cu.save/

     init_run     :      0.17s CPU      0.18s WALL (       1 calls)
     electrons    :      0.33s CPU      0.35s WALL (       1 calls)
     forces       :      0.02s CPU      0.02s WALL (       1 calls)
     stress       :      0.06s CPU      0.06s WALL (       1 calls)

     Called by init_run:
     wfcinit      :      0.01s CPU      0.01s WALL (       1 calls)
     potinit      :      0.01s CPU      0.01s WALL (       1 calls)
     hinit0       :      0.15s CPU      0.15s WALL (       1 calls)

     Called by electrons:
     c_bands      :      0.19s CPU      0.20s WALL (       7 calls)
     sum_band     :      0.08s CPU      0.08s WALL (       7 calls)
     v_of_rho     :      0.02s CPU      0.02s WALL (       7 calls)
     newd         :      0.04s CPU      0.05s WALL (       7 calls)
     mix_rho      :      0.00s CPU      0.00s WALL (       7 calls)

     Called by c_bands:
     init_us_2    :      0.01s CPU      0.01s WALL (      68 calls)
     cegterg      :      0.18s CPU      0.19s WALL (      28 calls)

     Called by sum_band:
     sum_band:bec :      0.00s CPU      0.00s WALL (      28 calls)
     addusdens    :      0.04s CPU      0.04s WALL (       7 calls)

     Called by *egterg:
     h_psi        :      0.15s CPU      0.15s WALL (      92 calls)
     s_psi        :      0.01s CPU      0.01s WALL (      92 calls)
     g_psi        :      0.00s CPU      0.00s WALL (      60 calls)
     cdiaghg      :      0.02s CPU      0.02s WALL (      84 calls)

     Called by h_psi:
     h_psi:pot    :      0.15s CPU      0.15s WALL (      92 calls)
     h_psi:calbec :      0.01s CPU      0.01s WALL (      92 calls)
     vloc_psi     :      0.13s CPU      0.14s WALL (      92 calls)
     add_vuspsi   :      0.01s CPU      0.01s WALL (      92 calls)

     General routines
     calbec       :      0.01s CPU      0.01s WALL (     140 calls)
     fft          :      0.02s CPU      0.02s WALL (     104 calls)
     ffts         :      0.00s CPU      0.00s WALL (       7 calls)
     fftw         :      0.15s CPU      0.16s WALL (    1690 calls)

     Parallel routines
     fft_scatt_xy :      0.01s CPU      0.01s WALL (    1801 calls)
     fft_scatt_yz :      0.04s CPU      0.04s WALL (    1801 calls)

     PWSCF        :     1.25s CPU         1.33s WALL


   This run was terminated on:  23:31: 3  25Mar2024            

=------------------------------------------------------------------------------=
   JOB DONE.
=------------------------------------------------------------------------------=
