
     Program PWSCF v.6.3MaX starts on 25Mar2024 at 23:26:17 

     This program is part of the open-source Quantum ESPRESSO suite
     for quantum simulation of materials; please cite
         "P. Giannozzi et al., J. Phys.:Condens. Matter 21 395502 (2009);
         "P. Giannozzi et al., J. Phys.:Condens. Matter 29 465901 (2017);
          URL http://www.quantum-espresso.org", 
     in publications or presentations arising from this work. More details at
     http://www.quantum-espresso.org/quote

     Parallel version (MPI), running on     5 processors

     MPI processes distributed on     1 nodes
     R & G space division:  proc/nbgrp/npool/nimage =       5
     Waiting for input...
     Reading input from standard input

     Current dimensions of program PWSCF are:
     Max number of different atomic species (ntypx) = 10
     Max number of k-points (npk) =  40000
     Max angular momentum in pseudopotentials (lmaxx) =  3
               file Cu.pbesol-dn-rrkjus_psl.1.0.0.UPF: wavefunction(s)  3D renormalized

     Subspace diagonalization in iterative solution of the eigenvalue problem:
     a serial algorithm will be used


     Parallelization info
     --------------------
     sticks:   dense  smooth     PW     G-vecs:    dense   smooth      PW
     Min          72      72     21                  876      876     148
     Max          73      73     22                  877      877     151
     Sum         361     361    109                 4381     4381     749



     bravais-lattice index     =            2
     lattice parameter (alat)  =       6.8300  a.u.
     unit-cell volume          =      79.6530 (a.u.)^3
     number of atoms/cell      =            1
     number of atomic types    =            1
     number of electrons       =        11.00
     number of Kohn-Sham states=           10
     kinetic-energy cutoff     =      55.0000  Ry
     charge density cutoff     =     220.0000  Ry
     convergence threshold     =      1.0E-08
     mixing beta               =       0.7000
     number of iterations used =            8  plain     mixing
     Exchange-correlation      = PBESOL ( 1  4 10  8 0 0)

     celldm(1)=   6.830000  celldm(2)=   0.000000  celldm(3)=   0.000000
     celldm(4)=   0.000000  celldm(5)=   0.000000  celldm(6)=   0.000000

     crystal axes: (cart. coord. in units of alat)
               a(1) = (  -0.500000   0.000000   0.500000 )  
               a(2) = (   0.000000   0.500000   0.500000 )  
               a(3) = (  -0.500000   0.500000   0.000000 )  

     reciprocal axes: (cart. coord. in units 2 pi/alat)
               b(1) = ( -1.000000 -1.000000  1.000000 )  
               b(2) = (  1.000000  1.000000  1.000000 )  
               b(3) = ( -1.000000  1.000000 -1.000000 )  


     PseudoPot. # 1 for Cu read from file:
     /home/lorenzo/pseudos/Cu/Cu.pbesol-dn-rrkjus_psl.1.0.0.UPF
     MD5 check sum: bfa4c7aafbc42e028d5f4ccf7ceed93d
     Pseudo is Ultrasoft + core correction, Zval = 11.0
     Generated using "atomic" code by A. Dal Corso v.6.3
     Using radial grid of 1199 points,  6 beta functions with: 
                l(1) =   0
                l(2) =   0
                l(3) =   1
                l(4) =   1
                l(5) =   2
                l(6) =   2
     Q(r) pseudized with 0 coefficients 


     atomic species   valence    mass     pseudopotential
        Cu            11.00    63.54600     Cu( 1.00)

     48 Sym. Ops., with inversion, found



   Cartesian axes

     site n.     atom                  positions (alat units)
         1           Cu  tau(   1) = (   0.0000000   0.0000000   0.0000000  )

     number of k points=     3  gaussian smearing, width (Ry)=  0.0100
                       cart. coord. in units 2pi/alat
        k(    1) = (   0.0000000   0.0000000   0.0000000), wk =   0.2500000
        k(    2) = (   0.5000000  -0.5000000   0.5000000), wk =   1.0000000
        k(    3) = (   0.0000000  -1.0000000   0.0000000), wk =   0.7500000

     Dense  grid:     4381 G-vectors     FFT dimensions: (  24,  24,  24)

     Estimated max dynamical RAM per process >       4.64 MB

     Estimated total dynamical RAM >      23.22 MB

     Initial potential from superposition of free atoms

     starting charge   10.99979, renormalised to   11.00000
     Starting wfcs are    9 randomized atomic wfcs +    1 random wfcs

     total cpu time spent up to now is        0.9 secs

     Self-consistent Calculation

     iteration #  1     ecut=    55.00 Ry     beta= 0.70
     Davidson diagonalization with overlap
     ethr =  1.00E-02,  avg # of iterations =  3.3

     Threshold (ethr) on eigenvalues was too large:
     Diagonalizing with lowered threshold

     Davidson diagonalization with overlap
     ethr =  6.29E-04,  avg # of iterations =  1.0

     total cpu time spent up to now is        1.0 secs

     total energy              =    -122.21989161 Ry
     Harris-Foulkes estimate   =    -122.27281315 Ry
     estimated scf accuracy    <       0.06920199 Ry

     iteration #  2     ecut=    55.00 Ry     beta= 0.70
     Davidson diagonalization with overlap
     ethr =  6.29E-04,  avg # of iterations =  2.7

     total cpu time spent up to now is        1.0 secs

     total energy              =    -122.22941529 Ry
     Harris-Foulkes estimate   =    -122.32963781 Ry
     estimated scf accuracy    <       0.26652582 Ry

     iteration #  3     ecut=    55.00 Ry     beta= 0.70
     Davidson diagonalization with overlap
     ethr =  6.29E-04,  avg # of iterations =  2.7

     total cpu time spent up to now is        1.1 secs

     total energy              =    -122.25693498 Ry
     Harris-Foulkes estimate   =    -122.26084991 Ry
     estimated scf accuracy    <       0.01157990 Ry

     iteration #  4     ecut=    55.00 Ry     beta= 0.70
     Davidson diagonalization with overlap
     ethr =  1.05E-04,  avg # of iterations =  1.3

     total cpu time spent up to now is        1.1 secs

     total energy              =    -122.25699041 Ry
     Harris-Foulkes estimate   =    -122.26041195 Ry
     estimated scf accuracy    <       0.01758483 Ry

     iteration #  5     ecut=    55.00 Ry     beta= 0.70
     Davidson diagonalization with overlap
     ethr =  1.05E-04,  avg # of iterations =  1.0

     total cpu time spent up to now is        1.1 secs

     total energy              =    -122.25910117 Ry
     Harris-Foulkes estimate   =    -122.25964473 Ry
     estimated scf accuracy    <       0.00525770 Ry

     iteration #  6     ecut=    55.00 Ry     beta= 0.70
     Davidson diagonalization with overlap
     ethr =  4.78E-05,  avg # of iterations =  1.0

     total cpu time spent up to now is        1.1 secs

     total energy              =    -122.25912885 Ry
     Harris-Foulkes estimate   =    -122.25923824 Ry
     estimated scf accuracy    <       0.00077545 Ry

     iteration #  7     ecut=    55.00 Ry     beta= 0.70
     Davidson diagonalization with overlap
     ethr =  7.05E-06,  avg # of iterations =  1.0

     total cpu time spent up to now is        1.2 secs

     total energy              =    -122.25919468 Ry
     Harris-Foulkes estimate   =    -122.25919759 Ry
     estimated scf accuracy    <       0.00006951 Ry

     iteration #  8     ecut=    55.00 Ry     beta= 0.70
     Davidson diagonalization with overlap
     ethr =  6.32E-07,  avg # of iterations =  1.0

     total cpu time spent up to now is        1.2 secs

     total energy              =    -122.25919574 Ry
     Harris-Foulkes estimate   =    -122.25919553 Ry
     estimated scf accuracy    <       0.00002630 Ry

     iteration #  9     ecut=    55.00 Ry     beta= 0.70
     Davidson diagonalization with overlap
     ethr =  2.39E-07,  avg # of iterations =  1.0

     total cpu time spent up to now is        1.2 secs

     total energy              =    -122.25919287 Ry
     Harris-Foulkes estimate   =    -122.25919589 Ry
     estimated scf accuracy    <       0.00003027 Ry

     iteration # 10     ecut=    55.00 Ry     beta= 0.70
     Davidson diagonalization with overlap
     ethr =  2.39E-07,  avg # of iterations =  1.0

     total cpu time spent up to now is        1.3 secs

     total energy              =    -122.25919424 Ry
     Harris-Foulkes estimate   =    -122.25919426 Ry
     estimated scf accuracy    <       0.00000009 Ry

     iteration # 11     ecut=    55.00 Ry     beta= 0.70
     Davidson diagonalization with overlap
     ethr =  8.51E-10,  avg # of iterations =  2.7

     total cpu time spent up to now is        1.3 secs

     total energy              =    -122.25919428 Ry
     Harris-Foulkes estimate   =    -122.25919429 Ry
     estimated scf accuracy    <       0.00000020 Ry

     iteration # 12     ecut=    55.00 Ry     beta= 0.70
     Davidson diagonalization with overlap
     ethr =  8.51E-10,  avg # of iterations =  1.0

     total cpu time spent up to now is        1.3 secs

     total energy              =    -122.25919425 Ry
     Harris-Foulkes estimate   =    -122.25919428 Ry
     estimated scf accuracy    <       0.00000014 Ry

     iteration # 13     ecut=    55.00 Ry     beta= 0.70
     Davidson diagonalization with overlap
     ethr =  8.51E-10,  avg # of iterations =  1.0

     total cpu time spent up to now is        1.3 secs

     total energy              =    -122.25919427 Ry
     Harris-Foulkes estimate   =    -122.25919428 Ry
     estimated scf accuracy    <       0.00000014 Ry

     iteration # 14     ecut=    55.00 Ry     beta= 0.70
     Davidson diagonalization with overlap
     ethr =  8.51E-10,  avg # of iterations =  1.0

     total cpu time spent up to now is        1.4 secs

     total energy              =    -122.25919428 Ry
     Harris-Foulkes estimate   =    -122.25919428 Ry
     estimated scf accuracy    <       0.00000001 Ry

     iteration # 15     ecut=    55.00 Ry     beta= 0.70
     Davidson diagonalization with overlap
     ethr =  1.30E-10,  avg # of iterations =  1.0

     total cpu time spent up to now is        1.4 secs

     End of self-consistent calculation

          k = 0.0000 0.0000 0.0000 (   537 PWs)   bands (ev):

     3.0581   9.7642   9.7642   9.7642  10.6385  10.6385  35.3361  37.7993
    37.7993  37.7993

          k = 0.5000-0.5000 0.5000 (   568 PWs)   bands (ev):

     7.5484   9.7368   9.7368  11.2201  11.2201  11.4208  16.3883  33.7796
    34.5497  34.5497

          k = 0.0000-1.0000 0.0000 (   524 PWs)   bands (ev):

     7.8086   8.3010  11.2111  11.3628  11.3628  13.9137  19.7165  25.5534
    25.5534  30.1440

     the Fermi energy is    11.5154 ev

!    total energy              =    -122.25919428 Ry
     Harris-Foulkes estimate   =    -122.25919428 Ry
     estimated scf accuracy    <          1.3E-09 Ry

     The total energy is the sum of the following terms:

     one-electron contribution =     -27.59289036 Ry
     hartree contribution      =      30.73149862 Ry
     xc contribution           =     -44.16956645 Ry
     ewald contribution        =     -81.22522864 Ry
     smearing contrib. (-TS)   =      -0.00300745 Ry

     convergence has been achieved in  15 iterations

     Forces acting on atoms (cartesian axes, Ry/au):

     atom    1 type  1   force =     0.00000000    0.00000000    0.00000000

     Total force =     0.000000     Total SCF correction =     0.000000


     Computing stress (Cartesian axis) and pressure

          total   stress  (Ry/bohr**3)                   (kbar)     P=  187.74
   0.00127626   0.00000000   0.00000000        187.74      0.00      0.00
   0.00000000   0.00127626  -0.00000000          0.00    187.74     -0.00
   0.00000000  -0.00000000   0.00127626          0.00     -0.00    187.74


     Writing output data file Cu.save/

     init_run     :      0.16s CPU      0.16s WALL (       1 calls)
     electrons    :      0.46s CPU      0.47s WALL (       1 calls)
     forces       :      0.01s CPU      0.01s WALL (       1 calls)
     stress       :      0.05s CPU      0.05s WALL (       1 calls)

     Called by init_run:
     wfcinit      :      0.01s CPU      0.01s WALL (       1 calls)
     potinit      :      0.01s CPU      0.01s WALL (       1 calls)
     hinit0       :      0.14s CPU      0.14s WALL (       1 calls)

     Called by electrons:
     c_bands      :      0.21s CPU      0.22s WALL (      16 calls)
     sum_band     :      0.12s CPU      0.13s WALL (      16 calls)
     v_of_rho     :      0.05s CPU      0.05s WALL (      16 calls)
     newd         :      0.07s CPU      0.07s WALL (      16 calls)
     mix_rho      :      0.01s CPU      0.01s WALL (      16 calls)

     Called by c_bands:
     init_us_2    :      0.01s CPU      0.01s WALL (     105 calls)
     cegterg      :      0.20s CPU      0.21s WALL (      48 calls)

     Called by sum_band:
     sum_band:bec :      0.00s CPU      0.00s WALL (      48 calls)
     addusdens    :      0.07s CPU      0.07s WALL (      16 calls)

     Called by *egterg:
     h_psi        :      0.15s CPU      0.16s WALL (     122 calls)
     s_psi        :      0.01s CPU      0.01s WALL (     122 calls)
     g_psi        :      0.00s CPU      0.00s WALL (      71 calls)
     cdiaghg      :      0.02s CPU      0.02s WALL (     116 calls)

     Called by h_psi:
     h_psi:pot    :      0.15s CPU      0.16s WALL (     122 calls)
     h_psi:calbec :      0.01s CPU      0.01s WALL (     122 calls)
     vloc_psi     :      0.14s CPU      0.14s WALL (     122 calls)
     add_vuspsi   :      0.01s CPU      0.01s WALL (     122 calls)

     General routines
     calbec       :      0.01s CPU      0.01s WALL (     185 calls)
     fft          :      0.03s CPU      0.03s WALL (     203 calls)
     ffts         :      0.00s CPU      0.00s WALL (      16 calls)
     fftw         :      0.16s CPU      0.17s WALL (    2604 calls)

     Parallel routines
     fft_scatt_xy :      0.02s CPU      0.02s WALL (    2823 calls)
     fft_scatt_yz :      0.06s CPU      0.06s WALL (    2823 calls)

     PWSCF        :     1.44s CPU         1.50s WALL


   This run was terminated on:  23:26:18  25Mar2024            

=------------------------------------------------------------------------------=
   JOB DONE.
=------------------------------------------------------------------------------=
