
     Program PWSCF v.6.3MaX starts on 25Mar2024 at 23:15:21 

     This program is part of the open-source Quantum ESPRESSO suite
     for quantum simulation of materials; please cite
         "P. Giannozzi et al., J. Phys.:Condens. Matter 21 395502 (2009);
         "P. Giannozzi et al., J. Phys.:Condens. Matter 29 465901 (2017);
          URL http://www.quantum-espresso.org", 
     in publications or presentations arising from this work. More details at
     http://www.quantum-espresso.org/quote

     Parallel version (MPI), running on     5 processors

     MPI processes distributed on     1 nodes
     R & G space division:  proc/nbgrp/npool/nimage =       5
     Waiting for input...
     Reading input from standard input

     Current dimensions of program PWSCF are:
     Max number of different atomic species (ntypx) = 10
     Max number of k-points (npk) =  40000
     Max angular momentum in pseudopotentials (lmaxx) =  3
               file Cu.pbesol-dn-kjpaw_psl.1.0.0.UPF: wavefunction(s)  4S 3D renormalized

     Subspace diagonalization in iterative solution of the eigenvalue problem:
     a serial algorithm will be used


     Parallelization info
     --------------------
     sticks:   dense  smooth     PW     G-vecs:    dense   smooth      PW
     Min          32      32     12                  272      272      66
     Max          33      33     13                  273      273      67
     Sum         163     163     61                 1363     1363     331



     bravais-lattice index     =            2
     lattice parameter (alat)  =       6.8300  a.u.
     unit-cell volume          =      79.6530 (a.u.)^3
     number of atoms/cell      =            1
     number of atomic types    =            1
     number of electrons       =        11.00
     number of Kohn-Sham states=           10
     kinetic-energy cutoff     =      25.0000  Ry
     charge density cutoff     =     100.0000  Ry
     convergence threshold     =      1.0E-08
     mixing beta               =       0.7000
     number of iterations used =            8  plain     mixing
     Exchange-correlation      = SLA PW PSX PSC ( 1  4 10  8 0 0)

     celldm(1)=   6.830000  celldm(2)=   0.000000  celldm(3)=   0.000000
     celldm(4)=   0.000000  celldm(5)=   0.000000  celldm(6)=   0.000000

     crystal axes: (cart. coord. in units of alat)
               a(1) = (  -0.500000   0.000000   0.500000 )  
               a(2) = (   0.000000   0.500000   0.500000 )  
               a(3) = (  -0.500000   0.500000   0.000000 )  

     reciprocal axes: (cart. coord. in units 2 pi/alat)
               b(1) = ( -1.000000 -1.000000  1.000000 )  
               b(2) = (  1.000000  1.000000  1.000000 )  
               b(3) = ( -1.000000  1.000000 -1.000000 )  


     PseudoPot. # 1 for Cu read from file:
     /home/lorenzo/pseudos/Cu/Cu.pbesol-dn-kjpaw_psl.1.0.0.UPF
     MD5 check sum: 1e9735a74797514c934643dbd229f231
     Pseudo is Projector augmented-wave + core cor, Zval = 11.0
     Generated using "atomic" code by A. Dal Corso v.6.3
     Shape of augmentation charge: PSQ
     Using radial grid of 1199 points,  6 beta functions with: 
                l(1) =   0
                l(2) =   0
                l(3) =   1
                l(4) =   1
                l(5) =   2
                l(6) =   2
     Q(r) pseudized with 0 coefficients 


     atomic species   valence    mass     pseudopotential
        Cu            11.00    63.54600     Cu( 1.00)

     48 Sym. Ops., with inversion, found



   Cartesian axes

     site n.     atom                  positions (alat units)
         1           Cu  tau(   1) = (   0.0000000   0.0000000   0.0000000  )

     number of k points=    29  gaussian smearing, width (Ry)=  0.0100
                       cart. coord. in units 2pi/alat
        k(    1) = (   0.0000000   0.0000000   0.0000000), wk =   0.0039062
        k(    2) = (  -0.1250000   0.1250000  -0.1250000), wk =   0.0312500
        k(    3) = (  -0.2500000   0.2500000  -0.2500000), wk =   0.0312500
        k(    4) = (  -0.3750000   0.3750000  -0.3750000), wk =   0.0312500
        k(    5) = (   0.5000000  -0.5000000   0.5000000), wk =   0.0156250
        k(    6) = (   0.0000000   0.2500000   0.0000000), wk =   0.0234375
        k(    7) = (  -0.1250000   0.3750000  -0.1250000), wk =   0.0937500
        k(    8) = (  -0.2500000   0.5000000  -0.2500000), wk =   0.0937500
        k(    9) = (   0.6250000  -0.3750000   0.6250000), wk =   0.0937500
        k(   10) = (   0.5000000  -0.2500000   0.5000000), wk =   0.0937500
        k(   11) = (   0.3750000  -0.1250000   0.3750000), wk =   0.0937500
        k(   12) = (   0.2500000   0.0000000   0.2500000), wk =   0.0468750
        k(   13) = (   0.0000000   0.5000000   0.0000000), wk =   0.0234375
        k(   14) = (  -0.1250000   0.6250000  -0.1250000), wk =   0.0937500
        k(   15) = (   0.7500000  -0.2500000   0.7500000), wk =   0.0937500
        k(   16) = (   0.6250000  -0.1250000   0.6250000), wk =   0.0937500
        k(   17) = (   0.5000000   0.0000000   0.5000000), wk =   0.0468750
        k(   18) = (   0.0000000   0.7500000   0.0000000), wk =   0.0234375
        k(   19) = (   0.8750000  -0.1250000   0.8750000), wk =   0.0937500
        k(   20) = (   0.7500000   0.0000000   0.7500000), wk =   0.0468750
        k(   21) = (   0.0000000  -1.0000000   0.0000000), wk =   0.0117188
        k(   22) = (  -0.2500000   0.5000000   0.0000000), wk =   0.0937500
        k(   23) = (   0.6250000  -0.3750000   0.8750000), wk =   0.1875000
        k(   24) = (   0.5000000  -0.2500000   0.7500000), wk =   0.0937500
        k(   25) = (   0.7500000  -0.2500000   1.0000000), wk =   0.0937500
        k(   26) = (   0.6250000  -0.1250000   0.8750000), wk =   0.1875000
        k(   27) = (   0.5000000   0.0000000   0.7500000), wk =   0.0937500
        k(   28) = (  -0.2500000  -1.0000000   0.0000000), wk =   0.0468750
        k(   29) = (  -0.5000000  -1.0000000   0.0000000), wk =   0.0234375

     Dense  grid:     1363 G-vectors     FFT dimensions: (  15,  15,  15)

     Estimated max dynamical RAM per process >       2.03 MB

     Estimated total dynamical RAM >      10.14 MB

     Check: negative/imaginary core charge=   -0.000132    0.000000

     Initial potential from superposition of free atoms

     starting charge   10.99979, renormalised to   11.00000
     Starting wfcs are    9 randomized atomic wfcs +    1 random wfcs
     Checking if some PAW data can be deallocated... 

     total cpu time spent up to now is        1.0 secs

     Self-consistent Calculation

     iteration #  1     ecut=    25.00 Ry     beta= 0.70
     Davidson diagonalization with overlap
     ethr =  1.00E-02,  avg # of iterations =  3.8

     total cpu time spent up to now is        1.3 secs

     total energy              =    -210.18903903 Ry
     Harris-Foulkes estimate   =    -210.33113997 Ry
     estimated scf accuracy    <       0.17438362 Ry

     iteration #  2     ecut=    25.00 Ry     beta= 0.70
     Davidson diagonalization with overlap
     ethr =  1.59E-03,  avg # of iterations =  2.0

     total cpu time spent up to now is        1.4 secs

     total energy              =    -210.22672662 Ry
     Harris-Foulkes estimate   =    -210.41857355 Ry
     estimated scf accuracy    <       0.45417808 Ry

     iteration #  3     ecut=    25.00 Ry     beta= 0.70
     Davidson diagonalization with overlap
     ethr =  1.59E-03,  avg # of iterations =  2.0

     total cpu time spent up to now is        1.7 secs

     total energy              =    -210.29430630 Ry
     Harris-Foulkes estimate   =    -210.29563872 Ry
     estimated scf accuracy    <       0.00229829 Ry

     iteration #  4     ecut=    25.00 Ry     beta= 0.70
     Davidson diagonalization with overlap
     ethr =  2.09E-05,  avg # of iterations =  2.2

     total cpu time spent up to now is        1.9 secs

     total energy              =    -210.29518144 Ry
     Harris-Foulkes estimate   =    -210.29555146 Ry
     estimated scf accuracy    <       0.00108501 Ry

     iteration #  5     ecut=    25.00 Ry     beta= 0.70
     Davidson diagonalization with overlap
     ethr =  9.86E-06,  avg # of iterations =  1.0

     total cpu time spent up to now is        2.0 secs

     total energy              =    -210.29530304 Ry
     Harris-Foulkes estimate   =    -210.29531258 Ry
     estimated scf accuracy    <       0.00002862 Ry

     iteration #  6     ecut=    25.00 Ry     beta= 0.70
     Davidson diagonalization with overlap
     ethr =  2.60E-07,  avg # of iterations =  1.8

     total cpu time spent up to now is        2.2 secs

     total energy              =    -210.29530745 Ry
     Harris-Foulkes estimate   =    -210.29530764 Ry
     estimated scf accuracy    <       0.00000054 Ry

     iteration #  7     ecut=    25.00 Ry     beta= 0.70
     Davidson diagonalization with overlap
     ethr =  4.91E-09,  avg # of iterations =  2.0

     total cpu time spent up to now is        2.4 secs

     End of self-consistent calculation

          k = 0.0000 0.0000 0.0000 (   169 PWs)   bands (ev):

     3.0954   9.1201   9.1201   9.1201   9.9050   9.9050  35.4576  37.7668
    37.7668  37.7668

          k =-0.1250 0.1250-0.1250 (   169 PWs)   bands (ev):

     3.6571   9.0286   9.2226   9.2226   9.8916   9.8916  31.5386  35.9846
    36.7100  36.7100

          k =-0.2500 0.2500-0.2500 (   162 PWs)   bands (ev):

     5.2031   8.9560   9.3071   9.3071  10.1366  10.1366  25.0846  35.2930
    35.4925  35.4925

          k =-0.3750 0.3750-0.3750 (   162 PWs)   bands (ev):

     6.8078   9.2391   9.2391   9.7187  10.4658  10.4658  19.4038  34.2778
    34.7803  34.7803

          k = 0.5000-0.5000 0.5000 (   168 PWs)   bands (ev):

     7.1651   9.1468   9.1468  10.5362  10.5362  11.4439  16.1876  33.8418
    34.5259  34.5259

          k = 0.0000 0.2500 0.0000 (   165 PWs)   bands (ev):

     3.8424   8.9137   9.3338   9.3338   9.8474   9.9984  33.8254  33.9402
    33.9402  35.6542

          k =-0.1250 0.3750-0.1250 (   166 PWs)   bands (ev):

     5.0633   8.7398   9.3836   9.4729   9.9069  10.1325  27.5642  32.1007
    33.6122  36.0345

          k =-0.2500 0.5000-0.2500 (   168 PWs)   bands (ev):

     6.7608   8.8307   9.1602   9.4249  10.4660  10.6346  21.5308  31.3541
    32.2239  33.7425

          k = 0.6250-0.3750 0.6250 (   168 PWs)   bands (ev):

     7.4254   8.9421   9.3402   9.5676  10.5762  12.5001  16.8981  30.1351
    31.8572  33.4402

          k = 0.5000-0.2500 0.5000 (   165 PWs)   bands (ev):

     7.3527   9.0279   9.3602   9.4746  10.3616  11.9012  18.1911  28.9705
    33.7034  34.2551

          k = 0.3750-0.1250 0.3750 (   163 PWs)   bands (ev):

     6.2453   8.8373   9.2165   9.4786   9.9697  10.6907  23.4863  28.8991
    36.1524  36.8008

          k = 0.2500 0.0000 0.2500 (   164 PWs)   bands (ev):

     4.5556   8.9084   9.3158   9.3983   9.7999  10.1591  29.5462  30.0648
    38.1482  39.2433

          k = 0.0000 0.5000 0.0000 (   165 PWs)   bands (ev):

     5.8349   8.4527   9.5891   9.8675   9.8675  10.1905  29.6860  29.6860
    31.1816  32.0536

          k =-0.1250 0.6250-0.1250 (   165 PWs)   bands (ev):

     7.0640   8.2895   9.4425   9.9146  10.5543  10.8402  24.5493  27.8245
    28.4414  32.4416

          k = 0.7500-0.2500 0.7500 (   171 PWs)   bands (ev):

     7.8092   8.3819   9.2057   9.7718  10.5980  13.3073  19.2356  25.1735
    28.6200  32.4381

          k = 0.6250-0.1250 0.6250 (   172 PWs)   bands (ev):

     8.0354   8.5346   9.0420   9.6874  10.3534  14.5292  17.7362  23.5303
    30.2628  33.0265

          k = 0.5000 0.0000 0.5000 (   170 PWs)   bands (ev):

     7.6396   8.6806   8.8725   9.6994   9.9414  11.9632  22.2849  23.4462
    33.1539  34.4237

          k = 0.0000 0.7500 0.0000 (   170 PWs)   bands (ev):

     7.2781   7.9786  10.4121  10.4377  10.4377  11.1544  24.0189  26.6684
    26.6684  31.0428

          k = 0.8750-0.1250 0.8750 (   170 PWs)   bands (ev):

     7.5371   7.9446  10.1122  10.3206  10.6488  13.7334  21.3245  22.7791
    26.3787  31.7317

          k = 0.7500 0.0000 0.7500 (   172 PWs)   bands (ev):

     7.9191   8.1499   9.4523  10.0882  10.4900  16.7900  18.2206  20.3695
    27.6655  32.1587

          k = 0.0000-1.0000 0.0000 (   174 PWs)   bands (ev):

     7.3304   7.7718  10.6464  10.6631  10.6631  13.9500  19.6103  25.5575
    25.5575  30.6655

          k =-0.2500 0.5000 0.0000 (   166 PWs)   bands (ev):

     6.4121   8.5541   9.1837   9.8327   9.8921  10.7081  26.0027  26.5571
    32.0038  36.7569

          k = 0.6250-0.3750 0.8750 (   167 PWs)   bands (ev):

     7.6864   8.6519   8.9066   9.7328  10.3470  12.1572  20.5707  26.0570
    29.0289  36.5948

          k = 0.5000-0.2500 0.7500 (   168 PWs)   bands (ev):

     7.9161   8.6120   9.1248   9.6253  10.5347  14.5232  16.7097  26.8831
    27.0955  36.2292

          k = 0.7500-0.2500 1.0000 (   166 PWs)   bands (ev):

     7.6788   8.1892   9.4107  10.2687  10.4612  12.5861  23.5370  24.2533
    24.6419  35.2136

          k = 0.6250-0.1250 0.8750 (   170 PWs)   bands (ev):

     8.0453   8.3011   9.0926  10.0331  10.5950  15.7615  18.8803  22.3501
    24.5586  36.1377

          k = 0.5000 0.0000 0.7500 (   171 PWs)   bands (ev):

     8.2975   8.4728   8.7224   9.9121  10.3585  14.8506  19.7184  21.6818
    26.3130  37.1773

          k =-0.2500-1.0000 0.0000 (   168 PWs)   bands (ev):

     7.6659   8.0313   9.8019  10.3281  10.7513  15.5403  19.9383  22.5950
    23.4297  34.7000

          k =-0.5000-1.0000 0.0000 (   176 PWs)   bands (ev):

     8.0543   8.6536   8.6536   9.9401  10.6739  18.6785  18.6785  20.8357
    21.2670  41.2730

     the Fermi energy is    12.2575 ev

!    total energy              =    -210.29530757 Ry
     Harris-Foulkes estimate   =    -210.29530758 Ry
     estimated scf accuracy    <          4.0E-09 Ry

     total all-electron energy =     -3307.174369 Ry

     The total energy is the sum of the following terms:

     one-electron contribution =     -27.68514619 Ry
     hartree contribution      =      30.16045067 Ry
     xc contribution           =     -43.98435916 Ry
     ewald contribution        =     -81.22522862 Ry
     one-center paw contrib.   =     -87.56070383 Ry
     smearing contrib. (-TS)   =      -0.00032045 Ry

     convergence has been achieved in   7 iterations

     Forces acting on atoms (cartesian axes, Ry/au):

     atom    1 type  1   force =     0.00000000    0.00000000    0.00000000

     Total force =     0.000000     Total SCF correction =     0.000000


     Computing stress (Cartesian axis) and pressure

          total   stress  (Ry/bohr**3)                   (kbar)     P=-1459.95
  -0.00992455  -0.00000000   0.00000000      -1459.95     -0.00      0.00
  -0.00000000  -0.00992455   0.00000000         -0.00  -1459.95      0.00
   0.00000000   0.00000000  -0.00992455          0.00      0.00  -1459.95


     Writing output data file Cu.save/

     init_run     :      0.22s CPU      0.24s WALL (       1 calls)
     electrons    :      1.22s CPU      1.40s WALL (       1 calls)
     forces       :      0.01s CPU      0.01s WALL (       1 calls)
     stress       :      0.03s CPU      0.03s WALL (       1 calls)

     Called by init_run:
     wfcinit      :      0.03s CPU      0.03s WALL (       1 calls)
     potinit      :      0.09s CPU      0.11s WALL (       1 calls)
     hinit0       :      0.09s CPU      0.09s WALL (       1 calls)

     Called by electrons:
     c_bands      :      0.45s CPU      0.53s WALL (       7 calls)
     sum_band     :      0.08s CPU      0.09s WALL (       7 calls)
     v_of_rho     :      0.01s CPU      0.01s WALL (       8 calls)
     newd         :      0.01s CPU      0.01s WALL (       8 calls)
     PAW_pot      :      0.75s CPU      0.85s WALL (       8 calls)
     mix_rho      :      0.00s CPU      0.00s WALL (       7 calls)

     Called by c_bands:
     init_us_2    :      0.01s CPU      0.01s WALL (     493 calls)
     cegterg      :      0.43s CPU      0.50s WALL (     203 calls)

     Called by sum_band:
     sum_band:bec :      0.00s CPU      0.00s WALL (     203 calls)
     addusdens    :      0.01s CPU      0.01s WALL (       7 calls)

     Called by *egterg:
     h_psi        :      0.28s CPU      0.34s WALL (     661 calls)
     s_psi        :      0.01s CPU      0.01s WALL (     661 calls)
     g_psi        :      0.00s CPU      0.00s WALL (     429 calls)
     cdiaghg      :      0.10s CPU      0.11s WALL (     632 calls)

     Called by h_psi:
     h_psi:pot    :      0.28s CPU      0.33s WALL (     661 calls)
     h_psi:calbec :      0.02s CPU      0.02s WALL (     661 calls)
     vloc_psi     :      0.25s CPU      0.30s WALL (     661 calls)
     add_vuspsi   :      0.01s CPU      0.01s WALL (     661 calls)

     General routines
     calbec       :      0.03s CPU      0.03s WALL (    1009 calls)
     fft          :      0.01s CPU      0.01s WALL (     114 calls)
     ffts         :      0.00s CPU      0.00s WALL (       7 calls)
     fftw         :      0.27s CPU      0.32s WALL (   12298 calls)

     Parallel routines
     fft_scatt_xy :      0.03s CPU      0.03s WALL (   12419 calls)
     fft_scatt_yz :      0.12s CPU      0.15s WALL (   12419 calls)

     PWSCF        :     2.28s CPU         2.55s WALL


   This run was terminated on:  23:15:23  25Mar2024            

=------------------------------------------------------------------------------=
   JOB DONE.
=------------------------------------------------------------------------------=
