
     Program PWSCF v.6.3MaX starts on 25Mar2024 at 23:11:30 

     This program is part of the open-source Quantum ESPRESSO suite
     for quantum simulation of materials; please cite
         "P. Giannozzi et al., J. Phys.:Condens. Matter 21 395502 (2009);
         "P. Giannozzi et al., J. Phys.:Condens. Matter 29 465901 (2017);
          URL http://www.quantum-espresso.org", 
     in publications or presentations arising from this work. More details at
     http://www.quantum-espresso.org/quote

     Parallel version (MPI), running on     5 processors

     MPI processes distributed on     1 nodes
     R & G space division:  proc/nbgrp/npool/nimage =       5
     Waiting for input...
     Reading input from standard input

     Current dimensions of program PWSCF are:
     Max number of different atomic species (ntypx) = 10
     Max number of k-points (npk) =  40000
     Max angular momentum in pseudopotentials (lmaxx) =  3
               file Cu.pbe-dn-kjpaw_psl.1.0.0.UPF: wavefunction(s)  4S 3D renormalized

     Subspace diagonalization in iterative solution of the eigenvalue problem:
     a serial algorithm will be used


     Parallelization info
     --------------------
     sticks:   dense  smooth     PW     G-vecs:    dense   smooth      PW
     Min          18      18      7                  121      121      33
     Max          19      19      8                  123      123      35
     Sum          91      91     37                  609      609     169



     bravais-lattice index     =            2
     lattice parameter (alat)  =       6.8300  a.u.
     unit-cell volume          =      79.6530 (a.u.)^3
     number of atoms/cell      =            1
     number of atomic types    =            1
     number of electrons       =        11.00
     number of Kohn-Sham states=           10
     kinetic-energy cutoff     =      15.0000  Ry
     charge density cutoff     =      60.0000  Ry
     convergence threshold     =      1.0E-08
     mixing beta               =       0.7000
     number of iterations used =            8  plain     mixing
     Exchange-correlation      = SLA PW PBX PBC ( 1  4  3  4 0 0)

     celldm(1)=   6.830000  celldm(2)=   0.000000  celldm(3)=   0.000000
     celldm(4)=   0.000000  celldm(5)=   0.000000  celldm(6)=   0.000000

     crystal axes: (cart. coord. in units of alat)
               a(1) = (  -0.500000   0.000000   0.500000 )  
               a(2) = (   0.000000   0.500000   0.500000 )  
               a(3) = (  -0.500000   0.500000   0.000000 )  

     reciprocal axes: (cart. coord. in units 2 pi/alat)
               b(1) = ( -1.000000 -1.000000  1.000000 )  
               b(2) = (  1.000000  1.000000  1.000000 )  
               b(3) = ( -1.000000  1.000000 -1.000000 )  


     PseudoPot. # 1 for Cu read from file:
     /home/lorenzo/pseudos/Cu/Cu.pbe-dn-kjpaw_psl.1.0.0.UPF
     MD5 check sum: cfffd1f38ee05704b3e17f46f1730a6f
     Pseudo is Projector augmented-wave + core cor, Zval = 11.0
     Generated using "atomic" code by A. Dal Corso v.6.3
     Shape of augmentation charge: PSQ
     Using radial grid of 1199 points,  6 beta functions with: 
                l(1) =   0
                l(2) =   0
                l(3) =   1
                l(4) =   1
                l(5) =   2
                l(6) =   2
     Q(r) pseudized with 0 coefficients 


     atomic species   valence    mass     pseudopotential
        Cu            11.00    63.54600     Cu( 1.00)

     48 Sym. Ops., with inversion, found



   Cartesian axes

     site n.     atom                  positions (alat units)
         1           Cu  tau(   1) = (   0.0000000   0.0000000   0.0000000  )

     number of k points=    20  gaussian smearing, width (Ry)=  0.0100
                       cart. coord. in units 2pi/alat
        k(    1) = (   0.0000000   0.0000000   0.0000000), wk =   0.0058309
        k(    2) = (  -0.1428571   0.1428571  -0.1428571), wk =   0.0466472
        k(    3) = (  -0.2857143   0.2857143  -0.2857143), wk =   0.0466472
        k(    4) = (  -0.4285714   0.4285714  -0.4285714), wk =   0.0466472
        k(    5) = (   0.0000000   0.2857143   0.0000000), wk =   0.0349854
        k(    6) = (  -0.1428571   0.4285714  -0.1428571), wk =   0.1399417
        k(    7) = (  -0.2857143   0.5714286  -0.2857143), wk =   0.1399417
        k(    8) = (   0.5714286  -0.2857143   0.5714286), wk =   0.1399417
        k(    9) = (   0.4285714  -0.1428571   0.4285714), wk =   0.1399417
        k(   10) = (   0.2857143  -0.0000000   0.2857143), wk =   0.0699708
        k(   11) = (   0.0000000   0.5714286   0.0000000), wk =   0.0349854
        k(   12) = (  -0.1428571   0.7142857  -0.1428571), wk =   0.1399417
        k(   13) = (   0.7142857  -0.1428571   0.7142857), wk =   0.1399417
        k(   14) = (   0.5714286   0.0000000   0.5714286), wk =   0.0699708
        k(   15) = (   0.0000000   0.8571429   0.0000000), wk =   0.0349854
        k(   16) = (   0.8571429  -0.0000000   0.8571429), wk =   0.0699708
        k(   17) = (  -0.2857143   0.5714286   0.0000000), wk =   0.1399417
        k(   18) = (   0.5714286  -0.2857143   0.8571429), wk =   0.2798834
        k(   19) = (   0.7142857  -0.1428571   1.0000000), wk =   0.1399417
        k(   20) = (   0.5714286   0.0000000   0.8571429), wk =   0.1399417

     Dense  grid:      609 G-vectors     FFT dimensions: (  12,  12,  12)

     Estimated max dynamical RAM per process >       1.19 MB

     Estimated total dynamical RAM >       5.94 MB

     Check: negative/imaginary core charge=   -0.001143    0.000000

     Initial potential from superposition of free atoms

     starting charge   10.99977, renormalised to   11.00000
     Starting wfcs are    9 randomized atomic wfcs +    1 random wfcs
     Checking if some PAW data can be deallocated... 

     total cpu time spent up to now is        1.1 secs

     Self-consistent Calculation

     iteration #  1     ecut=    15.00 Ry     beta= 0.70
     Davidson diagonalization with overlap
     ethr =  1.00E-02,  avg # of iterations =  3.9

     total cpu time spent up to now is        1.3 secs

     total energy              =    -208.16327394 Ry
     Harris-Foulkes estimate   =    -211.06411021 Ry
     estimated scf accuracy    <       3.56512369 Ry

     iteration #  2     ecut=    15.00 Ry     beta= 0.70
     Davidson diagonalization with overlap
     ethr =  1.00E-02,  avg # of iterations =  2.1

     total cpu time spent up to now is        1.4 secs

     total energy              =    -209.85595298 Ry
     Harris-Foulkes estimate   =    -210.69343882 Ry
     estimated scf accuracy    <       1.42745529 Ry

     iteration #  3     ecut=    15.00 Ry     beta= 0.70
     Davidson diagonalization with overlap
     ethr =  1.00E-02,  avg # of iterations =  1.8

     total cpu time spent up to now is        1.6 secs

     total energy              =    -209.93284605 Ry
     Harris-Foulkes estimate   =    -210.00855516 Ry
     estimated scf accuracy    <       0.10748444 Ry

     iteration #  4     ecut=    15.00 Ry     beta= 0.70
     Davidson diagonalization with overlap
     ethr =  9.77E-04,  avg # of iterations =  2.2

     total cpu time spent up to now is        1.7 secs

     total energy              =    -209.94890243 Ry
     Harris-Foulkes estimate   =    -210.01280206 Ry
     estimated scf accuracy    <       0.11072053 Ry

     iteration #  5     ecut=    15.00 Ry     beta= 0.70
     Davidson diagonalization with overlap
     ethr =  9.77E-04,  avg # of iterations =  1.9

     total cpu time spent up to now is        1.9 secs

     total energy              =    -209.97306621 Ry
     Harris-Foulkes estimate   =    -209.97302281 Ry
     estimated scf accuracy    <       0.00002294 Ry

     iteration #  6     ecut=    15.00 Ry     beta= 0.70
     Davidson diagonalization with overlap
     ethr =  2.09E-07,  avg # of iterations =  3.0

     total cpu time spent up to now is        2.1 secs

     total energy              =    -209.97304027 Ry
     Harris-Foulkes estimate   =    -209.97329402 Ry
     estimated scf accuracy    <       0.00041882 Ry

     iteration #  7     ecut=    15.00 Ry     beta= 0.70
     Davidson diagonalization with overlap
     ethr =  2.09E-07,  avg # of iterations =  2.4

     total cpu time spent up to now is        2.3 secs

     total energy              =    -209.97312618 Ry
     Harris-Foulkes estimate   =    -209.97312623 Ry
     estimated scf accuracy    <       0.00000029 Ry

     iteration #  8     ecut=    15.00 Ry     beta= 0.70
     Davidson diagonalization with overlap
     ethr =  2.64E-09,  avg # of iterations =  1.6

     total cpu time spent up to now is        2.4 secs

     End of self-consistent calculation

          k = 0.0000 0.0000 0.0000 (    65 PWs)   bands (ev):

     3.7303   7.8855   7.8855   9.0021   9.0021   9.0021  37.2176  37.3751
    37.3751  37.3751

          k =-0.1429 0.1429-0.1429 (    71 PWs)   bands (ev):

     4.4258   7.1247   7.1247   7.3348   8.2904   8.2904  31.8369  36.8955
    36.8955  37.5861

          k =-0.2857 0.2857-0.2857 (    74 PWs)   bands (ev):

     5.5423   6.1881   6.1881   7.7477   8.1235   8.1235  24.1352  35.3990
    35.3990  36.7495

          k =-0.4286 0.4286-0.4286 (    77 PWs)   bands (ev):

     4.6969   5.8625   5.8625   7.8812   7.8812  10.8919  17.4283  34.1509
    34.1509  35.5037

          k = 0.0000 0.2857 0.0000 (    72 PWs)   bands (ev):

     4.6663   6.8746   6.8746   7.0572   8.1328   8.5432  33.8788  33.8788
    35.5473  37.0179

          k =-0.1429 0.4286-0.1429 (    77 PWs)   bands (ev):

     5.5542   5.5733   5.8512   6.7143   7.5654   8.2142  26.9023  31.7449
    34.8450  35.8514

          k =-0.2857 0.5714-0.2857 (    79 PWs)   bands (ev):

     4.9600   5.6350   6.2448   6.7372   7.1179  10.4090  19.9082  31.2319
    31.3713  34.9971

          k = 0.5714-0.2857 0.5714 (    79 PWs)   bands (ev):

     5.0258   5.8393   6.1256   6.4419   7.1227  13.0638  16.5822  29.2120
    32.4011  35.1933

          k = 0.4286-0.1429 0.4286 (    79 PWs)   bands (ev):

     5.3049   5.4708   6.0823   6.5903   6.9689   9.4361  22.1677  28.6562
    35.3050  36.5947

          k = 0.2857-0.0000 0.2857 (    71 PWs)   bands (ev):

     5.2947   6.4743   7.2319   7.8782   8.0714   9.0516  29.4490  29.9577
    39.6268  39.8786

          k = 0.0000 0.5714 0.0000 (    76 PWs)   bands (ev):

     5.5530   6.2893   6.2893   7.1751   7.5011   8.5128  28.9538  28.9538
    30.0400  34.1240

          k =-0.1429 0.7143-0.1429 (    80 PWs)   bands (ev):

     5.2076   5.3430   5.8212   6.5271   6.9743  11.1767  23.5487  26.0610
    27.8815  34.7056

          k = 0.7143-0.1429 0.7143 (    78 PWs)   bands (ev):

     5.7848   6.1195   6.4430   6.5862   6.8534  15.6142  17.9835  23.3933
    28.8546  35.0527

          k = 0.5714 0.0000 0.5714 (    79 PWs)   bands (ev):

     5.5778   5.9454   6.0563   6.3451   7.0238  12.7816  21.1952  22.5778
    31.6968  35.5588

          k = 0.0000 0.8571 0.0000 (    80 PWs)   bands (ev):

     5.0963   5.1250   6.4745   6.4745   7.1417  13.0125  21.8718  26.0955
    26.0955  33.5719

          k = 0.8571-0.0000 0.8571 (    77 PWs)   bands (ev):

     6.0913   6.1085   6.6536   6.7469   7.3527  15.4952  20.4331  22.5711
    26.4778  34.9709

          k =-0.2857 0.5714 0.0000 (    78 PWs)   bands (ev):

     5.5462   5.7915   5.9010   7.0663   7.1408   9.6545  25.4307  25.6142
    30.8893  38.2074

          k = 0.5714-0.2857 0.8571 (    79 PWs)   bands (ev):

     5.4289   6.0122   6.2517   6.3786   6.9698  13.4193  19.2265  25.6561
    27.8218  37.7595

          k = 0.7143-0.1429 1.0000 (    82 PWs)   bands (ev):

     4.7003   5.3975   5.6357   6.4190   6.5553  14.3135  22.2709  23.0849
    23.6684  37.9682

          k = 0.5714 0.0000 0.8571 (    80 PWs)   bands (ev):

     5.1548   5.6729   5.9319   6.6622   7.0564  18.0139  18.4884  20.8475
    24.8475  38.7747

     the Fermi energy is    12.7033 ev

!    total energy              =    -209.97312624 Ry
     Harris-Foulkes estimate   =    -209.97312624 Ry
     estimated scf accuracy    <          6.9E-09 Ry

     total all-electron energy =     -3306.852892 Ry

     The total energy is the sum of the following terms:

     one-electron contribution =     -21.02636178 Ry
     hartree contribution      =      24.82359521 Ry
     xc contribution           =     -42.85984515 Ry
     ewald contribution        =     -81.22523186 Ry
     one-center paw contrib.   =     -89.68514001 Ry
     smearing contrib. (-TS)   =      -0.00014264 Ry

     convergence has been achieved in   8 iterations

     Forces acting on atoms (cartesian axes, Ry/au):

     atom    1 type  1   force =     0.00000000    0.00000000    0.00000000

     Total force =     0.000000     Total SCF correction =     0.000000


     Computing stress (Cartesian axis) and pressure

          total   stress  (Ry/bohr**3)                   (kbar)     P=********
  -0.11770526  -0.00000000  -0.00000000     -17315.04     -0.00     -0.00
  -0.00000000  -0.11770526   0.00000000         -0.00 -17315.04      0.00
  -0.00000000   0.00000000  -0.11770526         -0.00      0.00 -17315.04


     Writing output data file Cu.save/

     init_run     :      0.21s CPU      0.23s WALL (       1 calls)
     electrons    :      1.20s CPU      1.38s WALL (       1 calls)
     forces       :      0.01s CPU      0.01s WALL (       1 calls)
     stress       :      0.02s CPU      0.02s WALL (       1 calls)

     Called by init_run:
     wfcinit      :      0.01s CPU      0.02s WALL (       1 calls)
     potinit      :      0.10s CPU      0.12s WALL (       1 calls)
     hinit0       :      0.08s CPU      0.08s WALL (       1 calls)

     Called by electrons:
     c_bands      :      0.36s CPU      0.41s WALL (       8 calls)
     sum_band     :      0.05s CPU      0.06s WALL (       8 calls)
     v_of_rho     :      0.01s CPU      0.01s WALL (       9 calls)
     newd         :      0.01s CPU      0.01s WALL (       9 calls)
     PAW_pot      :      0.87s CPU      0.99s WALL (       9 calls)
     mix_rho      :      0.00s CPU      0.00s WALL (       8 calls)

     Called by c_bands:
     init_us_2    :      0.01s CPU      0.01s WALL (     380 calls)
     cegterg      :      0.34s CPU      0.39s WALL (     160 calls)

     Called by sum_band:
     sum_band:bec :      0.00s CPU      0.00s WALL (     160 calls)
     addusdens    :      0.01s CPU      0.01s WALL (       8 calls)

     Called by *egterg:
     h_psi        :      0.19s CPU      0.23s WALL (     558 calls)
     s_psi        :      0.01s CPU      0.01s WALL (     558 calls)
     g_psi        :      0.00s CPU      0.00s WALL (     378 calls)
     cdiaghg      :      0.10s CPU      0.12s WALL (     538 calls)

     Called by h_psi:
     h_psi:pot    :      0.19s CPU      0.22s WALL (     558 calls)
     h_psi:calbec :      0.01s CPU      0.02s WALL (     558 calls)
     vloc_psi     :      0.17s CPU      0.20s WALL (     558 calls)
     add_vuspsi   :      0.01s CPU      0.01s WALL (     558 calls)

     General routines
     calbec       :      0.02s CPU      0.02s WALL (     818 calls)
     fft          :      0.01s CPU      0.01s WALL (     125 calls)
     ffts         :      0.00s CPU      0.00s WALL (       8 calls)
     fftw         :      0.18s CPU      0.21s WALL (   10232 calls)

     Parallel routines
     fft_scatt_xy :      0.02s CPU      0.02s WALL (   10365 calls)
     fft_scatt_yz :      0.09s CPU      0.11s WALL (   10365 calls)

     PWSCF        :     2.26s CPU         2.53s WALL


   This run was terminated on:  23:11:33  25Mar2024            

=------------------------------------------------------------------------------=
   JOB DONE.
=------------------------------------------------------------------------------=
