
     Program PWSCF v.6.3MaX starts on 25Mar2024 at 23:28:36 

     This program is part of the open-source Quantum ESPRESSO suite
     for quantum simulation of materials; please cite
         "P. Giannozzi et al., J. Phys.:Condens. Matter 21 395502 (2009);
         "P. Giannozzi et al., J. Phys.:Condens. Matter 29 465901 (2017);
          URL http://www.quantum-espresso.org", 
     in publications or presentations arising from this work. More details at
     http://www.quantum-espresso.org/quote

     Parallel version (MPI), running on     5 processors

     MPI processes distributed on     1 nodes
     R & G space division:  proc/nbgrp/npool/nimage =       5
     Waiting for input...
     Reading input from standard input

     Current dimensions of program PWSCF are:
     Max number of different atomic species (ntypx) = 10
     Max number of k-points (npk) =  40000
     Max angular momentum in pseudopotentials (lmaxx) =  3
               file Cu.pbe-dn-rrkjus_psl.1.0.0.UPF: wavefunction(s)  3D renormalized

     Subspace diagonalization in iterative solution of the eigenvalue problem:
     a serial algorithm will be used


     Parallelization info
     --------------------
     sticks:   dense  smooth     PW     G-vecs:    dense   smooth      PW
     Min          75      75     24                 1003     1003     173
     Max          76      76     25                 1007     1007     174
     Sum         379     379    121                 5029     5029     869



     bravais-lattice index     =            2
     lattice parameter (alat)  =       6.8300  a.u.
     unit-cell volume          =      79.6530 (a.u.)^3
     number of atoms/cell      =            1
     number of atomic types    =            1
     number of electrons       =        11.00
     number of Kohn-Sham states=           10
     kinetic-energy cutoff     =      60.0000  Ry
     charge density cutoff     =     240.0000  Ry
     convergence threshold     =      1.0E-08
     mixing beta               =       0.7000
     number of iterations used =            8  plain     mixing
     Exchange-correlation      = PBE ( 1  4  3  4 0 0)

     celldm(1)=   6.830000  celldm(2)=   0.000000  celldm(3)=   0.000000
     celldm(4)=   0.000000  celldm(5)=   0.000000  celldm(6)=   0.000000

     crystal axes: (cart. coord. in units of alat)
               a(1) = (  -0.500000   0.000000   0.500000 )  
               a(2) = (   0.000000   0.500000   0.500000 )  
               a(3) = (  -0.500000   0.500000   0.000000 )  

     reciprocal axes: (cart. coord. in units 2 pi/alat)
               b(1) = ( -1.000000 -1.000000  1.000000 )  
               b(2) = (  1.000000  1.000000  1.000000 )  
               b(3) = ( -1.000000  1.000000 -1.000000 )  


     PseudoPot. # 1 for Cu read from file:
     /home/lorenzo/pseudos/Cu/Cu.pbe-dn-rrkjus_psl.1.0.0.UPF
     MD5 check sum: ba3d6c84e19846e79d48cdc68ff7152b
     Pseudo is Ultrasoft + core correction, Zval = 11.0
     Generated using "atomic" code by A. Dal Corso v.6.3
     Using radial grid of 1199 points,  6 beta functions with: 
                l(1) =   0
                l(2) =   0
                l(3) =   1
                l(4) =   1
                l(5) =   2
                l(6) =   2
     Q(r) pseudized with 0 coefficients 


     atomic species   valence    mass     pseudopotential
        Cu            11.00    63.54600     Cu( 1.00)

     48 Sym. Ops., with inversion, found



   Cartesian axes

     site n.     atom                  positions (alat units)
         1           Cu  tau(   1) = (   0.0000000   0.0000000   0.0000000  )

     number of k points=     4  gaussian smearing, width (Ry)=  0.0100
                       cart. coord. in units 2pi/alat
        k(    1) = (   0.0000000   0.0000000   0.0000000), wk =   0.0740741
        k(    2) = (  -0.3333333   0.3333333  -0.3333333), wk =   0.5925926
        k(    3) = (   0.0000000   0.6666667   0.0000000), wk =   0.4444444
        k(    4) = (   0.6666667  -0.0000000   0.6666667), wk =   0.8888889

     Dense  grid:     5029 G-vectors     FFT dimensions: (  24,  24,  24)

     Estimated max dynamical RAM per process >       5.19 MB

     Estimated total dynamical RAM >      25.93 MB

     Initial potential from superposition of free atoms

     starting charge   10.99977, renormalised to   11.00000
     Starting wfcs are    9 randomized atomic wfcs +    1 random wfcs

     total cpu time spent up to now is        0.8 secs

     Self-consistent Calculation

     iteration #  1     ecut=    60.00 Ry     beta= 0.70
     Davidson diagonalization with overlap
     ethr =  1.00E-02,  avg # of iterations =  4.5

     Threshold (ethr) on eigenvalues was too large:
     Diagonalizing with lowered threshold

     Davidson diagonalization with overlap
     ethr =  5.73E-04,  avg # of iterations =  1.0

     total cpu time spent up to now is        0.9 secs

     total energy              =    -122.73618000 Ry
     Harris-Foulkes estimate   =    -122.78558171 Ry
     estimated scf accuracy    <       0.06301079 Ry

     iteration #  2     ecut=    60.00 Ry     beta= 0.70
     Davidson diagonalization with overlap
     ethr =  5.73E-04,  avg # of iterations =  2.0

     total cpu time spent up to now is        1.0 secs

     total energy              =    -122.73495786 Ry
     Harris-Foulkes estimate   =    -122.82278574 Ry
     estimated scf accuracy    <       0.22834244 Ry

     iteration #  3     ecut=    60.00 Ry     beta= 0.70
     Davidson diagonalization with overlap
     ethr =  5.73E-04,  avg # of iterations =  2.0

     total cpu time spent up to now is        1.0 secs

     total energy              =    -122.77239233 Ry
     Harris-Foulkes estimate   =    -122.77243589 Ry
     estimated scf accuracy    <       0.00017221 Ry

     iteration #  4     ecut=    60.00 Ry     beta= 0.70
     Davidson diagonalization with overlap
     ethr =  1.57E-06,  avg # of iterations =  2.5

     total cpu time spent up to now is        1.1 secs

     total energy              =    -122.77251937 Ry
     Harris-Foulkes estimate   =    -122.77251903 Ry
     estimated scf accuracy    <       0.00000441 Ry

     iteration #  5     ecut=    60.00 Ry     beta= 0.70
     Davidson diagonalization with overlap
     ethr =  4.01E-08,  avg # of iterations =  1.5

     total cpu time spent up to now is        1.1 secs

     total energy              =    -122.77251982 Ry
     Harris-Foulkes estimate   =    -122.77251974 Ry
     estimated scf accuracy    <       0.00000014 Ry

     iteration #  6     ecut=    60.00 Ry     beta= 0.70
     Davidson diagonalization with overlap
     ethr =  1.25E-09,  avg # of iterations =  1.8

     total cpu time spent up to now is        1.1 secs

     total energy              =    -122.77251984 Ry
     Harris-Foulkes estimate   =    -122.77251984 Ry
     estimated scf accuracy    <       0.00000001 Ry

     iteration #  7     ecut=    60.00 Ry     beta= 0.70
     Davidson diagonalization with overlap
     ethr =  1.25E-10,  avg # of iterations =  1.5

     total cpu time spent up to now is        1.2 secs

     End of self-consistent calculation

          k = 0.0000 0.0000 0.0000 (   609 PWs)   bands (ev):

     3.2716   9.6094   9.6094   9.6094  10.4293  10.4293  35.5988  37.9851
    37.9851  37.9851

          k =-0.3333 0.3333-0.3333 (   613 PWs)   bands (ev):

     6.6378   9.6079   9.6871   9.6871  10.7336  10.7336  21.2570  34.7138
    34.9990  34.9990

          k = 0.0000 0.6667 0.0000 (   624 PWs)   bands (ev):

     7.3399   8.5449  10.5501  10.6785  10.6785  10.8416  26.3151  27.6388
    27.6388  30.8562

          k = 0.6667-0.0000 0.6667 (   634 PWs)   bands (ev):

     8.5797   8.7476   9.4802  10.3589  10.8090  15.8894  18.5714  21.1369
    29.3021  32.5530

     the Fermi energy is    10.9608 ev

!    total energy              =    -122.77251984 Ry
     Harris-Foulkes estimate   =    -122.77251984 Ry
     estimated scf accuracy    <          7.7E-11 Ry

     The total energy is the sum of the following terms:

     one-electron contribution =     -27.49175868 Ry
     hartree contribution      =      30.56122127 Ry
     xc contribution           =     -44.61520953 Ry
     ewald contribution        =     -81.22522856 Ry
     smearing contrib. (-TS)   =      -0.00154434 Ry

     convergence has been achieved in   7 iterations

     Forces acting on atoms (cartesian axes, Ry/au):

     atom    1 type  1   force =     0.00000000    0.00000000    0.00000000

     Total force =     0.000000     Total SCF correction =     0.000000


     Computing stress (Cartesian axis) and pressure

          total   stress  (Ry/bohr**3)                   (kbar)     P=  -12.44
  -0.00008456   0.00000000  -0.00000000        -12.44      0.00     -0.00
   0.00000000  -0.00008456  -0.00000000          0.00    -12.44     -0.00
  -0.00000000   0.00000000  -0.00008456         -0.00      0.00    -12.44


     Writing output data file Cu.save/

     init_run     :      0.16s CPU      0.17s WALL (       1 calls)
     electrons    :      0.31s CPU      0.32s WALL (       1 calls)
     forces       :      0.02s CPU      0.02s WALL (       1 calls)
     stress       :      0.05s CPU      0.05s WALL (       1 calls)

     Called by init_run:
     wfcinit      :      0.01s CPU      0.01s WALL (       1 calls)
     potinit      :      0.01s CPU      0.01s WALL (       1 calls)
     hinit0       :      0.14s CPU      0.14s WALL (       1 calls)

     Called by electrons:
     c_bands      :      0.17s CPU      0.18s WALL (       8 calls)
     sum_band     :      0.07s CPU      0.07s WALL (       8 calls)
     v_of_rho     :      0.02s CPU      0.02s WALL (       8 calls)
     newd         :      0.04s CPU      0.04s WALL (       8 calls)
     mix_rho      :      0.00s CPU      0.00s WALL (       8 calls)

     Called by c_bands:
     init_us_2    :      0.01s CPU      0.01s WALL (      76 calls)
     cegterg      :      0.16s CPU      0.17s WALL (      32 calls)

     Called by sum_band:
     sum_band:bec :      0.00s CPU      0.00s WALL (      32 calls)
     addusdens    :      0.04s CPU      0.04s WALL (       8 calls)

     Called by *egterg:
     h_psi        :      0.13s CPU      0.14s WALL (     103 calls)
     s_psi        :      0.00s CPU      0.00s WALL (     103 calls)
     g_psi        :      0.00s CPU      0.00s WALL (      67 calls)
     cdiaghg      :      0.02s CPU      0.02s WALL (      95 calls)

     Called by h_psi:
     h_psi:pot    :      0.13s CPU      0.14s WALL (     103 calls)
     h_psi:calbec :      0.01s CPU      0.01s WALL (     103 calls)
     vloc_psi     :      0.12s CPU      0.12s WALL (     103 calls)
     add_vuspsi   :      0.00s CPU      0.00s WALL (     103 calls)

     General routines
     calbec       :      0.01s CPU      0.01s WALL (     155 calls)
     fft          :      0.02s CPU      0.02s WALL (     115 calls)
     ffts         :      0.00s CPU      0.00s WALL (       8 calls)
     fftw         :      0.13s CPU      0.14s WALL (    1896 calls)

     Parallel routines
     fft_scatt_xy :      0.01s CPU      0.01s WALL (    2019 calls)
     fft_scatt_yz :      0.05s CPU      0.06s WALL (    2019 calls)

     PWSCF        :     1.22s CPU         1.28s WALL


   This run was terminated on:  23:28:37  25Mar2024            

=------------------------------------------------------------------------------=
   JOB DONE.
=------------------------------------------------------------------------------=
