
     Program PWSCF v.6.3MaX starts on 25Mar2024 at 23:33:51 

     This program is part of the open-source Quantum ESPRESSO suite
     for quantum simulation of materials; please cite
         "P. Giannozzi et al., J. Phys.:Condens. Matter 21 395502 (2009);
         "P. Giannozzi et al., J. Phys.:Condens. Matter 29 465901 (2017);
          URL http://www.quantum-espresso.org", 
     in publications or presentations arising from this work. More details at
     http://www.quantum-espresso.org/quote

     Parallel version (MPI), running on     5 processors

     MPI processes distributed on     1 nodes
     R & G space division:  proc/nbgrp/npool/nimage =       5
     Waiting for input...
     Reading input from standard input

     Current dimensions of program PWSCF are:
     Max number of different atomic species (ntypx) = 10
     Max number of k-points (npk) =  40000
     Max angular momentum in pseudopotentials (lmaxx) =  3
               file Cu.pbe-dn-rrkjus_psl.1.0.0.UPF: wavefunction(s)  3D renormalized

     Subspace diagonalization in iterative solution of the eigenvalue problem:
     a serial algorithm will be used


     Parallelization info
     --------------------
     sticks:   dense  smooth     PW     G-vecs:    dense   smooth      PW
     Min          87      87     30                 1245     1245     227
     Max          88      88     31                 1247     1247     228
     Sum         439     439    151                 6231     6231    1139



     bravais-lattice index     =            2
     lattice parameter (alat)  =       6.8300  a.u.
     unit-cell volume          =      79.6530 (a.u.)^3
     number of atoms/cell      =            1
     number of atomic types    =            1
     number of electrons       =        11.00
     number of Kohn-Sham states=           10
     kinetic-energy cutoff     =      70.0000  Ry
     charge density cutoff     =     280.0000  Ry
     convergence threshold     =      1.0E-08
     mixing beta               =       0.7000
     number of iterations used =            8  plain     mixing
     Exchange-correlation      = PBE ( 1  4  3  4 0 0)

     celldm(1)=   6.830000  celldm(2)=   0.000000  celldm(3)=   0.000000
     celldm(4)=   0.000000  celldm(5)=   0.000000  celldm(6)=   0.000000

     crystal axes: (cart. coord. in units of alat)
               a(1) = (  -0.500000   0.000000   0.500000 )  
               a(2) = (   0.000000   0.500000   0.500000 )  
               a(3) = (  -0.500000   0.500000   0.000000 )  

     reciprocal axes: (cart. coord. in units 2 pi/alat)
               b(1) = ( -1.000000 -1.000000  1.000000 )  
               b(2) = (  1.000000  1.000000  1.000000 )  
               b(3) = ( -1.000000  1.000000 -1.000000 )  


     PseudoPot. # 1 for Cu read from file:
     /home/lorenzo/pseudos/Cu/Cu.pbe-dn-rrkjus_psl.1.0.0.UPF
     MD5 check sum: ba3d6c84e19846e79d48cdc68ff7152b
     Pseudo is Ultrasoft + core correction, Zval = 11.0
     Generated using "atomic" code by A. Dal Corso v.6.3
     Using radial grid of 1199 points,  6 beta functions with: 
                l(1) =   0
                l(2) =   0
                l(3) =   1
                l(4) =   1
                l(5) =   2
                l(6) =   2
     Q(r) pseudized with 0 coefficients 


     atomic species   valence    mass     pseudopotential
        Cu            11.00    63.54600     Cu( 1.00)

     48 Sym. Ops., with inversion, found



   Cartesian axes

     site n.     atom                  positions (alat units)
         1           Cu  tau(   1) = (   0.0000000   0.0000000   0.0000000  )

     number of k points=    16  gaussian smearing, width (Ry)=  0.0100
                       cart. coord. in units 2pi/alat
        k(    1) = (   0.0000000   0.0000000   0.0000000), wk =   0.0092593
        k(    2) = (  -0.1666667   0.1666667  -0.1666667), wk =   0.0740741
        k(    3) = (  -0.3333333   0.3333333  -0.3333333), wk =   0.0740741
        k(    4) = (   0.5000000  -0.5000000   0.5000000), wk =   0.0370370
        k(    5) = (   0.0000000   0.3333333   0.0000000), wk =   0.0555556
        k(    6) = (  -0.1666667   0.5000000  -0.1666667), wk =   0.2222222
        k(    7) = (   0.6666667  -0.3333333   0.6666667), wk =   0.2222222
        k(    8) = (   0.5000000  -0.1666667   0.5000000), wk =   0.2222222
        k(    9) = (   0.3333333   0.0000000   0.3333333), wk =   0.1111111
        k(   10) = (   0.0000000   0.6666667   0.0000000), wk =   0.0555556
        k(   11) = (   0.8333333  -0.1666667   0.8333333), wk =   0.2222222
        k(   12) = (   0.6666667  -0.0000000   0.6666667), wk =   0.1111111
        k(   13) = (   0.0000000  -1.0000000   0.0000000), wk =   0.0277778
        k(   14) = (   0.6666667  -0.3333333   1.0000000), wk =   0.2222222
        k(   15) = (   0.5000000  -0.1666667   0.8333333), wk =   0.2222222
        k(   16) = (  -0.3333333  -1.0000000   0.0000000), wk =   0.1111111

     Dense  grid:     6231 G-vectors     FFT dimensions: (  25,  25,  25)

     Estimated max dynamical RAM per process >       6.46 MB

     Estimated total dynamical RAM >      32.30 MB

     Initial potential from superposition of free atoms

     starting charge   10.99977, renormalised to   11.00000
     Starting wfcs are    9 randomized atomic wfcs +    1 random wfcs

     total cpu time spent up to now is        0.9 secs

     Self-consistent Calculation

     iteration #  1     ecut=    70.00 Ry     beta= 0.70
     Davidson diagonalization with overlap
     ethr =  1.00E-02,  avg # of iterations =  3.9

     Threshold (ethr) on eigenvalues was too large:
     Diagonalizing with lowered threshold

     Davidson diagonalization with overlap
     ethr =  5.55E-04,  avg # of iterations =  1.2

     total cpu time spent up to now is        1.3 secs

     total energy              =    -122.70670135 Ry
     Harris-Foulkes estimate   =    -122.75433646 Ry
     estimated scf accuracy    <       0.06078704 Ry

     iteration #  2     ecut=    70.00 Ry     beta= 0.70
     Davidson diagonalization with overlap
     ethr =  5.53E-04,  avg # of iterations =  2.0

     total cpu time spent up to now is        1.4 secs

     total energy              =    -122.70652510 Ry
     Harris-Foulkes estimate   =    -122.79138924 Ry
     estimated scf accuracy    <       0.22083312 Ry

     iteration #  3     ecut=    70.00 Ry     beta= 0.70
     Davidson diagonalization with overlap
     ethr =  5.53E-04,  avg # of iterations =  2.0

     total cpu time spent up to now is        1.5 secs

     total energy              =    -122.74239406 Ry
     Harris-Foulkes estimate   =    -122.74239599 Ry
     estimated scf accuracy    <       0.00004020 Ry

     iteration #  4     ecut=    70.00 Ry     beta= 0.70
     Davidson diagonalization with overlap
     ethr =  3.65E-07,  avg # of iterations =  2.7

     total cpu time spent up to now is        1.7 secs

     total energy              =    -122.74243609 Ry
     Harris-Foulkes estimate   =    -122.74243841 Ry
     estimated scf accuracy    <       0.00000837 Ry

     iteration #  5     ecut=    70.00 Ry     beta= 0.70
     Davidson diagonalization with overlap
     ethr =  7.61E-08,  avg # of iterations =  1.2

     total cpu time spent up to now is        1.8 secs

     total energy              =    -122.74243764 Ry
     Harris-Foulkes estimate   =    -122.74243778 Ry
     estimated scf accuracy    <       0.00000045 Ry

     iteration #  6     ecut=    70.00 Ry     beta= 0.70
     Davidson diagonalization with overlap
     ethr =  4.08E-09,  avg # of iterations =  1.1

     total cpu time spent up to now is        1.9 secs

     End of self-consistent calculation

          k = 0.0000 0.0000 0.0000 (   749 PWs)   bands (ev):

     3.2756   9.6816   9.6816   9.6816  10.5088  10.5088  35.5984  37.9930
    37.9930  37.9930

          k =-0.1667 0.1667-0.1667 (   791 PWs)   bands (ev):

     4.2641   9.5037   9.8212   9.8212  10.4832  10.4832  29.3418  35.9400
    36.2367  36.2367

          k =-0.3333 0.3333-0.3333 (   787 PWs)   bands (ev):

     6.6544   9.6580   9.7603   9.7603  10.8134  10.8134  21.2805  34.7108
    35.0140  35.0140

          k = 0.5000-0.5000 0.5000 (   778 PWs)   bands (ev):

     7.5947   9.6449   9.6449  11.0862  11.0862  11.6358  16.4357  34.0035
    34.7595  34.7595

          k = 0.0000 0.3333 0.0000 (   793 PWs)   bands (ev):

     4.5863   9.3138   9.9948   9.9948  10.1979  10.6454  32.4474  32.4474
    32.9452  34.6147

          k =-0.1667 0.5000-0.1667 (   795 PWs)   bands (ev):

     6.5517   9.0546   9.7292  10.1227  10.8386  10.9052  24.4679  30.5290
    31.5812  33.3946

          k = 0.6667-0.3333 0.6667 (   792 PWs)   bands (ev):

     8.0219   9.2648   9.7512   9.9721  11.1060  13.1515  17.6904  28.4454
    30.8064  33.0879

          k = 0.5000-0.1667 0.5000 (   792 PWs)   bands (ev):

     7.8396   9.4357   9.5094   9.9631  10.7390  12.3389  19.6722  26.9114
    33.4172  34.4111

          k = 0.3333 0.0000 0.3333 (   791 PWs)   bands (ev):

     5.7833   9.2531   9.7885  10.1096  10.2094  10.9884  26.9080  27.6133
    37.5130  37.9470

          k = 0.0000 0.6667 0.0000 (   797 PWs)   bands (ev):

     7.3675   8.6088  10.5956  10.7562  10.7562  10.9233  26.3336  27.6502
    27.6502  30.8802

          k = 0.8333-0.1667 0.8333 (   779 PWs)   bands (ev):

     8.0875   8.5266  10.2280  10.7008  11.1537  13.8827  21.6289  22.5398
    27.1723  31.7181

          k = 0.6667-0.0000 0.6667 (   792 PWs)   bands (ev):

     8.6394   8.8029   9.5430  10.4366  10.8883  15.9199  18.5960  21.1589
    29.3155  32.5659

          k = 0.0000-1.0000 0.0000 (   790 PWs)   bands (ev):

     7.7982   8.2707  11.0647  11.2328  11.2328  14.1413  19.7853  25.7682
    25.7682  30.2615

          k = 0.6667-0.3333 1.0000 (   781 PWs)   bands (ev):

     8.1240   8.8780   9.3949  10.5537  10.7554  12.6152  22.9342  23.9506
    27.4261  37.4421

          k = 0.5000-0.1667 0.8333 (   780 PWs)   bands (ev):

     8.7600   8.7898   9.3638  10.3642  11.0556  16.2308  17.4649  24.4239
    24.6651  37.7739

          k =-0.3333-1.0000 0.0000 (   772 PWs)   bands (ev):

     8.3158   8.6593   9.8742  10.6587  11.2334  16.6949  20.3313  21.3597
    22.6832  36.3990

     the Fermi energy is    12.6460 ev

!    total energy              =    -122.74243769 Ry
     Harris-Foulkes estimate   =    -122.74243770 Ry
     estimated scf accuracy    <          1.8E-09 Ry

     The total energy is the sum of the following terms:

     one-electron contribution =     -27.50288912 Ry
     hartree contribution      =      30.61436316 Ry
     xc contribution           =     -44.62808385 Ry
     ewald contribution        =     -81.22522855 Ry
     smearing contrib. (-TS)   =      -0.00059934 Ry

     convergence has been achieved in   6 iterations

     Forces acting on atoms (cartesian axes, Ry/au):

     atom    1 type  1   force =     0.00000000    0.00000000    0.00000000

     Total force =     0.000000     Total SCF correction =     0.000000


     Computing stress (Cartesian axis) and pressure

          total   stress  (Ry/bohr**3)                   (kbar)     P=   38.36
   0.00026077   0.00000000   0.00000000         38.36      0.00      0.00
   0.00000000   0.00026077  -0.00000000          0.00     38.36     -0.00
   0.00000000  -0.00000000   0.00026077          0.00     -0.00     38.36


     Writing output data file Cu.save/

     init_run     :      0.23s CPU      0.23s WALL (       1 calls)
     electrons    :      0.92s CPU      0.97s WALL (       1 calls)
     forces       :      0.03s CPU      0.03s WALL (       1 calls)
     stress       :      0.09s CPU      0.09s WALL (       1 calls)

     Called by init_run:
     wfcinit      :      0.05s CPU      0.05s WALL (       1 calls)
     potinit      :      0.01s CPU      0.01s WALL (       1 calls)
     hinit0       :      0.16s CPU      0.16s WALL (       1 calls)

     Called by electrons:
     c_bands      :      0.68s CPU      0.72s WALL (       7 calls)
     sum_band     :      0.17s CPU      0.18s WALL (       7 calls)
     v_of_rho     :      0.02s CPU      0.02s WALL (       7 calls)
     newd         :      0.04s CPU      0.04s WALL (       7 calls)
     mix_rho      :      0.00s CPU      0.00s WALL (       7 calls)

     Called by c_bands:
     init_us_2    :      0.03s CPU      0.03s WALL (     272 calls)
     cegterg      :      0.65s CPU      0.69s WALL (     112 calls)

     Called by sum_band:
     sum_band:bec :      0.00s CPU      0.00s WALL (     112 calls)
     addusdens    :      0.04s CPU      0.04s WALL (       7 calls)

     Called by *egterg:
     h_psi        :      0.53s CPU      0.55s WALL (     354 calls)
     s_psi        :      0.02s CPU      0.02s WALL (     354 calls)
     g_psi        :      0.00s CPU      0.00s WALL (     226 calls)
     cdiaghg      :      0.06s CPU      0.07s WALL (     322 calls)

     Called by h_psi:
     h_psi:pot    :      0.52s CPU      0.55s WALL (     354 calls)
     h_psi:calbec :      0.02s CPU      0.02s WALL (     354 calls)
     vloc_psi     :      0.48s CPU      0.50s WALL (     354 calls)
     add_vuspsi   :      0.02s CPU      0.02s WALL (     354 calls)

     General routines
     calbec       :      0.04s CPU      0.04s WALL (     546 calls)
     fft          :      0.02s CPU      0.02s WALL (     104 calls)
     ffts         :      0.00s CPU      0.00s WALL (       7 calls)
     fftw         :      0.55s CPU      0.57s WALL (    6760 calls)

     Parallel routines
     fft_scatt_xy :      0.05s CPU      0.05s WALL (    6871 calls)
     fft_scatt_yz :      0.15s CPU      0.15s WALL (    6871 calls)

     PWSCF        :     1.99s CPU         2.09s WALL


   This run was terminated on:  23:33:53  25Mar2024            

=------------------------------------------------------------------------------=
   JOB DONE.
=------------------------------------------------------------------------------=
