
     Program PWSCF v.6.3MaX starts on 25Mar2024 at 23:36: 4 

     This program is part of the open-source Quantum ESPRESSO suite
     for quantum simulation of materials; please cite
         "P. Giannozzi et al., J. Phys.:Condens. Matter 21 395502 (2009);
         "P. Giannozzi et al., J. Phys.:Condens. Matter 29 465901 (2017);
          URL http://www.quantum-espresso.org", 
     in publications or presentations arising from this work. More details at
     http://www.quantum-espresso.org/quote

     Parallel version (MPI), running on     5 processors

     MPI processes distributed on     1 nodes
     R & G space division:  proc/nbgrp/npool/nimage =       5
     Waiting for input...
     Reading input from standard input

     Current dimensions of program PWSCF are:
     Max number of different atomic species (ntypx) = 10
     Max number of k-points (npk) =  40000
     Max angular momentum in pseudopotentials (lmaxx) =  3
               file Cu.pbe-dn-rrkjus_psl.1.0.0.UPF: wavefunction(s)  3D renormalized

     Subspace diagonalization in iterative solution of the eigenvalue problem:
     a serial algorithm will be used


     Parallelization info
     --------------------
     sticks:   dense  smooth     PW     G-vecs:    dense   smooth      PW
     Min          95      95     30                 1375     1375     248
     Max          95      95     31                 1376     1376     251
     Sum         475     475    151                 6879     6879    1243



     bravais-lattice index     =            2
     lattice parameter (alat)  =       6.8300  a.u.
     unit-cell volume          =      79.6530 (a.u.)^3
     number of atoms/cell      =            1
     number of atomic types    =            1
     number of electrons       =        11.00
     number of Kohn-Sham states=           10
     kinetic-energy cutoff     =      75.0000  Ry
     charge density cutoff     =     300.0000  Ry
     convergence threshold     =      1.0E-08
     mixing beta               =       0.7000
     number of iterations used =            8  plain     mixing
     Exchange-correlation      = PBE ( 1  4  3  4 0 0)

     celldm(1)=   6.830000  celldm(2)=   0.000000  celldm(3)=   0.000000
     celldm(4)=   0.000000  celldm(5)=   0.000000  celldm(6)=   0.000000

     crystal axes: (cart. coord. in units of alat)
               a(1) = (  -0.500000   0.000000   0.500000 )  
               a(2) = (   0.000000   0.500000   0.500000 )  
               a(3) = (  -0.500000   0.500000   0.000000 )  

     reciprocal axes: (cart. coord. in units 2 pi/alat)
               b(1) = ( -1.000000 -1.000000  1.000000 )  
               b(2) = (  1.000000  1.000000  1.000000 )  
               b(3) = ( -1.000000  1.000000 -1.000000 )  


     PseudoPot. # 1 for Cu read from file:
     /home/lorenzo/pseudos/Cu/Cu.pbe-dn-rrkjus_psl.1.0.0.UPF
     MD5 check sum: ba3d6c84e19846e79d48cdc68ff7152b
     Pseudo is Ultrasoft + core correction, Zval = 11.0
     Generated using "atomic" code by A. Dal Corso v.6.3
     Using radial grid of 1199 points,  6 beta functions with: 
                l(1) =   0
                l(2) =   0
                l(3) =   1
                l(4) =   1
                l(5) =   2
                l(6) =   2
     Q(r) pseudized with 0 coefficients 


     atomic species   valence    mass     pseudopotential
        Cu            11.00    63.54600     Cu( 1.00)

     48 Sym. Ops., with inversion, found



   Cartesian axes

     site n.     atom                  positions (alat units)
         1           Cu  tau(   1) = (   0.0000000   0.0000000   0.0000000  )

     number of k points=     8  gaussian smearing, width (Ry)=  0.0100
                       cart. coord. in units 2pi/alat
        k(    1) = (   0.0000000   0.0000000   0.0000000), wk =   0.0312500
        k(    2) = (  -0.2500000   0.2500000  -0.2500000), wk =   0.2500000
        k(    3) = (   0.5000000  -0.5000000   0.5000000), wk =   0.1250000
        k(    4) = (   0.0000000   0.5000000   0.0000000), wk =   0.1875000
        k(    5) = (   0.7500000  -0.2500000   0.7500000), wk =   0.7500000
        k(    6) = (   0.5000000   0.0000000   0.5000000), wk =   0.3750000
        k(    7) = (   0.0000000  -1.0000000   0.0000000), wk =   0.0937500
        k(    8) = (  -0.5000000  -1.0000000   0.0000000), wk =   0.1875000

     Dense  grid:     6879 G-vectors     FFT dimensions: (  27,  27,  27)

     Estimated max dynamical RAM per process >       6.89 MB

     Estimated total dynamical RAM >      34.45 MB

     Initial potential from superposition of free atoms

     starting charge   10.99977, renormalised to   11.00000
     Starting wfcs are    9 randomized atomic wfcs +    1 random wfcs

     total cpu time spent up to now is        0.9 secs

     Self-consistent Calculation

     iteration #  1     ecut=    75.00 Ry     beta= 0.70
     Davidson diagonalization with overlap
     ethr =  1.00E-02,  avg # of iterations =  3.5

     Threshold (ethr) on eigenvalues was too large:
     Diagonalizing with lowered threshold

     Davidson diagonalization with overlap
     ethr =  5.53E-04,  avg # of iterations =  1.5

     total cpu time spent up to now is        1.1 secs

     total energy              =    -122.69961414 Ry
     Harris-Foulkes estimate   =    -122.74723119 Ry
     estimated scf accuracy    <       0.06078546 Ry

     iteration #  2     ecut=    75.00 Ry     beta= 0.70
     Davidson diagonalization with overlap
     ethr =  5.53E-04,  avg # of iterations =  2.2

     total cpu time spent up to now is        1.2 secs

     total energy              =    -122.70129168 Ry
     Harris-Foulkes estimate   =    -122.78217343 Ry
     estimated scf accuracy    <       0.20647477 Ry

     iteration #  3     ecut=    75.00 Ry     beta= 0.70
     Davidson diagonalization with overlap
     ethr =  5.53E-04,  avg # of iterations =  2.0

     total cpu time spent up to now is        1.3 secs

     total energy              =    -122.73498290 Ry
     Harris-Foulkes estimate   =    -122.73498514 Ry
     estimated scf accuracy    <       0.00004115 Ry

     iteration #  4     ecut=    75.00 Ry     beta= 0.70
     Davidson diagonalization with overlap
     ethr =  3.74E-07,  avg # of iterations =  2.4

     total cpu time spent up to now is        1.4 secs

     total energy              =    -122.73501767 Ry
     Harris-Foulkes estimate   =    -122.73501936 Ry
     estimated scf accuracy    <       0.00000699 Ry

     iteration #  5     ecut=    75.00 Ry     beta= 0.70
     Davidson diagonalization with overlap
     ethr =  6.35E-08,  avg # of iterations =  1.1

     total cpu time spent up to now is        1.5 secs

     total energy              =    -122.73501875 Ry
     Harris-Foulkes estimate   =    -122.73501877 Ry
     estimated scf accuracy    <       0.00000005 Ry

     iteration #  6     ecut=    75.00 Ry     beta= 0.70
     Davidson diagonalization with overlap
     ethr =  4.94E-10,  avg # of iterations =  2.8

     total cpu time spent up to now is        1.5 secs

     End of self-consistent calculation

          k = 0.0000 0.0000 0.0000 (   893 PWs)   bands (ev):

     3.2728   9.6581   9.6581   9.6581  10.4853  10.4853  35.5974  37.9900
    37.9900  37.9900

          k =-0.2500 0.2500-0.2500 (   881 PWs)   bands (ev):

     5.3958   9.3995   9.8146   9.8146  10.5703  10.5703  25.1160  35.3791
    35.4723  35.4723

          k = 0.5000-0.5000 0.5000 (   862 PWs)   bands (ev):

     7.5791   9.6226   9.6226  11.0613  11.0613  11.6335  16.4223  34.0026
    34.7543  34.7543

          k = 0.0000 0.5000 0.0000 (   881 PWs)   bands (ev):

     6.0385   8.9346  10.0197  10.3253  10.3253  10.7597  29.7664  29.7664
    31.0553  31.7028

          k = 0.7500-0.2500 0.7500 (   866 PWs)   bands (ev):

     8.2284   8.8064   9.6738  10.3000  11.1023  13.6064  19.3723  25.2364
    28.7691  32.3143

          k = 0.5000 0.0000 0.5000 (   883 PWs)   bands (ev):

     7.9455   9.1471   9.3540  10.1571  10.4883  12.3725  22.3725  23.5766
    33.1422  34.4508

          k = 0.0000-1.0000 0.0000 (   846 PWs)   bands (ev):

     7.7819   8.2504  11.0405  11.2071  11.2071  14.1384  19.7746  25.7647
    25.7647  30.2529

          k =-0.5000-1.0000 0.0000 (   876 PWs)   bands (ev):

     8.5274   9.1417   9.1417  10.4431  11.2079  18.8633  18.8633  20.9757
    21.4565  41.0754

     the Fermi energy is    13.4398 ev

!    total energy              =    -122.73501877 Ry
     Harris-Foulkes estimate   =    -122.73501877 Ry
     estimated scf accuracy    <          1.8E-09 Ry

     The total energy is the sum of the following terms:

     one-electron contribution =     -27.48182476 Ry
     hartree contribution      =      30.59774884 Ry
     xc contribution           =     -44.62524191 Ry
     ewald contribution        =     -81.22522855 Ry
     smearing contrib. (-TS)   =      -0.00047239 Ry

     convergence has been achieved in   6 iterations

     Forces acting on atoms (cartesian axes, Ry/au):

     atom    1 type  1   force =     0.00000000    0.00000000    0.00000000

     Total force =     0.000000     Total SCF correction =     0.000000


     Computing stress (Cartesian axis) and pressure

          total   stress  (Ry/bohr**3)                   (kbar)     P=   43.22
   0.00029381  -0.00000000  -0.00000000         43.22     -0.00     -0.00
  -0.00000000   0.00029381   0.00000000         -0.00     43.22      0.00
  -0.00000000   0.00000000   0.00029381         -0.00      0.00     43.22


     Writing output data file Cu.save/

     init_run     :      0.20s CPU      0.21s WALL (       1 calls)
     electrons    :      0.60s CPU      0.64s WALL (       1 calls)
     forces       :      0.03s CPU      0.03s WALL (       1 calls)
     stress       :      0.08s CPU      0.08s WALL (       1 calls)

     Called by init_run:
     wfcinit      :      0.02s CPU      0.03s WALL (       1 calls)
     potinit      :      0.01s CPU      0.01s WALL (       1 calls)
     hinit0       :      0.16s CPU      0.16s WALL (       1 calls)

     Called by electrons:
     c_bands      :      0.40s CPU      0.43s WALL (       7 calls)
     sum_band     :      0.13s CPU      0.14s WALL (       7 calls)
     v_of_rho     :      0.03s CPU      0.03s WALL (       7 calls)
     newd         :      0.05s CPU      0.05s WALL (       7 calls)
     mix_rho      :      0.00s CPU      0.00s WALL (       7 calls)

     Called by c_bands:
     init_us_2    :      0.02s CPU      0.02s WALL (     136 calls)
     cegterg      :      0.38s CPU      0.41s WALL (      56 calls)

     Called by sum_band:
     sum_band:bec :      0.00s CPU      0.00s WALL (      56 calls)
     addusdens    :      0.04s CPU      0.05s WALL (       7 calls)

     Called by *egterg:
     h_psi        :      0.31s CPU      0.34s WALL (     188 calls)
     s_psi        :      0.01s CPU      0.01s WALL (     188 calls)
     g_psi        :      0.00s CPU      0.00s WALL (     124 calls)
     cdiaghg      :      0.03s CPU      0.03s WALL (     172 calls)

     Called by h_psi:
     h_psi:pot    :      0.31s CPU      0.34s WALL (     188 calls)
     h_psi:calbec :      0.01s CPU      0.02s WALL (     188 calls)
     vloc_psi     :      0.29s CPU      0.31s WALL (     188 calls)
     add_vuspsi   :      0.01s CPU      0.01s WALL (     188 calls)

     General routines
     calbec       :      0.02s CPU      0.03s WALL (     284 calls)
     fft          :      0.02s CPU      0.02s WALL (     104 calls)
     ffts         :      0.00s CPU      0.00s WALL (       7 calls)
     fftw         :      0.33s CPU      0.35s WALL (    3422 calls)

     Parallel routines
     fft_scatt_xy :      0.03s CPU      0.03s WALL (    3533 calls)
     fft_scatt_yz :      0.08s CPU      0.09s WALL (    3533 calls)

     PWSCF        :     1.61s CPU         1.70s WALL


   This run was terminated on:  23:36: 6  25Mar2024            

=------------------------------------------------------------------------------=
   JOB DONE.
=------------------------------------------------------------------------------=
