
     Program PWSCF v.6.3MaX starts on 25Mar2024 at 23:38:22 

     This program is part of the open-source Quantum ESPRESSO suite
     for quantum simulation of materials; please cite
         "P. Giannozzi et al., J. Phys.:Condens. Matter 21 395502 (2009);
         "P. Giannozzi et al., J. Phys.:Condens. Matter 29 465901 (2017);
          URL http://www.quantum-espresso.org", 
     in publications or presentations arising from this work. More details at
     http://www.quantum-espresso.org/quote

     Parallel version (MPI), running on     5 processors

     MPI processes distributed on     1 nodes
     R & G space division:  proc/nbgrp/npool/nimage =       5
     Waiting for input...
     Reading input from standard input

     Current dimensions of program PWSCF are:
     Max number of different atomic species (ntypx) = 10
     Max number of k-points (npk) =  40000
     Max angular momentum in pseudopotentials (lmaxx) =  3
               file Cu.pbe-dn-rrkjus_psl.1.0.0.UPF: wavefunction(s)  3D renormalized

     Subspace diagonalization in iterative solution of the eigenvalue problem:
     a serial algorithm will be used


     Parallelization info
     --------------------
     sticks:   dense  smooth     PW     G-vecs:    dense   smooth      PW
     Min         102     102     30                 1545     1545     248
     Max         103     103     31                 1546     1546     251
     Sum         511     511    151                 7727     7727    1243



     bravais-lattice index     =            2
     lattice parameter (alat)  =       6.8300  a.u.
     unit-cell volume          =      79.6530 (a.u.)^3
     number of atoms/cell      =            1
     number of atomic types    =            1
     number of electrons       =        11.00
     number of Kohn-Sham states=           10
     kinetic-energy cutoff     =      80.0000  Ry
     charge density cutoff     =     320.0000  Ry
     convergence threshold     =      1.0E-08
     mixing beta               =       0.7000
     number of iterations used =            8  plain     mixing
     Exchange-correlation      = PBE ( 1  4  3  4 0 0)

     celldm(1)=   6.830000  celldm(2)=   0.000000  celldm(3)=   0.000000
     celldm(4)=   0.000000  celldm(5)=   0.000000  celldm(6)=   0.000000

     crystal axes: (cart. coord. in units of alat)
               a(1) = (  -0.500000   0.000000   0.500000 )  
               a(2) = (   0.000000   0.500000   0.500000 )  
               a(3) = (  -0.500000   0.500000   0.000000 )  

     reciprocal axes: (cart. coord. in units 2 pi/alat)
               b(1) = ( -1.000000 -1.000000  1.000000 )  
               b(2) = (  1.000000  1.000000  1.000000 )  
               b(3) = ( -1.000000  1.000000 -1.000000 )  


     PseudoPot. # 1 for Cu read from file:
     /home/lorenzo/pseudos/Cu/Cu.pbe-dn-rrkjus_psl.1.0.0.UPF
     MD5 check sum: ba3d6c84e19846e79d48cdc68ff7152b
     Pseudo is Ultrasoft + core correction, Zval = 11.0
     Generated using "atomic" code by A. Dal Corso v.6.3
     Using radial grid of 1199 points,  6 beta functions with: 
                l(1) =   0
                l(2) =   0
                l(3) =   1
                l(4) =   1
                l(5) =   2
                l(6) =   2
     Q(r) pseudized with 0 coefficients 


     atomic species   valence    mass     pseudopotential
        Cu            11.00    63.54600     Cu( 1.00)

     48 Sym. Ops., with inversion, found



   Cartesian axes

     site n.     atom                  positions (alat units)
         1           Cu  tau(   1) = (   0.0000000   0.0000000   0.0000000  )

     number of k points=     3  gaussian smearing, width (Ry)=  0.0100
                       cart. coord. in units 2pi/alat
        k(    1) = (   0.0000000   0.0000000   0.0000000), wk =   0.2500000
        k(    2) = (   0.5000000  -0.5000000   0.5000000), wk =   1.0000000
        k(    3) = (   0.0000000  -1.0000000   0.0000000), wk =   0.7500000

     Dense  grid:     7727 G-vectors     FFT dimensions: (  27,  27,  27)

     Estimated max dynamical RAM per process >       7.42 MB

     Estimated total dynamical RAM >      37.08 MB

     Initial potential from superposition of free atoms

     starting charge   10.99977, renormalised to   11.00000
     Starting wfcs are    9 randomized atomic wfcs +    1 random wfcs

     total cpu time spent up to now is        0.9 secs

     Self-consistent Calculation

     iteration #  1     ecut=    80.00 Ry     beta= 0.70
     Davidson diagonalization with overlap
     ethr =  1.00E-02,  avg # of iterations =  3.3

     Threshold (ethr) on eigenvalues was too large:
     Diagonalizing with lowered threshold

     Davidson diagonalization with overlap
     ethr =  5.60E-04,  avg # of iterations =  1.0

     total cpu time spent up to now is        1.0 secs

     total energy              =    -122.56180538 Ry
     Harris-Foulkes estimate   =    -122.60774220 Ry
     estimated scf accuracy    <       0.06170794 Ry

     iteration #  2     ecut=    80.00 Ry     beta= 0.70
     Davidson diagonalization with overlap
     ethr =  5.61E-04,  avg # of iterations =  2.7

     total cpu time spent up to now is        1.1 secs

     total energy              =    -122.57101292 Ry
     Harris-Foulkes estimate   =    -122.66162904 Ry
     estimated scf accuracy    <       0.24325874 Ry

     iteration #  3     ecut=    80.00 Ry     beta= 0.70
     Davidson diagonalization with overlap
     ethr =  5.61E-04,  avg # of iterations =  2.0

     total cpu time spent up to now is        1.1 secs

     total energy              =    -122.59530214 Ry
     Harris-Foulkes estimate   =    -122.59914045 Ry
     estimated scf accuracy    <       0.01142920 Ry

     iteration #  4     ecut=    80.00 Ry     beta= 0.70
     Davidson diagonalization with overlap
     ethr =  1.04E-04,  avg # of iterations =  1.3

     total cpu time spent up to now is        1.2 secs

     total energy              =    -122.59531006 Ry
     Harris-Foulkes estimate   =    -122.59799888 Ry
     estimated scf accuracy    <       0.01292699 Ry

     iteration #  5     ecut=    80.00 Ry     beta= 0.70
     Davidson diagonalization with overlap
     ethr =  1.04E-04,  avg # of iterations =  2.0

     total cpu time spent up to now is        1.2 secs

     total energy              =    -122.59728493 Ry
     Harris-Foulkes estimate   =    -122.59781870 Ry
     estimated scf accuracy    <       0.00546879 Ry

     iteration #  6     ecut=    80.00 Ry     beta= 0.70
     Davidson diagonalization with overlap
     ethr =  4.97E-05,  avg # of iterations =  1.0

     total cpu time spent up to now is        1.2 secs

     total energy              =    -122.59718031 Ry
     Harris-Foulkes estimate   =    -122.59737590 Ry
     estimated scf accuracy    <       0.00169968 Ry

     iteration #  7     ecut=    80.00 Ry     beta= 0.70
     Davidson diagonalization with overlap
     ethr =  1.55E-05,  avg # of iterations =  1.0

     total cpu time spent up to now is        1.3 secs

     total energy              =    -122.59725928 Ry
     Harris-Foulkes estimate   =    -122.59726211 Ry
     estimated scf accuracy    <       0.00001283 Ry

     iteration #  8     ecut=    80.00 Ry     beta= 0.70
     Davidson diagonalization with overlap
     ethr =  1.17E-07,  avg # of iterations =  2.3

     total cpu time spent up to now is        1.3 secs

     total energy              =    -122.59726306 Ry
     Harris-Foulkes estimate   =    -122.59726304 Ry
     estimated scf accuracy    <       0.00001687 Ry

     iteration #  9     ecut=    80.00 Ry     beta= 0.70
     Davidson diagonalization with overlap
     ethr =  1.17E-07,  avg # of iterations =  1.0

     total cpu time spent up to now is        1.4 secs

     total energy              =    -122.59726679 Ry
     Harris-Foulkes estimate   =    -122.59726306 Ry
     estimated scf accuracy    <       0.00001717 Ry

     iteration # 10     ecut=    80.00 Ry     beta= 0.70
     Davidson diagonalization with overlap
     ethr =  1.17E-07,  avg # of iterations =  1.0

     total cpu time spent up to now is        1.4 secs

     total energy              =    -122.59725871 Ry
     Harris-Foulkes estimate   =    -122.59726980 Ry
     estimated scf accuracy    <       0.00014004 Ry

     iteration # 11     ecut=    80.00 Ry     beta= 0.70
     Davidson diagonalization with overlap
     ethr =  1.17E-07,  avg # of iterations =  1.0

     total cpu time spent up to now is        1.5 secs

     total energy              =    -122.59726219 Ry
     Harris-Foulkes estimate   =    -122.59726264 Ry
     estimated scf accuracy    <       0.00000967 Ry

     iteration # 12     ecut=    80.00 Ry     beta= 0.70
     Davidson diagonalization with overlap
     ethr =  8.79E-08,  avg # of iterations =  1.0

     total cpu time spent up to now is        1.5 secs

     total energy              =    -122.59726225 Ry
     Harris-Foulkes estimate   =    -122.59726228 Ry
     estimated scf accuracy    <       0.00000321 Ry

     iteration # 13     ecut=    80.00 Ry     beta= 0.70
     Davidson diagonalization with overlap
     ethr =  2.91E-08,  avg # of iterations =  1.0

     total cpu time spent up to now is        1.6 secs

     total energy              =    -122.59726192 Ry
     Harris-Foulkes estimate   =    -122.59726225 Ry
     estimated scf accuracy    <       0.00000256 Ry

     iteration # 14     ecut=    80.00 Ry     beta= 0.70
     Davidson diagonalization with overlap
     ethr =  2.33E-08,  avg # of iterations =  1.0

     total cpu time spent up to now is        1.6 secs

     total energy              =    -122.59726210 Ry
     Harris-Foulkes estimate   =    -122.59726211 Ry
     estimated scf accuracy    <       0.00000009 Ry

     iteration # 15     ecut=    80.00 Ry     beta= 0.70
     Davidson diagonalization with overlap
     ethr =  8.49E-10,  avg # of iterations =  1.0

     total cpu time spent up to now is        1.7 secs

     End of self-consistent calculation

          k = 0.0000 0.0000 0.0000 (   941 PWs)   bands (ev):

     3.2853   9.9824   9.9824   9.9824  10.8473  10.8473  35.5701  38.0289
    38.0289  38.0289

          k = 0.5000-0.5000 0.5000 (   960 PWs)   bands (ev):

     7.7761   9.9507   9.9507  11.4307  11.4307  11.6424  16.6138  33.9743
    34.8100  34.8100

          k = 0.0000-1.0000 0.0000 (   982 PWs)   bands (ev):

     8.0188   8.5234  11.4173  11.5752  11.5752  14.1555  19.9289  25.7982
    25.7982  30.3773

     the Fermi energy is    11.7332 ev

!    total energy              =    -122.59726210 Ry
     Harris-Foulkes estimate   =    -122.59726210 Ry
     estimated scf accuracy    <          9.8E-09 Ry

     The total energy is the sum of the following terms:

     one-electron contribution =     -27.51331652 Ry
     hartree contribution      =      30.83524494 Ry
     xc contribution           =     -44.69100726 Ry
     ewald contribution        =     -81.22522855 Ry
     smearing contrib. (-TS)   =      -0.00295471 Ry

     convergence has been achieved in  15 iterations

     Forces acting on atoms (cartesian axes, Ry/au):

     atom    1 type  1   force =     0.00000000    0.00000000    0.00000000

     Total force =     0.000000     Total SCF correction =     0.000000


     Computing stress (Cartesian axis) and pressure

          total   stress  (Ry/bohr**3)                   (kbar)     P=  273.34
   0.00185812  -0.00000000  -0.00000000        273.34     -0.00     -0.00
  -0.00000000   0.00185812   0.00000000         -0.00    273.34      0.00
  -0.00000000   0.00000000   0.00185812         -0.00      0.00    273.34


     Writing output data file Cu.save/

     init_run     :      0.20s CPU      0.20s WALL (       1 calls)
     electrons    :      0.78s CPU      0.81s WALL (       1 calls)
     forces       :      0.03s CPU      0.03s WALL (       1 calls)
     stress       :      0.08s CPU      0.08s WALL (       1 calls)

     Called by init_run:
     wfcinit      :      0.01s CPU      0.01s WALL (       1 calls)
     potinit      :      0.01s CPU      0.01s WALL (       1 calls)
     hinit0       :      0.17s CPU      0.17s WALL (       1 calls)

     Called by electrons:
     c_bands      :      0.36s CPU      0.37s WALL (      16 calls)
     sum_band     :      0.21s CPU      0.22s WALL (      16 calls)
     v_of_rho     :      0.07s CPU      0.07s WALL (      16 calls)
     newd         :      0.13s CPU      0.14s WALL (      16 calls)
     mix_rho      :      0.01s CPU      0.01s WALL (      16 calls)

     Called by c_bands:
     init_us_2    :      0.02s CPU      0.02s WALL (     105 calls)
     cegterg      :      0.34s CPU      0.35s WALL (      48 calls)

     Called by sum_band:
     sum_band:bec :      0.00s CPU      0.00s WALL (      48 calls)
     addusdens    :      0.12s CPU      0.12s WALL (      16 calls)

     Called by *egterg:
     h_psi        :      0.28s CPU      0.29s WALL (     122 calls)
     s_psi        :      0.01s CPU      0.01s WALL (     122 calls)
     g_psi        :      0.00s CPU      0.00s WALL (      71 calls)
     cdiaghg      :      0.02s CPU      0.02s WALL (     116 calls)

     Called by h_psi:
     h_psi:pot    :      0.28s CPU      0.28s WALL (     122 calls)
     h_psi:calbec :      0.02s CPU      0.02s WALL (     122 calls)
     vloc_psi     :      0.25s CPU      0.26s WALL (     122 calls)
     add_vuspsi   :      0.01s CPU      0.01s WALL (     122 calls)

     General routines
     calbec       :      0.02s CPU      0.02s WALL (     185 calls)
     fft          :      0.05s CPU      0.05s WALL (     203 calls)
     ffts         :      0.00s CPU      0.00s WALL (      16 calls)
     fftw         :      0.29s CPU      0.29s WALL (    2602 calls)

     Parallel routines
     fft_scatt_xy :      0.03s CPU      0.03s WALL (    2821 calls)
     fft_scatt_yz :      0.10s CPU      0.10s WALL (    2821 calls)

     PWSCF        :     1.77s CPU         1.83s WALL


   This run was terminated on:  23:38:24  25Mar2024            

=------------------------------------------------------------------------------=
   JOB DONE.
=------------------------------------------------------------------------------=
