
     Program PWSCF v.6.3MaX starts on 25Mar2024 at 23:11:55 

     This program is part of the open-source Quantum ESPRESSO suite
     for quantum simulation of materials; please cite
         "P. Giannozzi et al., J. Phys.:Condens. Matter 21 395502 (2009);
         "P. Giannozzi et al., J. Phys.:Condens. Matter 29 465901 (2017);
          URL http://www.quantum-espresso.org", 
     in publications or presentations arising from this work. More details at
     http://www.quantum-espresso.org/quote

     Parallel version (MPI), running on     5 processors

     MPI processes distributed on     1 nodes
     R & G space division:  proc/nbgrp/npool/nimage =       5
     Waiting for input...
     Reading input from standard input

     Current dimensions of program PWSCF are:
     Max number of different atomic species (ntypx) = 10
     Max number of k-points (npk) =  40000
     Max angular momentum in pseudopotentials (lmaxx) =  3
               file Cu.pbesol-dn-kjpaw_psl.1.0.0.UPF: wavefunction(s)  4S 3D renormalized

     Subspace diagonalization in iterative solution of the eigenvalue problem:
     a serial algorithm will be used


     Parallelization info
     --------------------
     sticks:   dense  smooth     PW     G-vecs:    dense   smooth      PW
     Min          18      18      7                  121      121      33
     Max          19      19      8                  123      123      35
     Sum          91      91     37                  609      609     169



     bravais-lattice index     =            2
     lattice parameter (alat)  =       6.8300  a.u.
     unit-cell volume          =      79.6530 (a.u.)^3
     number of atoms/cell      =            1
     number of atomic types    =            1
     number of electrons       =        11.00
     number of Kohn-Sham states=           10
     kinetic-energy cutoff     =      15.0000  Ry
     charge density cutoff     =      60.0000  Ry
     convergence threshold     =      1.0E-08
     mixing beta               =       0.7000
     number of iterations used =            8  plain     mixing
     Exchange-correlation      = SLA PW PSX PSC ( 1  4 10  8 0 0)

     celldm(1)=   6.830000  celldm(2)=   0.000000  celldm(3)=   0.000000
     celldm(4)=   0.000000  celldm(5)=   0.000000  celldm(6)=   0.000000

     crystal axes: (cart. coord. in units of alat)
               a(1) = (  -0.500000   0.000000   0.500000 )  
               a(2) = (   0.000000   0.500000   0.500000 )  
               a(3) = (  -0.500000   0.500000   0.000000 )  

     reciprocal axes: (cart. coord. in units 2 pi/alat)
               b(1) = ( -1.000000 -1.000000  1.000000 )  
               b(2) = (  1.000000  1.000000  1.000000 )  
               b(3) = ( -1.000000  1.000000 -1.000000 )  


     PseudoPot. # 1 for Cu read from file:
     /home/lorenzo/pseudos/Cu/Cu.pbesol-dn-kjpaw_psl.1.0.0.UPF
     MD5 check sum: 1e9735a74797514c934643dbd229f231
     Pseudo is Projector augmented-wave + core cor, Zval = 11.0
     Generated using "atomic" code by A. Dal Corso v.6.3
     Shape of augmentation charge: PSQ
     Using radial grid of 1199 points,  6 beta functions with: 
                l(1) =   0
                l(2) =   0
                l(3) =   1
                l(4) =   1
                l(5) =   2
                l(6) =   2
     Q(r) pseudized with 0 coefficients 


     atomic species   valence    mass     pseudopotential
        Cu            11.00    63.54600     Cu( 1.00)

     48 Sym. Ops., with inversion, found



   Cartesian axes

     site n.     atom                  positions (alat units)
         1           Cu  tau(   1) = (   0.0000000   0.0000000   0.0000000  )

     number of k points=    35  gaussian smearing, width (Ry)=  0.0100
                       cart. coord. in units 2pi/alat
        k(    1) = (   0.0000000   0.0000000   0.0000000), wk =   0.0027435
        k(    2) = (  -0.1111111   0.1111111  -0.1111111), wk =   0.0219479
        k(    3) = (  -0.2222222   0.2222222  -0.2222222), wk =   0.0219479
        k(    4) = (  -0.3333333   0.3333333  -0.3333333), wk =   0.0219479
        k(    5) = (  -0.4444444   0.4444444  -0.4444444), wk =   0.0219479
        k(    6) = (   0.0000000   0.2222222   0.0000000), wk =   0.0164609
        k(    7) = (  -0.1111111   0.3333333  -0.1111111), wk =   0.0658436
        k(    8) = (  -0.2222222   0.4444444  -0.2222222), wk =   0.0658436
        k(    9) = (  -0.3333333   0.5555556  -0.3333333), wk =   0.0658436
        k(   10) = (   0.5555556  -0.3333333   0.5555556), wk =   0.0658436
        k(   11) = (   0.4444444  -0.2222222   0.4444444), wk =   0.0658436
        k(   12) = (   0.3333333  -0.1111111   0.3333333), wk =   0.0658436
        k(   13) = (   0.2222222  -0.0000000   0.2222222), wk =   0.0329218
        k(   14) = (   0.0000000   0.4444444   0.0000000), wk =   0.0164609
        k(   15) = (  -0.1111111   0.5555556  -0.1111111), wk =   0.0658436
        k(   16) = (  -0.2222222   0.6666667  -0.2222222), wk =   0.0658436
        k(   17) = (   0.6666667  -0.2222222   0.6666667), wk =   0.0658436
        k(   18) = (   0.5555556  -0.1111111   0.5555556), wk =   0.0658436
        k(   19) = (   0.4444444   0.0000000   0.4444444), wk =   0.0329218
        k(   20) = (   0.0000000   0.6666667   0.0000000), wk =   0.0164609
        k(   21) = (  -0.1111111   0.7777778  -0.1111111), wk =   0.0658436
        k(   22) = (   0.7777778  -0.1111111   0.7777778), wk =   0.0658436
        k(   23) = (   0.6666667  -0.0000000   0.6666667), wk =   0.0329218
        k(   24) = (   0.0000000   0.8888889   0.0000000), wk =   0.0164609
        k(   25) = (   0.8888889   0.0000000   0.8888889), wk =   0.0329218
        k(   26) = (  -0.2222222   0.4444444   0.0000000), wk =   0.0658436
        k(   27) = (  -0.3333333   0.5555556  -0.1111111), wk =   0.1316872
        k(   28) = (   0.5555556  -0.3333333   0.7777778), wk =   0.1316872
        k(   29) = (  -0.2222222   0.6666667   0.0000000), wk =   0.0658436
        k(   30) = (   0.6666667  -0.2222222   0.8888889), wk =   0.1316872
        k(   31) = (   0.5555556  -0.1111111   0.7777778), wk =   0.1316872
        k(   32) = (   0.4444444   0.0000000   0.6666667), wk =   0.0658436
        k(   33) = (   0.7777778  -0.1111111   1.0000000), wk =   0.0658436
        k(   34) = (   0.6666667  -0.0000000   0.8888889), wk =   0.0658436
        k(   35) = (   0.5555556  -0.1111111   1.0000000), wk =   0.0658436

     Dense  grid:      609 G-vectors     FFT dimensions: (  12,  12,  12)

     Estimated max dynamical RAM per process >       1.22 MB

     Estimated total dynamical RAM >       6.11 MB

     Check: negative/imaginary core charge=   -0.001129    0.000000

     Initial potential from superposition of free atoms

     starting charge   10.99979, renormalised to   11.00000
     Starting wfcs are    9 randomized atomic wfcs +    1 random wfcs
     Checking if some PAW data can be deallocated... 

     total cpu time spent up to now is        1.0 secs

     Self-consistent Calculation

     iteration #  1     ecut=    15.00 Ry     beta= 0.70
     Davidson diagonalization with overlap
     ethr =  1.00E-02,  avg # of iterations =  3.7

     total cpu time spent up to now is        1.3 secs

     total energy              =    -205.42093865 Ry
     Harris-Foulkes estimate   =    -208.39829238 Ry
     estimated scf accuracy    <       3.64375689 Ry

     iteration #  2     ecut=    15.00 Ry     beta= 0.70
     Davidson diagonalization with overlap
     ethr =  1.00E-02,  avg # of iterations =  2.1

     total cpu time spent up to now is        1.5 secs

     total energy              =    -207.15274480 Ry
     Harris-Foulkes estimate   =    -208.03006228 Ry
     estimated scf accuracy    <       1.48068978 Ry

     iteration #  3     ecut=    15.00 Ry     beta= 0.70
     Davidson diagonalization with overlap
     ethr =  1.00E-02,  avg # of iterations =  1.7

     total cpu time spent up to now is        1.7 secs

     total energy              =    -207.23055520 Ry
     Harris-Foulkes estimate   =    -207.31117685 Ry
     estimated scf accuracy    <       0.11168196 Ry

     iteration #  4     ecut=    15.00 Ry     beta= 0.70
     Davidson diagonalization with overlap
     ethr =  1.02E-03,  avg # of iterations =  2.2

     total cpu time spent up to now is        1.9 secs

     total energy              =    -207.24893963 Ry
     Harris-Foulkes estimate   =    -207.31386440 Ry
     estimated scf accuracy    <       0.11701383 Ry

     iteration #  5     ecut=    15.00 Ry     beta= 0.70
     Davidson diagonalization with overlap
     ethr =  1.02E-03,  avg # of iterations =  1.8

     total cpu time spent up to now is        2.1 secs

     total energy              =    -207.27312601 Ry
     Harris-Foulkes estimate   =    -207.27304696 Ry
     estimated scf accuracy    <       0.00001951 Ry

     iteration #  6     ecut=    15.00 Ry     beta= 0.70
     Davidson diagonalization with overlap
     ethr =  1.77E-07,  avg # of iterations =  3.0

     total cpu time spent up to now is        2.3 secs

     total energy              =    -207.27307958 Ry
     Harris-Foulkes estimate   =    -207.27328456 Ry
     estimated scf accuracy    <       0.00033147 Ry

     iteration #  7     ecut=    15.00 Ry     beta= 0.70
     Davidson diagonalization with overlap
     ethr =  1.77E-07,  avg # of iterations =  2.3

     total cpu time spent up to now is        2.5 secs

     total energy              =    -207.27315512 Ry
     Harris-Foulkes estimate   =    -207.27315550 Ry
     estimated scf accuracy    <       0.00000059 Ry

     iteration #  8     ecut=    15.00 Ry     beta= 0.70
     Davidson diagonalization with overlap
     ethr =  5.38E-09,  avg # of iterations =  2.0

     total cpu time spent up to now is        2.7 secs

     total energy              =    -207.27315529 Ry
     Harris-Foulkes estimate   =    -207.27315531 Ry
     estimated scf accuracy    <       0.00000004 Ry

     iteration #  9     ecut=    15.00 Ry     beta= 0.70
     Davidson diagonalization with overlap
     ethr =  3.25E-10,  avg # of iterations =  2.0

     total cpu time spent up to now is        2.9 secs

     End of self-consistent calculation

          k = 0.0000 0.0000 0.0000 (    65 PWs)   bands (ev):

     3.4241   7.7548   7.7548   8.8110   8.8110   8.8110  36.7982  37.1335
    37.1335  37.1335

          k =-0.1111 0.1111-0.1111 (    68 PWs)   bands (ev):

     3.8539   7.2117   7.5443   7.5443   8.7411   8.7411  33.2484  36.9017
    36.9017  37.1183

          k =-0.2222 0.2222-0.2222 (    74 PWs)   bands (ev):

     4.8696   5.9700   5.9700   6.7829   8.1373   8.1373  27.1050  35.8558
    35.8558  36.9538

          k =-0.3333 0.3333-0.3333 (    74 PWs)   bands (ev):

     5.4157   6.0761   6.0761   7.8557   7.8557   8.4097  21.5713  34.6467
    34.6467  35.8979

          k =-0.4444 0.4444-0.4444 (    76 PWs)   bands (ev):

     5.0913   5.7049   5.7049   7.6953   7.6953  11.0510  16.9036  33.8297
    33.8297  35.0837

          k = 0.0000 0.2222 0.0000 (    72 PWs)   bands (ev):

     4.0005   6.6108   6.6108   6.8958   8.0661   8.4690  34.7201  34.7201
    35.8560  36.6720

          k =-0.1111 0.3333-0.1111 (    73 PWs)   bands (ev):

     4.8115   6.4254   6.6174   7.1000   7.2309   8.5275  29.4043  33.0383
    35.6692  37.8926

          k =-0.2222 0.4444-0.2222 (    78 PWs)   bands (ev):

     5.1806   5.4966   5.8357   6.8067   7.0507   8.0198  23.4344  31.9297
    34.2264  35.3602

          k =-0.3333 0.5556-0.3333 (    79 PWs)   bands (ev):

     4.6405   5.6402   6.0502   6.4688   6.9672  10.5367  18.3273  31.7987
    31.9625  34.7127

          k = 0.5556-0.3333 0.5556 (    80 PWs)   bands (ev):

     4.5931   5.4976   5.6869   6.1921   6.9279  12.4126  15.9058  30.4459
    32.6622  34.8152

          k = 0.4444-0.2222 0.4444 (    76 PWs)   bands (ev):

     5.3153   5.9500   6.0408   7.1180   7.5231   9.7819  20.1353  29.9788
    34.6233  35.7636

          k = 0.3333-0.1111 0.3333 (    75 PWs)   bands (ev):

     5.2185   5.8756   6.2088   7.2622   7.6778   7.8877  25.4943  30.3037
    37.1480  37.6070

          k = 0.2222-0.0000 0.2222 (    71 PWs)   bands (ev):

     4.4841   6.3829   6.6409   7.8056   8.0937   8.6481  31.2537  31.7326
    38.3629  38.5163

          k = 0.0000 0.4444 0.0000 (    76 PWs)   bands (ev):

     5.1835   5.8885   5.8885   6.8922   7.0796   7.5753  30.6248  30.6248
    33.6537  34.7342

          k =-0.1111 0.5556-0.1111 (    79 PWs)   bands (ev):

     5.2334   5.4558   5.4856   6.1685   6.9716   8.3986  26.0578  29.2289
    30.4957  34.7298

          k =-0.2222 0.6667-0.2222 (    78 PWs)   bands (ev):

     4.7491   5.7740   6.0372   6.9901   7.1123  10.8880  20.9363  27.7744
    28.9911  34.5679

          k = 0.6667-0.2222 0.6667 (    79 PWs)   bands (ev):

     4.8879   5.8653   5.9530   6.4924   6.7334  14.2728  16.6356  25.7253
    29.9059  34.6612

          k = 0.5556-0.1111 0.5556 (    81 PWs)   bands (ev):

     4.5373   5.1046   5.5815   6.5670   6.5948  12.0273  19.1513  24.6346
    31.8721  35.1505

          k = 0.4444 0.0000 0.4444 (    79 PWs)   bands (ev):

     5.3498   5.3942   5.6974   5.9953   7.1573   9.2718  24.2936  24.7926
    34.7257  36.5128

          k = 0.0000 0.6667 0.0000 (    76 PWs)   bands (ev):

     5.3226   6.2791   6.2791   7.1226   7.1814   9.5924  26.8377  27.4449
    27.4449  33.6239

          k =-0.1111 0.7778-0.1111 (    80 PWs)   bands (ev):

     4.9610   5.3060   5.7087   6.5374   6.6170  11.7456  23.5278  24.2087
    26.7725  34.2425

          k = 0.7778-0.1111 0.7778 (    76 PWs)   bands (ev):

     5.8635   6.3794   6.5005   6.8129   7.0103  15.1480  19.6894  21.9030
    27.4214  34.7301

          k = 0.6667-0.0000 0.6667 (    81 PWs)   bands (ev):

     5.1249   5.4262   5.6659   5.6767   6.6549  15.3927  18.4258  21.1324
    29.1358  34.8309

          k = 0.0000 0.8889 0.0000 (    84 PWs)   bands (ev):

     4.6527   4.9918   5.0319   5.0319   6.4703  13.1957  20.8156  25.6314
    25.6314  33.2443

          k = 0.8889 0.0000 0.8889 (    77 PWs)   bands (ev):

     5.8589   5.9089   6.4310   6.6698   7.3264  14.8102  20.1943  23.2815
    25.8896  34.6044

          k =-0.2222 0.4444 0.0000 (    76 PWs)   bands (ev):

     5.3639   5.5769   6.1064   7.1912   7.2780   7.9415  27.7952  28.0067
    34.4426  37.6432

          k =-0.3333 0.5556-0.1111 (    78 PWs)   bands (ev):

     5.3117   5.4704   5.9464   6.5112   7.2242   9.7763  22.3515  27.2916
    31.4331  37.0649

          k = 0.5556-0.3333 0.7778 (    79 PWs)   bands (ev):

     5.0913   5.3426   6.0543   6.2688   7.1309  12.7025  17.6175  27.5755
    29.2699  36.3298

          k =-0.2222 0.6667 0.0000 (    78 PWs)   bands (ev):

     5.3412   5.6659   5.8370   6.6907   7.0767  10.3463  25.0703  25.2503
    27.4177  36.6484

          k = 0.6667-0.2222 0.8889 (    82 PWs)   bands (ev):

     4.7166   5.0024   5.3359   5.9753   6.7197  13.1137  20.2703  24.4628
    25.5383  36.9509

          k = 0.5556-0.1111 0.7778 (    79 PWs)   bands (ev):

     5.3114   5.8283   5.9872   6.3297   6.7474  15.8717  17.5134  23.0108
    26.7039  37.3309

          k = 0.4444 0.0000 0.6667 (    80 PWs)   bands (ev):

     5.0006   5.0559   5.7787   6.6782   6.8279  12.2564  21.4419  22.6143
    28.6875  37.9633

          k = 0.7778-0.1111 1.0000 (    82 PWs)   bands (ev):

     4.5166   5.2042   5.6574   6.2154   6.2744  14.0603  21.1770  23.6139
    23.8740  36.2854

          k = 0.6667-0.0000 0.8889 (    78 PWs)   bands (ev):

     5.1425   6.2185   6.3982   6.5501   6.9610  16.8073  19.7237  20.2767
    24.7771  37.0411

          k = 0.5556-0.1111 1.0000 (    80 PWs)   bands (ev):

     4.9006   6.0042   6.0053   6.2639   6.4022  16.5961  20.1089  21.2330
    22.8357  40.5262

     the Fermi energy is    11.9082 ev

!    total energy              =    -207.27315530 Ry
     Harris-Foulkes estimate   =    -207.27315530 Ry
     estimated scf accuracy    <          2.6E-10 Ry

     total all-electron energy =     -3304.152216 Ry

     The total energy is the sum of the following terms:

     one-electron contribution =     -21.00495329 Ry
     hartree contribution      =      24.73789406 Ry
     xc contribution           =     -42.36267980 Ry
     ewald contribution        =     -81.22523186 Ry
     one-center paw contrib.   =     -87.41805330 Ry
     smearing contrib. (-TS)   =      -0.00013110 Ry

     convergence has been achieved in   9 iterations

     Forces acting on atoms (cartesian axes, Ry/au):

     atom    1 type  1   force =     0.00000000    0.00000000    0.00000000

     Total force =     0.000000     Total SCF correction =     0.000000


     Computing stress (Cartesian axis) and pressure

          total   stress  (Ry/bohr**3)                   (kbar)     P=********
  -0.11922368   0.00000000  -0.00000000     -17538.41      0.00     -0.00
   0.00000000  -0.11922368   0.00000000          0.00 -17538.41      0.00
  -0.00000000   0.00000000  -0.11922368         -0.00      0.00 -17538.41


     Writing output data file Cu.save/

     init_run     :      0.21s CPU      0.23s WALL (       1 calls)
     electrons    :      1.56s CPU      1.82s WALL (       1 calls)
     forces       :      0.01s CPU      0.01s WALL (       1 calls)
     stress       :      0.02s CPU      0.02s WALL (       1 calls)

     Called by init_run:
     wfcinit      :      0.02s CPU      0.03s WALL (       1 calls)
     potinit      :      0.11s CPU      0.13s WALL (       1 calls)
     hinit0       :      0.06s CPU      0.06s WALL (       1 calls)

     Called by electrons:
     c_bands      :      0.64s CPU      0.75s WALL (       9 calls)
     sum_band     :      0.07s CPU      0.10s WALL (       9 calls)
     v_of_rho     :      0.00s CPU      0.01s WALL (      10 calls)
     newd         :      0.01s CPU      0.01s WALL (      10 calls)
     PAW_pot      :      0.95s CPU      1.06s WALL (      10 calls)
     mix_rho      :      0.00s CPU      0.00s WALL (       9 calls)

     Called by c_bands:
     init_us_2    :      0.01s CPU      0.01s WALL (     735 calls)
     cegterg      :      0.62s CPU      0.73s WALL (     315 calls)

     Called by sum_band:
     sum_band:bec :      0.00s CPU      0.00s WALL (     315 calls)
     addusdens    :      0.01s CPU      0.01s WALL (       9 calls)

     Called by *egterg:
     h_psi        :      0.36s CPU      0.43s WALL (    1084 calls)
     s_psi        :      0.01s CPU      0.01s WALL (    1084 calls)
     g_psi        :      0.00s CPU      0.00s WALL (     734 calls)
     cdiaghg      :      0.18s CPU      0.21s WALL (    1049 calls)

     Called by h_psi:
     h_psi:pot    :      0.35s CPU      0.42s WALL (    1084 calls)
     h_psi:calbec :      0.02s CPU      0.03s WALL (    1084 calls)
     vloc_psi     :      0.31s CPU      0.37s WALL (    1084 calls)
     add_vuspsi   :      0.01s CPU      0.01s WALL (    1084 calls)

     General routines
     calbec       :      0.03s CPU      0.03s WALL (    1574 calls)
     fft          :      0.00s CPU      0.00s WALL (     136 calls)
     ffts         :      0.00s CPU      0.00s WALL (       9 calls)
     fftw         :      0.32s CPU      0.39s WALL (   20042 calls)

     Parallel routines
     fft_scatt_xy :      0.04s CPU      0.05s WALL (   20187 calls)
     fft_scatt_yz :      0.14s CPU      0.18s WALL (   20187 calls)

     PWSCF        :     2.63s CPU         2.96s WALL


   This run was terminated on:  23:11:58  25Mar2024            

=------------------------------------------------------------------------------=
   JOB DONE.
=------------------------------------------------------------------------------=
