
     Program PWSCF v.6.3MaX starts on 25Mar2024 at 23:32:10 

     This program is part of the open-source Quantum ESPRESSO suite
     for quantum simulation of materials; please cite
         "P. Giannozzi et al., J. Phys.:Condens. Matter 21 395502 (2009);
         "P. Giannozzi et al., J. Phys.:Condens. Matter 29 465901 (2017);
          URL http://www.quantum-espresso.org", 
     in publications or presentations arising from this work. More details at
     http://www.quantum-espresso.org/quote

     Parallel version (MPI), running on     5 processors

     MPI processes distributed on     1 nodes
     R & G space division:  proc/nbgrp/npool/nimage =       5
     Waiting for input...
     Reading input from standard input

     Current dimensions of program PWSCF are:
     Max number of different atomic species (ntypx) = 10
     Max number of k-points (npk) =  40000
     Max angular momentum in pseudopotentials (lmaxx) =  3
               file Cu.pbesol-dn-kjpaw_psl.1.0.0.UPF: wavefunction(s)  4S 3D renormalized

     Subspace diagonalization in iterative solution of the eigenvalue problem:
     a serial algorithm will be used


     Parallelization info
     --------------------
     sticks:   dense  smooth     PW     G-vecs:    dense   smooth      PW
     Min          84      84     27                 1134     1134     213
     Max          85      85     28                 1137     1137     214
     Sum         421     421    139                 5673     5673    1067



     bravais-lattice index     =            2
     lattice parameter (alat)  =       6.8300  a.u.
     unit-cell volume          =      79.6530 (a.u.)^3
     number of atoms/cell      =            1
     number of atomic types    =            1
     number of electrons       =        11.00
     number of Kohn-Sham states=           10
     kinetic-energy cutoff     =      65.0000  Ry
     charge density cutoff     =     260.0000  Ry
     convergence threshold     =      1.0E-08
     mixing beta               =       0.7000
     number of iterations used =            8  plain     mixing
     Exchange-correlation      = SLA PW PSX PSC ( 1  4 10  8 0 0)

     celldm(1)=   6.830000  celldm(2)=   0.000000  celldm(3)=   0.000000
     celldm(4)=   0.000000  celldm(5)=   0.000000  celldm(6)=   0.000000

     crystal axes: (cart. coord. in units of alat)
               a(1) = (  -0.500000   0.000000   0.500000 )  
               a(2) = (   0.000000   0.500000   0.500000 )  
               a(3) = (  -0.500000   0.500000   0.000000 )  

     reciprocal axes: (cart. coord. in units 2 pi/alat)
               b(1) = ( -1.000000 -1.000000  1.000000 )  
               b(2) = (  1.000000  1.000000  1.000000 )  
               b(3) = ( -1.000000  1.000000 -1.000000 )  


     PseudoPot. # 1 for Cu read from file:
     /home/lorenzo/pseudos/Cu/Cu.pbesol-dn-kjpaw_psl.1.0.0.UPF
     MD5 check sum: 1e9735a74797514c934643dbd229f231
     Pseudo is Projector augmented-wave + core cor, Zval = 11.0
     Generated using "atomic" code by A. Dal Corso v.6.3
     Shape of augmentation charge: PSQ
     Using radial grid of 1199 points,  6 beta functions with: 
                l(1) =   0
                l(2) =   0
                l(3) =   1
                l(4) =   1
                l(5) =   2
                l(6) =   2
     Q(r) pseudized with 0 coefficients 


     atomic species   valence    mass     pseudopotential
        Cu            11.00    63.54600     Cu( 1.00)

     48 Sym. Ops., with inversion, found



   Cartesian axes

     site n.     atom                  positions (alat units)
         1           Cu  tau(   1) = (   0.0000000   0.0000000   0.0000000  )

     number of k points=    35  gaussian smearing, width (Ry)=  0.0100
                       cart. coord. in units 2pi/alat
        k(    1) = (   0.0000000   0.0000000   0.0000000), wk =   0.0027435
        k(    2) = (  -0.1111111   0.1111111  -0.1111111), wk =   0.0219479
        k(    3) = (  -0.2222222   0.2222222  -0.2222222), wk =   0.0219479
        k(    4) = (  -0.3333333   0.3333333  -0.3333333), wk =   0.0219479
        k(    5) = (  -0.4444444   0.4444444  -0.4444444), wk =   0.0219479
        k(    6) = (   0.0000000   0.2222222   0.0000000), wk =   0.0164609
        k(    7) = (  -0.1111111   0.3333333  -0.1111111), wk =   0.0658436
        k(    8) = (  -0.2222222   0.4444444  -0.2222222), wk =   0.0658436
        k(    9) = (  -0.3333333   0.5555556  -0.3333333), wk =   0.0658436
        k(   10) = (   0.5555556  -0.3333333   0.5555556), wk =   0.0658436
        k(   11) = (   0.4444444  -0.2222222   0.4444444), wk =   0.0658436
        k(   12) = (   0.3333333  -0.1111111   0.3333333), wk =   0.0658436
        k(   13) = (   0.2222222  -0.0000000   0.2222222), wk =   0.0329218
        k(   14) = (   0.0000000   0.4444444   0.0000000), wk =   0.0164609
        k(   15) = (  -0.1111111   0.5555556  -0.1111111), wk =   0.0658436
        k(   16) = (  -0.2222222   0.6666667  -0.2222222), wk =   0.0658436
        k(   17) = (   0.6666667  -0.2222222   0.6666667), wk =   0.0658436
        k(   18) = (   0.5555556  -0.1111111   0.5555556), wk =   0.0658436
        k(   19) = (   0.4444444   0.0000000   0.4444444), wk =   0.0329218
        k(   20) = (   0.0000000   0.6666667   0.0000000), wk =   0.0164609
        k(   21) = (  -0.1111111   0.7777778  -0.1111111), wk =   0.0658436
        k(   22) = (   0.7777778  -0.1111111   0.7777778), wk =   0.0658436
        k(   23) = (   0.6666667  -0.0000000   0.6666667), wk =   0.0329218
        k(   24) = (   0.0000000   0.8888889   0.0000000), wk =   0.0164609
        k(   25) = (   0.8888889   0.0000000   0.8888889), wk =   0.0329218
        k(   26) = (  -0.2222222   0.4444444   0.0000000), wk =   0.0658436
        k(   27) = (  -0.3333333   0.5555556  -0.1111111), wk =   0.1316872
        k(   28) = (   0.5555556  -0.3333333   0.7777778), wk =   0.1316872
        k(   29) = (  -0.2222222   0.6666667   0.0000000), wk =   0.0658436
        k(   30) = (   0.6666667  -0.2222222   0.8888889), wk =   0.1316872
        k(   31) = (   0.5555556  -0.1111111   0.7777778), wk =   0.1316872
        k(   32) = (   0.4444444   0.0000000   0.6666667), wk =   0.0658436
        k(   33) = (   0.7777778  -0.1111111   1.0000000), wk =   0.0658436
        k(   34) = (   0.6666667  -0.0000000   0.8888889), wk =   0.0658436
        k(   35) = (   0.5555556  -0.1111111   1.0000000), wk =   0.0658436

     Dense  grid:     5673 G-vectors     FFT dimensions: (  25,  25,  25)

     Estimated max dynamical RAM per process >       6.39 MB

     Estimated total dynamical RAM >      31.97 MB

     Initial potential from superposition of free atoms

     starting charge   10.99979, renormalised to   11.00000
     Starting wfcs are    9 randomized atomic wfcs +    1 random wfcs
     Checking if some PAW data can be deallocated... 

     total cpu time spent up to now is        1.2 secs

     Self-consistent Calculation

     iteration #  1     ecut=    65.00 Ry     beta= 0.70
     Davidson diagonalization with overlap
     ethr =  1.00E-02,  avg # of iterations =  3.7

     Threshold (ethr) on eigenvalues was too large:
     Diagonalizing with lowered threshold

     Davidson diagonalization with overlap
     ethr =  6.68E-04,  avg # of iterations =  1.1

     total cpu time spent up to now is        1.8 secs

     total energy              =    -210.37757788 Ry
     Harris-Foulkes estimate   =    -210.43607203 Ry
     estimated scf accuracy    <       0.07316191 Ry

     iteration #  2     ecut=    65.00 Ry     beta= 0.70
     Davidson diagonalization with overlap
     ethr =  6.65E-04,  avg # of iterations =  2.1

     total cpu time spent up to now is        2.4 secs

     total energy              =    -210.38044080 Ry
     Harris-Foulkes estimate   =    -210.48249848 Ry
     estimated scf accuracy    <       0.26440353 Ry

     iteration #  3     ecut=    65.00 Ry     beta= 0.70
     Davidson diagonalization with overlap
     ethr =  6.65E-04,  avg # of iterations =  2.0

     total cpu time spent up to now is        2.8 secs

     total energy              =    -210.42156018 Ry
     Harris-Foulkes estimate   =    -210.42164258 Ry
     estimated scf accuracy    <       0.00016781 Ry

     iteration #  4     ecut=    65.00 Ry     beta= 0.70
     Davidson diagonalization with overlap
     ethr =  1.53E-06,  avg # of iterations =  2.5

     total cpu time spent up to now is        3.2 secs

     total energy              =    -210.42164117 Ry
     Harris-Foulkes estimate   =    -210.42165118 Ry
     estimated scf accuracy    <       0.00002775 Ry

     iteration #  5     ecut=    65.00 Ry     beta= 0.70
     Davidson diagonalization with overlap
     ethr =  2.52E-07,  avg # of iterations =  1.1

     total cpu time spent up to now is        3.6 secs

     total energy              =    -210.42164585 Ry
     Harris-Foulkes estimate   =    -210.42164591 Ry
     estimated scf accuracy    <       0.00000017 Ry

     iteration #  6     ecut=    65.00 Ry     beta= 0.70
     Davidson diagonalization with overlap
     ethr =  1.55E-09,  avg # of iterations =  2.8

     total cpu time spent up to now is        4.0 secs

     End of self-consistent calculation

          k = 0.0000 0.0000 0.0000 (   725 PWs)   bands (ev):

     3.0439   9.4807   9.4807   9.4807  10.3221  10.3221  35.3799  37.7510
    37.7510  37.7510

          k =-0.1111 0.1111-0.1111 (   706 PWs)   bands (ev):

     3.4901   9.3898   9.5591   9.5591  10.2958  10.2958  32.0243  35.9709
    36.6515  36.6515

          k =-0.2222 0.2222-0.2222 (   703 PWs)   bands (ev):

     4.7556   9.2287   9.6482   9.6482  10.3511  10.3511  26.2658  35.3738
    35.4533  35.4533

          k =-0.3333 0.3333-0.3333 (   697 PWs)   bands (ev):

     6.4269   9.4477   9.5646   9.5646  10.6233  10.6233  21.0560  34.4940
    34.7669  34.7669

          k =-0.4444 0.4444-0.4444 (   709 PWs)   bands (ev):

     7.3066   9.4645   9.4645  10.8616  10.8616  10.8998  17.0145  33.8723
    34.5269  34.5269

          k = 0.0000 0.2222 0.0000 (   697 PWs)   bands (ev):

     3.6377   9.3066   9.6233   9.6233  10.1673  10.3862  33.7561  34.2147
    34.2147  35.8882

          k =-0.1111 0.3333-0.1111 (   696 PWs)   bands (ev):

     4.6299   9.1179   9.7131   9.7621  10.1401  10.4721  28.4478  32.5262
    33.6953  36.7229

          k =-0.2222 0.4444-0.2222 (   706 PWs)   bands (ev):

     6.2145   9.0499   9.5333   9.7483  10.6067  10.6937  23.0083  31.6542
    32.8244  34.4375

          k =-0.3333 0.5556-0.3333 (   706 PWs)   bands (ev):

     7.4103   9.3119   9.6264   9.6401  10.8903  11.6521  18.3933  31.2924
    31.6911  33.4181

          k = 0.5556-0.3333 0.5556 (   705 PWs)   bands (ev):

     7.6116   9.2975   9.5862   9.9971  10.8498  12.6671  16.4418  29.8957
    32.7262  33.6744

          k = 0.4444-0.2222 0.4444 (   705 PWs)   bands (ev):

     7.1547   9.4093   9.4216   9.6445  10.5590  11.4019  19.8136  29.2921
    34.7594  34.7863

          k = 0.3333-0.1111 0.3333 (   714 PWs)   bands (ev):

     5.6615   9.0902   9.5932   9.7701  10.1926  10.7661  24.7631  29.5203
    36.6875  37.6797

          k = 0.2222-0.0000 0.2222 (   698 PWs)   bands (ev):

     4.2122   9.2379   9.6507   9.6849  10.1467  10.4316  30.0852  30.8294
    37.7370  39.3809

          k = 0.0000 0.4444 0.0000 (   697 PWs)   bands (ev):

     5.2944   8.8760   9.8699  10.0224  10.0224  10.5500  30.3670  30.3670
    31.8526  32.2796

          k =-0.1111 0.5556-0.1111 (   704 PWs)   bands (ev):

     6.5474   8.6768   9.6314  10.1434  10.6446  10.7283  25.5938  29.1026
    29.5470  32.3499

          k =-0.2222 0.6667-0.2222 (   704 PWs)   bands (ev):

     7.7160   8.6847   9.4381  10.0613  10.9196  12.1125  20.6601  27.0427
    28.8682  32.2485

          k = 0.6667-0.2222 0.6667 (   704 PWs)   bands (ev):

     8.1260   8.8279   9.4544   9.9611  10.8659  14.4941  16.9018  25.2298
    29.7396  32.5546

          k = 0.5556-0.1111 0.5556 (   702 PWs)   bands (ev):

     8.0627   9.0258   9.2008   9.9322  10.5575  13.0904  19.2276  24.2564
    31.6483  33.4887

          k = 0.4444 0.0000 0.4444 (   704 PWs)   bands (ev):

     7.0830   8.9507   9.3473   9.9705  10.1784  11.5549  23.5796  24.5262
    34.4046  35.1233

          k = 0.0000 0.6667 0.0000 (   717 PWs)   bands (ev):

     7.1491   8.4036  10.3873  10.5602  10.5602  10.7390  26.1097  27.4062
    27.4062  30.6596

          k =-0.1111 0.7778-0.1111 (   703 PWs)   bands (ev):

     7.6700   8.2942  10.2124  10.5702  10.9344  12.3374  23.3442  23.6767
    26.7862  31.3296

          k = 0.7778-0.1111 0.7778 (   707 PWs)   bands (ev):

     8.0830   8.3905   9.8117  10.4421  10.9148  15.1900  19.3197  21.4644
    27.3703  31.6843

          k = 0.6667-0.0000 0.6667 (   702 PWs)   bands (ev):

     8.4329   8.6013   9.3381  10.2491  10.6932  15.7012  18.3697  20.9377
    29.0721  32.3441

          k = 0.0000 0.8889 0.0000 (   708 PWs)   bands (ev):

     7.5885   8.1047  10.8639  10.9770  10.9770  13.0642  20.7147  25.7423
    25.7423  30.1088

          k = 0.8889 0.0000 0.8889 (   712 PWs)   bands (ev):

     7.7331   8.1463  10.6009  10.7791  10.9994  14.6512  19.6827  22.9182
    25.9507  31.0374

          k =-0.2222 0.4444 0.0000 (   703 PWs)   bands (ev):

     5.7980   8.9170   9.5741  10.0335  10.1446  10.7830  26.8989  27.5355
    33.3318  36.1734

          k =-0.3333 0.5556-0.1111 (   704 PWs)   bands (ev):

     7.2750   8.8852   9.3089   9.9845  10.5270  11.5709  21.9639  26.7770
    30.5864  36.2350

          k = 0.5556-0.3333 0.7778 (   707 PWs)   bands (ev):

     7.9717   8.9993   9.4068   9.8713  10.8123  13.3548  17.6602  27.1518
    28.5087  35.7937

          k =-0.2222 0.6667 0.0000 (   706 PWs)   bands (ev):

     7.5224   8.5242   9.5419  10.5415  10.5576  11.6995  24.4754  25.1318
    26.6338  34.4066

          k = 0.6667-0.2222 0.8889 (   708 PWs)   bands (ev):

     8.1639   8.5708   9.3627  10.3420  10.8580  13.8565  20.1093  24.2560
    25.0356  35.1911

          k = 0.5556-0.1111 0.7778 (   706 PWs)   bands (ev):

     8.5128   8.5979   9.2073  10.1886  10.8255  15.9078  17.4992  22.7406
    26.0947  35.8931

          k = 0.4444 0.0000 0.6667 (   696 PWs)   bands (ev):

     8.2733   8.8724   8.9389  10.2003  10.5727  13.2599  21.0753  22.5282
    27.9980  37.1945

          k = 0.7778-0.1111 1.0000 (   707 PWs)   bands (ev):

     7.8650   8.2697  10.1170  10.6881  10.9763  14.3162  21.0567  23.0857
    23.8556  33.5369

          k = 0.6667-0.0000 0.8889 (   713 PWs)   bands (ev):

     8.1699   8.4599   9.6353  10.4475  10.9735  16.7059  19.3397  20.2734
    24.3909  34.8358

          k = 0.5556-0.1111 1.0000 (   708 PWs)   bands (ev):

     8.3588   8.7791   9.0962  10.3096  10.9742  16.5679  19.6358  21.5143
    22.2783  39.3309

     the Fermi energy is    12.5339 ev

!    total energy              =    -210.42164591 Ry
     Harris-Foulkes estimate   =    -210.42164591 Ry
     estimated scf accuracy    <          4.6E-10 Ry

     total all-electron energy =     -3307.300707 Ry

     The total energy is the sum of the following terms:

     one-electron contribution =     -28.01855938 Ry
     hartree contribution      =      30.53580589 Ry
     xc contribution           =     -44.11294226 Ry
     ewald contribution        =     -81.22522855 Ry
     one-center paw contrib.   =     -87.60062731 Ry
     smearing contrib. (-TS)   =      -0.00009431 Ry

     convergence has been achieved in   6 iterations

     Forces acting on atoms (cartesian axes, Ry/au):

     atom    1 type  1   force =     0.00000000    0.00000000    0.00000000

     Total force =     0.000000     Total SCF correction =     0.000000


     Computing stress (Cartesian axis) and pressure

          total   stress  (Ry/bohr**3)                   (kbar)     P=  -62.60
  -0.00042557  -0.00000000   0.00000000        -62.60     -0.00      0.00
  -0.00000000  -0.00042557   0.00000000         -0.00    -62.60      0.00
   0.00000000   0.00000000  -0.00042557          0.00      0.00    -62.60


     Writing output data file Cu.save/

     init_run     :      0.34s CPU      0.36s WALL (       1 calls)
     electrons    :      2.69s CPU      2.90s WALL (       1 calls)
     forces       :      0.05s CPU      0.05s WALL (       1 calls)
     stress       :      0.13s CPU      0.13s WALL (       1 calls)

     Called by init_run:
     wfcinit      :      0.08s CPU      0.08s WALL (       1 calls)
     potinit      :      0.10s CPU      0.11s WALL (       1 calls)
     hinit0       :      0.15s CPU      0.15s WALL (       1 calls)

     Called by electrons:
     c_bands      :      1.72s CPU      1.82s WALL (       7 calls)
     sum_band     :      0.37s CPU      0.39s WALL (       7 calls)
     v_of_rho     :      0.02s CPU      0.02s WALL (       7 calls)
     newd         :      0.04s CPU      0.05s WALL (       7 calls)
     PAW_pot      :      0.64s CPU      0.73s WALL (       7 calls)
     mix_rho      :      0.00s CPU      0.00s WALL (       7 calls)

     Called by c_bands:
     init_us_2    :      0.06s CPU      0.06s WALL (     595 calls)
     cegterg      :      1.64s CPU      1.74s WALL (     245 calls)

     Called by sum_band:
     sum_band:bec :      0.00s CPU      0.00s WALL (     245 calls)
     addusdens    :      0.04s CPU      0.04s WALL (       7 calls)

     Called by *egterg:
     h_psi        :      1.29s CPU      1.37s WALL (     815 calls)
     s_psi        :      0.04s CPU      0.04s WALL (     815 calls)
     g_psi        :      0.00s CPU      0.00s WALL (     535 calls)
     cdiaghg      :      0.16s CPU      0.17s WALL (     745 calls)

     Called by h_psi:
     h_psi:pot    :      1.29s CPU      1.37s WALL (     815 calls)
     h_psi:calbec :      0.07s CPU      0.07s WALL (     815 calls)
     vloc_psi     :      1.17s CPU      1.25s WALL (     815 calls)
     add_vuspsi   :      0.04s CPU      0.05s WALL (     815 calls)

     General routines
     calbec       :      0.11s CPU      0.11s WALL (    1235 calls)
     fft          :      0.02s CPU      0.02s WALL (     104 calls)
     ffts         :      0.00s CPU      0.00s WALL (       7 calls)
     fftw         :      1.34s CPU      1.42s WALL (   15058 calls)

     Parallel routines
     fft_scatt_xy :      0.11s CPU      0.12s WALL (   15169 calls)
     fft_scatt_yz :      0.34s CPU      0.36s WALL (   15169 calls)

     PWSCF        :     4.02s CPU         4.31s WALL


   This run was terminated on:  23:32:14  25Mar2024            

=------------------------------------------------------------------------------=
   JOB DONE.
=------------------------------------------------------------------------------=
