
     Program PWSCF v.6.3MaX starts on 25Mar2024 at 23:20:25 

     This program is part of the open-source Quantum ESPRESSO suite
     for quantum simulation of materials; please cite
         "P. Giannozzi et al., J. Phys.:Condens. Matter 21 395502 (2009);
         "P. Giannozzi et al., J. Phys.:Condens. Matter 29 465901 (2017);
          URL http://www.quantum-espresso.org", 
     in publications or presentations arising from this work. More details at
     http://www.quantum-espresso.org/quote

     Parallel version (MPI), running on     5 processors

     MPI processes distributed on     1 nodes
     R & G space division:  proc/nbgrp/npool/nimage =       5
     Waiting for input...
     Reading input from standard input

     Current dimensions of program PWSCF are:
     Max number of different atomic species (ntypx) = 10
     Max number of k-points (npk) =  40000
     Max angular momentum in pseudopotentials (lmaxx) =  3
               file Cu.pbe-dn-rrkjus_psl.1.0.0.UPF: wavefunction(s)  3D renormalized

     Subspace diagonalization in iterative solution of the eigenvalue problem:
     a serial algorithm will be used


     Parallelization info
     --------------------
     sticks:   dense  smooth     PW     G-vecs:    dense   smooth      PW
     Min          50      50     17                  544      544     107
     Max          51      51     17                  548      548     108
     Sum         253     253     85                 2733     2733     537



     bravais-lattice index     =            2
     lattice parameter (alat)  =       6.8300  a.u.
     unit-cell volume          =      79.6530 (a.u.)^3
     number of atoms/cell      =            1
     number of atomic types    =            1
     number of electrons       =        11.00
     number of Kohn-Sham states=           10
     kinetic-energy cutoff     =      40.0000  Ry
     charge density cutoff     =     160.0000  Ry
     convergence threshold     =      1.0E-08
     mixing beta               =       0.7000
     number of iterations used =            8  plain     mixing
     Exchange-correlation      = PBE ( 1  4  3  4 0 0)

     celldm(1)=   6.830000  celldm(2)=   0.000000  celldm(3)=   0.000000
     celldm(4)=   0.000000  celldm(5)=   0.000000  celldm(6)=   0.000000

     crystal axes: (cart. coord. in units of alat)
               a(1) = (  -0.500000   0.000000   0.500000 )  
               a(2) = (   0.000000   0.500000   0.500000 )  
               a(3) = (  -0.500000   0.500000   0.000000 )  

     reciprocal axes: (cart. coord. in units 2 pi/alat)
               b(1) = ( -1.000000 -1.000000  1.000000 )  
               b(2) = (  1.000000  1.000000  1.000000 )  
               b(3) = ( -1.000000  1.000000 -1.000000 )  


     PseudoPot. # 1 for Cu read from file:
     /home/lorenzo/pseudos/Cu/Cu.pbe-dn-rrkjus_psl.1.0.0.UPF
     MD5 check sum: ba3d6c84e19846e79d48cdc68ff7152b
     Pseudo is Ultrasoft + core correction, Zval = 11.0
     Generated using "atomic" code by A. Dal Corso v.6.3
     Using radial grid of 1199 points,  6 beta functions with: 
                l(1) =   0
                l(2) =   0
                l(3) =   1
                l(4) =   1
                l(5) =   2
                l(6) =   2
     Q(r) pseudized with 0 coefficients 


     atomic species   valence    mass     pseudopotential
        Cu            11.00    63.54600     Cu( 1.00)

     48 Sym. Ops., with inversion, found



   Cartesian axes

     site n.     atom                  positions (alat units)
         1           Cu  tau(   1) = (   0.0000000   0.0000000   0.0000000  )

     number of k points=    16  gaussian smearing, width (Ry)=  0.0100
                       cart. coord. in units 2pi/alat
        k(    1) = (   0.0000000   0.0000000   0.0000000), wk =   0.0092593
        k(    2) = (  -0.1666667   0.1666667  -0.1666667), wk =   0.0740741
        k(    3) = (  -0.3333333   0.3333333  -0.3333333), wk =   0.0740741
        k(    4) = (   0.5000000  -0.5000000   0.5000000), wk =   0.0370370
        k(    5) = (   0.0000000   0.3333333   0.0000000), wk =   0.0555556
        k(    6) = (  -0.1666667   0.5000000  -0.1666667), wk =   0.2222222
        k(    7) = (   0.6666667  -0.3333333   0.6666667), wk =   0.2222222
        k(    8) = (   0.5000000  -0.1666667   0.5000000), wk =   0.2222222
        k(    9) = (   0.3333333   0.0000000   0.3333333), wk =   0.1111111
        k(   10) = (   0.0000000   0.6666667   0.0000000), wk =   0.0555556
        k(   11) = (   0.8333333  -0.1666667   0.8333333), wk =   0.2222222
        k(   12) = (   0.6666667  -0.0000000   0.6666667), wk =   0.1111111
        k(   13) = (   0.0000000  -1.0000000   0.0000000), wk =   0.0277778
        k(   14) = (   0.6666667  -0.3333333   1.0000000), wk =   0.2222222
        k(   15) = (   0.5000000  -0.1666667   0.8333333), wk =   0.2222222
        k(   16) = (  -0.3333333  -1.0000000   0.0000000), wk =   0.1111111

     Dense  grid:     2733 G-vectors     FFT dimensions: (  20,  20,  20)

     Estimated max dynamical RAM per process >       3.31 MB

     Estimated total dynamical RAM >      16.53 MB

     Check: negative/imaginary core charge=   -0.000010    0.000000

     Initial potential from superposition of free atoms

     starting charge   10.99977, renormalised to   11.00000
     Starting wfcs are    9 randomized atomic wfcs +    1 random wfcs

     total cpu time spent up to now is        0.8 secs

     Self-consistent Calculation

     iteration #  1     ecut=    40.00 Ry     beta= 0.70
     Davidson diagonalization with overlap
     ethr =  1.00E-02,  avg # of iterations =  3.8

     Threshold (ethr) on eigenvalues was too large:
     Diagonalizing with lowered threshold

     Davidson diagonalization with overlap
     ethr =  5.34E-04,  avg # of iterations =  1.0

     total cpu time spent up to now is        1.0 secs

     total energy              =    -122.70437051 Ry
     Harris-Foulkes estimate   =    -122.74997230 Ry
     estimated scf accuracy    <       0.05853137 Ry

     iteration #  2     ecut=    40.00 Ry     beta= 0.70
     Davidson diagonalization with overlap
     ethr =  5.32E-04,  avg # of iterations =  2.1

     total cpu time spent up to now is        1.1 secs

     total energy              =    -122.70418508 Ry
     Harris-Foulkes estimate   =    -122.78502141 Ry
     estimated scf accuracy    <       0.20968576 Ry

     iteration #  3     ecut=    40.00 Ry     beta= 0.70
     Davidson diagonalization with overlap
     ethr =  5.32E-04,  avg # of iterations =  2.1

     total cpu time spent up to now is        1.2 secs

     total energy              =    -122.73839518 Ry
     Harris-Foulkes estimate   =    -122.73839828 Ry
     estimated scf accuracy    <       0.00004212 Ry

     iteration #  4     ecut=    40.00 Ry     beta= 0.70
     Davidson diagonalization with overlap
     ethr =  3.83E-07,  avg # of iterations =  2.5

     total cpu time spent up to now is        1.3 secs

     total energy              =    -122.73843338 Ry
     Harris-Foulkes estimate   =    -122.73843565 Ry
     estimated scf accuracy    <       0.00000762 Ry

     iteration #  5     ecut=    40.00 Ry     beta= 0.70
     Davidson diagonalization with overlap
     ethr =  6.93E-08,  avg # of iterations =  1.4

     total cpu time spent up to now is        1.3 secs

     total energy              =    -122.73843491 Ry
     Harris-Foulkes estimate   =    -122.73843508 Ry
     estimated scf accuracy    <       0.00000047 Ry

     iteration #  6     ecut=    40.00 Ry     beta= 0.70
     Davidson diagonalization with overlap
     ethr =  4.27E-09,  avg # of iterations =  1.1

     total cpu time spent up to now is        1.4 secs

     End of self-consistent calculation

          k = 0.0000 0.0000 0.0000 (   331 PWs)   bands (ev):

     3.2778   9.7002   9.7002   9.7002  10.5281  10.5281  35.5998  37.9954
    37.9954  37.9954

          k =-0.1667 0.1667-0.1667 (   332 PWs)   bands (ev):

     4.2666   9.5217   9.8398   9.8398  10.5022  10.5022  29.3533  35.9434
    36.2493  36.2493

          k =-0.3333 0.3333-0.3333 (   344 PWs)   bands (ev):

     6.6601   9.6715   9.7786   9.7786  10.8320  10.8320  21.2896  34.7139
    35.0235  35.0235

          k = 0.5000-0.5000 0.5000 (   344 PWs)   bands (ev):

     7.6065   9.6630   9.6630  11.1051  11.1051  11.6395  16.4460  34.0052
    34.7632  34.7632

          k = 0.0000 0.3333 0.0000 (   335 PWs)   bands (ev):

     4.5889   9.3319  10.0133  10.0133  10.2163  10.6647  32.4588  32.4588
    32.9600  34.6227

          k =-0.1667 0.5000-0.1667 (   335 PWs)   bands (ev):

     6.5560   9.0719   9.7470  10.1412  10.8559  10.9241  24.4778  30.5385
    31.5945  33.4054

          k = 0.6667-0.3333 0.6667 (   335 PWs)   bands (ev):

     8.0346   9.2808   9.7667   9.9904  11.1249  13.1623  17.6994  28.4566
    30.8157  33.0973

          k = 0.5000-0.1667 0.5000 (   347 PWs)   bands (ev):

     7.8493   9.4517   9.5249   9.9812  10.7575  12.3531  19.6810  26.9202
    33.4278  34.4175

          k = 0.3333 0.0000 0.3333 (   341 PWs)   bands (ev):

     5.7865   9.2705   9.8066  10.1282  10.2276  11.0069  26.9210  27.6200
    37.5184  37.9609

          k = 0.0000 0.6667 0.0000 (   335 PWs)   bands (ev):

     7.3763   8.6266  10.6074  10.7747  10.7747  10.9424  26.3453  27.6566
    27.6566  30.9054

          k = 0.8333-0.1667 0.8333 (   338 PWs)   bands (ev):

     8.1016   8.5434  10.2436  10.7194  11.1726  13.8921  21.6371  22.5485
    27.1780  31.7355

          k = 0.6667-0.0000 0.6667 (   347 PWs)   bands (ev):

     8.6552   8.8172   9.5585  10.4547  10.9069  15.9290  18.6054  21.1661
    29.3229  32.5787

          k = 0.0000-1.0000 0.0000 (   342 PWs)   bands (ev):

     7.8126   8.2885  11.0839  11.2516  11.2516  14.1454  19.7949  25.7722
    25.7722  30.2884

          k = 0.6667-0.3333 1.0000 (   343 PWs)   bands (ev):

     8.1336   8.8948   9.4116  10.5717  10.7739  12.6285  22.9448  23.9570
    27.4358  37.4601

          k = 0.5000-0.1667 0.8333 (   346 PWs)   bands (ev):

     8.7745   8.8050   9.3797  10.3822  11.0743  16.2402  17.4730  24.4358
    24.6702  37.7825

          k =-0.3333-1.0000 0.0000 (   344 PWs)   bands (ev):

     8.3310   8.6758   9.8899  10.6770  11.2521  16.7029  20.3406  21.3687
    22.6882  36.4192

     the Fermi energy is    12.6594 ev

!    total energy              =    -122.73843498 Ry
     Harris-Foulkes estimate   =    -122.73843498 Ry
     estimated scf accuracy    <          6.7E-10 Ry

     The total energy is the sum of the following terms:

     one-electron contribution =     -27.50298630 Ry
     hartree contribution      =      30.62285142 Ry
     xc contribution           =     -44.63247209 Ry
     ewald contribution        =     -81.22522859 Ry
     smearing contrib. (-TS)   =      -0.00059943 Ry

     convergence has been achieved in   6 iterations

     Forces acting on atoms (cartesian axes, Ry/au):

     atom    1 type  1   force =     0.00000000    0.00000000    0.00000000

     Total force =     0.000000     Total SCF correction =     0.000000


     Computing stress (Cartesian axis) and pressure

          total   stress  (Ry/bohr**3)                   (kbar)     P=   31.70
   0.00021546   0.00000000   0.00000000         31.70      0.00      0.00
   0.00000000   0.00021546   0.00000000          0.00     31.70      0.00
   0.00000000   0.00000000   0.00021546          0.00      0.00     31.70


     Writing output data file Cu.save/

     init_run     :      0.13s CPU      0.14s WALL (       1 calls)
     electrons    :      0.52s CPU      0.58s WALL (       1 calls)
     forces       :      0.01s CPU      0.01s WALL (       1 calls)
     stress       :      0.04s CPU      0.04s WALL (       1 calls)

     Called by init_run:
     wfcinit      :      0.01s CPU      0.02s WALL (       1 calls)
     potinit      :      0.00s CPU      0.00s WALL (       1 calls)
     hinit0       :      0.11s CPU      0.11s WALL (       1 calls)

     Called by electrons:
     c_bands      :      0.40s CPU      0.45s WALL (       7 calls)
     sum_band     :      0.08s CPU      0.09s WALL (       7 calls)
     v_of_rho     :      0.01s CPU      0.01s WALL (       7 calls)
     newd         :      0.02s CPU      0.02s WALL (       7 calls)
     mix_rho      :      0.00s CPU      0.00s WALL (       7 calls)

     Called by c_bands:
     init_us_2    :      0.01s CPU      0.01s WALL (     272 calls)
     cegterg      :      0.38s CPU      0.43s WALL (     112 calls)

     Called by sum_band:
     sum_band:bec :      0.00s CPU      0.00s WALL (     112 calls)
     addusdens    :      0.02s CPU      0.02s WALL (       7 calls)

     Called by *egterg:
     h_psi        :      0.28s CPU      0.32s WALL (     352 calls)
     s_psi        :      0.01s CPU      0.01s WALL (     352 calls)
     g_psi        :      0.00s CPU      0.00s WALL (     224 calls)
     cdiaghg      :      0.06s CPU      0.06s WALL (     320 calls)

     Called by h_psi:
     h_psi:pot    :      0.28s CPU      0.31s WALL (     352 calls)
     h_psi:calbec :      0.02s CPU      0.02s WALL (     352 calls)
     vloc_psi     :      0.25s CPU      0.28s WALL (     352 calls)
     add_vuspsi   :      0.01s CPU      0.01s WALL (     352 calls)

     General routines
     calbec       :      0.02s CPU      0.03s WALL (     544 calls)
     fft          :      0.01s CPU      0.01s WALL (     104 calls)
     ffts         :      0.00s CPU      0.00s WALL (       7 calls)
     fftw         :      0.27s CPU      0.31s WALL (    6722 calls)

     Parallel routines
     fft_scatt_xy :      0.03s CPU      0.03s WALL (    6833 calls)
     fft_scatt_yz :      0.09s CPU      0.10s WALL (    6833 calls)

     PWSCF        :     1.39s CPU         1.50s WALL


   This run was terminated on:  23:20:27  25Mar2024            

=------------------------------------------------------------------------------=
   JOB DONE.
=------------------------------------------------------------------------------=
