
     Program PWSCF v.6.3MaX starts on 25Mar2024 at 23:48:31 

     This program is part of the open-source Quantum ESPRESSO suite
     for quantum simulation of materials; please cite
         "P. Giannozzi et al., J. Phys.:Condens. Matter 21 395502 (2009);
         "P. Giannozzi et al., J. Phys.:Condens. Matter 29 465901 (2017);
          URL http://www.quantum-espresso.org", 
     in publications or presentations arising from this work. More details at
     http://www.quantum-espresso.org/quote

     Parallel version (MPI), running on     5 processors

     MPI processes distributed on     1 nodes
     R & G space division:  proc/nbgrp/npool/nimage =       5
     Waiting for input...
     Reading input from standard input

     Current dimensions of program PWSCF are:
     Max number of different atomic species (ntypx) = 10
     Max number of k-points (npk) =  40000
     Max angular momentum in pseudopotentials (lmaxx) =  3
               file Cu.pbesol-dn-kjpaw_psl.1.0.0.UPF: wavefunction(s)  4S 3D renormalized

     Subspace diagonalization in iterative solution of the eigenvalue problem:
     a serial algorithm will be used


     Parallelization info
     --------------------
     sticks:   dense  smooth     PW     G-vecs:    dense   smooth      PW
     Min         119     119     39                 1967     1967     361
     Max         119     119     40                 1969     1969     363
     Sum         595     595    199                 9841     9841    1807



     bravais-lattice index     =            2
     lattice parameter (alat)  =       6.8300  a.u.
     unit-cell volume          =      79.6530 (a.u.)^3
     number of atoms/cell      =            1
     number of atomic types    =            1
     number of electrons       =        11.00
     number of Kohn-Sham states=           10
     kinetic-energy cutoff     =      95.0000  Ry
     charge density cutoff     =     380.0000  Ry
     convergence threshold     =      1.0E-08
     mixing beta               =       0.7000
     number of iterations used =            8  plain     mixing
     Exchange-correlation      = SLA PW PSX PSC ( 1  4 10  8 0 0)

     celldm(1)=   6.830000  celldm(2)=   0.000000  celldm(3)=   0.000000
     celldm(4)=   0.000000  celldm(5)=   0.000000  celldm(6)=   0.000000

     crystal axes: (cart. coord. in units of alat)
               a(1) = (  -0.500000   0.000000   0.500000 )  
               a(2) = (   0.000000   0.500000   0.500000 )  
               a(3) = (  -0.500000   0.500000   0.000000 )  

     reciprocal axes: (cart. coord. in units 2 pi/alat)
               b(1) = ( -1.000000 -1.000000  1.000000 )  
               b(2) = (  1.000000  1.000000  1.000000 )  
               b(3) = ( -1.000000  1.000000 -1.000000 )  


     PseudoPot. # 1 for Cu read from file:
     /home/lorenzo/pseudos/Cu/Cu.pbesol-dn-kjpaw_psl.1.0.0.UPF
     MD5 check sum: 1e9735a74797514c934643dbd229f231
     Pseudo is Projector augmented-wave + core cor, Zval = 11.0
     Generated using "atomic" code by A. Dal Corso v.6.3
     Shape of augmentation charge: PSQ
     Using radial grid of 1199 points,  6 beta functions with: 
                l(1) =   0
                l(2) =   0
                l(3) =   1
                l(4) =   1
                l(5) =   2
                l(6) =   2
     Q(r) pseudized with 0 coefficients 


     atomic species   valence    mass     pseudopotential
        Cu            11.00    63.54600     Cu( 1.00)

     48 Sym. Ops., with inversion, found



   Cartesian axes

     site n.     atom                  positions (alat units)
         1           Cu  tau(   1) = (   0.0000000   0.0000000   0.0000000  )

     number of k points=    20  gaussian smearing, width (Ry)=  0.0100
                       cart. coord. in units 2pi/alat
        k(    1) = (   0.0000000   0.0000000   0.0000000), wk =   0.0058309
        k(    2) = (  -0.1428571   0.1428571  -0.1428571), wk =   0.0466472
        k(    3) = (  -0.2857143   0.2857143  -0.2857143), wk =   0.0466472
        k(    4) = (  -0.4285714   0.4285714  -0.4285714), wk =   0.0466472
        k(    5) = (   0.0000000   0.2857143   0.0000000), wk =   0.0349854
        k(    6) = (  -0.1428571   0.4285714  -0.1428571), wk =   0.1399417
        k(    7) = (  -0.2857143   0.5714286  -0.2857143), wk =   0.1399417
        k(    8) = (   0.5714286  -0.2857143   0.5714286), wk =   0.1399417
        k(    9) = (   0.4285714  -0.1428571   0.4285714), wk =   0.1399417
        k(   10) = (   0.2857143  -0.0000000   0.2857143), wk =   0.0699708
        k(   11) = (   0.0000000   0.5714286   0.0000000), wk =   0.0349854
        k(   12) = (  -0.1428571   0.7142857  -0.1428571), wk =   0.1399417
        k(   13) = (   0.7142857  -0.1428571   0.7142857), wk =   0.1399417
        k(   14) = (   0.5714286   0.0000000   0.5714286), wk =   0.0699708
        k(   15) = (   0.0000000   0.8571429   0.0000000), wk =   0.0349854
        k(   16) = (   0.8571429  -0.0000000   0.8571429), wk =   0.0699708
        k(   17) = (  -0.2857143   0.5714286   0.0000000), wk =   0.1399417
        k(   18) = (   0.5714286  -0.2857143   0.8571429), wk =   0.2798834
        k(   19) = (   0.7142857  -0.1428571   1.0000000), wk =   0.1399417
        k(   20) = (   0.5714286   0.0000000   0.8571429), wk =   0.1399417

     Dense  grid:     9841 G-vectors     FFT dimensions: (  30,  30,  30)

     Estimated max dynamical RAM per process >       9.80 MB

     Estimated total dynamical RAM >      48.98 MB

     Initial potential from superposition of free atoms

     starting charge   10.99979, renormalised to   11.00000
     Starting wfcs are    9 randomized atomic wfcs +    1 random wfcs
     Checking if some PAW data can be deallocated... 

     total cpu time spent up to now is        1.4 secs

     Self-consistent Calculation

     iteration #  1     ecut=    95.00 Ry     beta= 0.70
     Davidson diagonalization with overlap
     ethr =  1.00E-02,  avg # of iterations =  3.8

     Threshold (ethr) on eigenvalues was too large:
     Diagonalizing with lowered threshold

     Davidson diagonalization with overlap
     ethr =  6.56E-04,  avg # of iterations =  1.0

     total cpu time spent up to now is        2.1 secs

     total energy              =    -210.38060263 Ry
     Harris-Foulkes estimate   =    -210.43808500 Ry
     estimated scf accuracy    <       0.07191096 Ry

     iteration #  2     ecut=    95.00 Ry     beta= 0.70
     Davidson diagonalization with overlap
     ethr =  6.54E-04,  avg # of iterations =  2.0

     total cpu time spent up to now is        2.6 secs

     total energy              =    -210.38342421 Ry
     Harris-Foulkes estimate   =    -210.48380428 Ry
     estimated scf accuracy    <       0.26010395 Ry

     iteration #  3     ecut=    95.00 Ry     beta= 0.70
     Davidson diagonalization with overlap
     ethr =  6.54E-04,  avg # of iterations =  2.1

     total cpu time spent up to now is        2.9 secs

     total energy              =    -210.42389651 Ry
     Harris-Foulkes estimate   =    -210.42398089 Ry
     estimated scf accuracy    <       0.00017128 Ry

     iteration #  4     ecut=    95.00 Ry     beta= 0.70
     Davidson diagonalization with overlap
     ethr =  1.56E-06,  avg # of iterations =  2.7

     total cpu time spent up to now is        3.3 secs

     total energy              =    -210.42397635 Ry
     Harris-Foulkes estimate   =    -210.42398603 Ry
     estimated scf accuracy    <       0.00002753 Ry

     iteration #  5     ecut=    95.00 Ry     beta= 0.70
     Davidson diagonalization with overlap
     ethr =  2.50E-07,  avg # of iterations =  1.0

     total cpu time spent up to now is        3.7 secs

     total energy              =    -210.42398075 Ry
     Harris-Foulkes estimate   =    -210.42398078 Ry
     estimated scf accuracy    <       0.00000006 Ry

     iteration #  6     ecut=    95.00 Ry     beta= 0.70
     Davidson diagonalization with overlap
     ethr =  5.44E-10,  avg # of iterations =  3.0

     total cpu time spent up to now is        4.2 secs

     End of self-consistent calculation

          k = 0.0000 0.0000 0.0000 (  1243 PWs)   bands (ev):

     3.0448   9.4910   9.4910   9.4910  10.3328  10.3328  35.3800  37.7525
    37.7525  37.7525

          k =-0.1429 0.1429-0.1429 (  1266 PWs)   bands (ev):

     3.7767   9.3501   9.6072   9.6072  10.3017  10.3017  30.3608  35.8348
    36.2644  36.2644

          k =-0.2857 0.2857-0.2857 (  1251 PWs)   bands (ev):

     5.7239   9.2584   9.6246   9.6246  10.5034  10.5034  23.1969  34.8738
    35.0006  35.0006

          k =-0.4286 0.4286-0.4286 (  1239 PWs)   bands (ev):

     7.2587   9.4839   9.4839  10.6510  10.8507  10.8507  17.4652  33.9267
    34.5438  34.5438

          k = 0.0000 0.2857 0.0000 (  1267 PWs)   bands (ev):

     4.0172   9.2116   9.7245   9.7245  10.0896  10.4362  33.0504  33.0504
    33.1499  35.0668

          k =-0.1429 0.4286-0.1429 (  1261 PWs)   bands (ev):

     5.5687   8.9655   9.6451   9.8738  10.3493  10.6142  25.9766  31.1607
    32.6967  34.3694

          k =-0.2857 0.5714-0.2857 (  1248 PWs)   bands (ev):

     7.3985   9.1303   9.4339   9.7658  10.8949  11.5949  19.5666  30.3390
    30.7716  33.0655

          k = 0.5714-0.2857 0.5714 (  1236 PWs)   bands (ev):

     7.7576   9.2107   9.6803   9.7784  10.8327  13.1238  16.6153  28.3535
    32.0676  33.4661

          k = 0.4286-0.1429 0.4286 (  1247 PWs)   bands (ev):

     6.9393   9.1292   9.4289   9.7709  10.3878  11.3589  21.5703  27.7378
    34.9998  35.2096

          k = 0.2857-0.0000 0.2857 (  1257 PWs)   bands (ev):

     4.9331   9.1352   9.6539   9.8173  10.0802  10.6118  28.1059  28.7972
    38.3156  38.5820

          k = 0.0000 0.5714 0.0000 (  1267 PWs)   bands (ev):

     6.4678   8.6053   9.9355  10.3367  10.3367  10.6717  28.5435  28.5435
    28.8182  31.0874

          k =-0.1429 0.7143-0.1429 (  1247 PWs)   bands (ev):

     7.6372   8.4386   9.8188  10.3820  10.9232  11.9418  22.9780  25.1947
    27.5632  31.7046

          k = 0.7143-0.1429 0.7143 (  1245 PWs)   bands (ev):

     8.2634   8.5721   9.5116  10.2310  10.8717  15.4721  17.5869  22.7127
    28.4846  32.0913

          k = 0.5714 0.0000 0.5714 (  1252 PWs)   bands (ev):

     8.2758   8.9393   9.0666  10.0775  10.4987  13.4090  20.4432  22.1245
    31.1350  33.2827

          k = 0.0000 0.8571 0.0000 (  1254 PWs)   bands (ev):

     7.5859   8.1396  10.8639  10.9491  10.9491  12.6474  21.3380  25.8859
    25.8859  30.1553

          k = 0.8571-0.0000 0.8571 (  1244 PWs)   bands (ev):

     7.8244   8.2056  10.4047  10.7288  10.9849  15.0610  19.7578  21.8415
    26.2263  31.2274

          k =-0.2857 0.5714 0.0000 (  1256 PWs)   bands (ev):

     7.1531   8.7509   9.3507  10.2948  10.3424  11.4499  24.3834  25.1647
    29.7229  36.6380

          k = 0.5714-0.2857 0.8571 (  1234 PWs)   bands (ev):

     8.2450   8.8011   9.1901  10.1086  10.7913  13.8091  18.7238  25.0402
    26.7501  36.7716

          k = 0.7143-0.1429 1.0000 (  1235 PWs)   bands (ev):

     8.0296   8.4076   9.7418  10.5855  10.9470  14.4507  21.9644  22.1890
    23.2277  35.1375

          k = 0.5714 0.0000 0.8571 (  1241 PWs)   bands (ev):

     8.3985   8.6716   9.2329  10.3104  10.9444  17.5164  18.0223  20.7503
    24.1259  36.7825

     the Fermi energy is    12.6272 ev

!    total energy              =    -210.42398080 Ry
     Harris-Foulkes estimate   =    -210.42398080 Ry
     estimated scf accuracy    <          9.1E-10 Ry

     total all-electron energy =     -3307.303042 Ry

     The total energy is the sum of the following terms:

     one-electron contribution =     -28.02750775 Ry
     hartree contribution      =      30.54282180 Ry
     xc contribution           =     -44.11415780 Ry
     ewald contribution        =     -81.22522855 Ry
     one-center paw contrib.   =     -87.59981198 Ry
     smearing contrib. (-TS)   =      -0.00009653 Ry

     convergence has been achieved in   6 iterations

     Forces acting on atoms (cartesian axes, Ry/au):

     atom    1 type  1   force =     0.00000000    0.00000000    0.00000000

     Total force =     0.000000     Total SCF correction =     0.000000


     Computing stress (Cartesian axis) and pressure

          total   stress  (Ry/bohr**3)                   (kbar)     P=  -64.19
  -0.00043632   0.00000000  -0.00000000        -64.19      0.00     -0.00
   0.00000000  -0.00043632   0.00000000          0.00    -64.19      0.00
  -0.00000000   0.00000000  -0.00043632         -0.00      0.00    -64.19


     Writing output data file Cu.save/

     init_run     :      0.40s CPU      0.43s WALL (       1 calls)
     electrons    :      2.59s CPU      2.76s WALL (       1 calls)
     forces       :      0.05s CPU      0.05s WALL (       1 calls)
     stress       :      0.16s CPU      0.16s WALL (       1 calls)

     Called by init_run:
     wfcinit      :      0.07s CPU      0.07s WALL (       1 calls)
     potinit      :      0.11s CPU      0.12s WALL (       1 calls)
     hinit0       :      0.19s CPU      0.19s WALL (       1 calls)

     Called by electrons:
     c_bands      :      1.48s CPU      1.54s WALL (       7 calls)
     sum_band     :      0.40s CPU      0.41s WALL (       7 calls)
     v_of_rho     :      0.04s CPU      0.04s WALL (       7 calls)
     newd         :      0.07s CPU      0.09s WALL (       7 calls)
     PAW_pot      :      0.70s CPU      0.79s WALL (       7 calls)
     mix_rho      :      0.00s CPU      0.00s WALL (       7 calls)

     Called by c_bands:
     init_us_2    :      0.06s CPU      0.06s WALL (     340 calls)
     cegterg      :      1.40s CPU      1.46s WALL (     140 calls)

     Called by sum_band:
     sum_band:bec :      0.00s CPU      0.00s WALL (     140 calls)
     addusdens    :      0.09s CPU      0.09s WALL (       7 calls)

     Called by *egterg:
     h_psi        :      1.14s CPU      1.19s WALL (     471 calls)
     s_psi        :      0.04s CPU      0.04s WALL (     471 calls)
     g_psi        :      0.00s CPU      0.00s WALL (     311 calls)
     cdiaghg      :      0.10s CPU      0.10s WALL (     431 calls)

     Called by h_psi:
     h_psi:pot    :      1.13s CPU      1.18s WALL (     471 calls)
     h_psi:calbec :      0.06s CPU      0.06s WALL (     471 calls)
     vloc_psi     :      1.03s CPU      1.08s WALL (     471 calls)
     add_vuspsi   :      0.04s CPU      0.04s WALL (     471 calls)

     General routines
     calbec       :      0.10s CPU      0.11s WALL (     711 calls)
     fft          :      0.03s CPU      0.03s WALL (     104 calls)
     ffts         :      0.00s CPU      0.00s WALL (       7 calls)
     fftw         :      1.19s CPU      1.24s WALL (    8722 calls)

     Parallel routines
     fft_scatt_xy :      0.10s CPU      0.10s WALL (    8833 calls)
     fft_scatt_yz :      0.39s CPU      0.40s WALL (    8833 calls)

     PWSCF        :     4.22s CPU         4.47s WALL


   This run was terminated on:  23:48:36  25Mar2024            

=------------------------------------------------------------------------------=
   JOB DONE.
=------------------------------------------------------------------------------=
