
     Program PWSCF v.6.3MaX starts on 25Mar2024 at 23:19:29 

     This program is part of the open-source Quantum ESPRESSO suite
     for quantum simulation of materials; please cite
         "P. Giannozzi et al., J. Phys.:Condens. Matter 21 395502 (2009);
         "P. Giannozzi et al., J. Phys.:Condens. Matter 29 465901 (2017);
          URL http://www.quantum-espresso.org", 
     in publications or presentations arising from this work. More details at
     http://www.quantum-espresso.org/quote

     Parallel version (MPI), running on     5 processors

     MPI processes distributed on     1 nodes
     R & G space division:  proc/nbgrp/npool/nimage =       5
     Waiting for input...
     Reading input from standard input

     Current dimensions of program PWSCF are:
     Max number of different atomic species (ntypx) = 10
     Max number of k-points (npk) =  40000
     Max angular momentum in pseudopotentials (lmaxx) =  3
               file Cu.pbe-dn-rrkjus_psl.1.0.0.UPF: wavefunction(s)  3D renormalized

     Subspace diagonalization in iterative solution of the eigenvalue problem:
     a serial algorithm will be used


     Parallelization info
     --------------------
     sticks:   dense  smooth     PW     G-vecs:    dense   smooth      PW
     Min          50      50     17                  544      544     107
     Max          51      51     17                  548      548     108
     Sum         253     253     85                 2733     2733     537



     bravais-lattice index     =            2
     lattice parameter (alat)  =       6.8300  a.u.
     unit-cell volume          =      79.6530 (a.u.)^3
     number of atoms/cell      =            1
     number of atomic types    =            1
     number of electrons       =        11.00
     number of Kohn-Sham states=           10
     kinetic-energy cutoff     =      40.0000  Ry
     charge density cutoff     =     160.0000  Ry
     convergence threshold     =      1.0E-08
     mixing beta               =       0.7000
     number of iterations used =            8  plain     mixing
     Exchange-correlation      = PBE ( 1  4  3  4 0 0)

     celldm(1)=   6.830000  celldm(2)=   0.000000  celldm(3)=   0.000000
     celldm(4)=   0.000000  celldm(5)=   0.000000  celldm(6)=   0.000000

     crystal axes: (cart. coord. in units of alat)
               a(1) = (  -0.500000   0.000000   0.500000 )  
               a(2) = (   0.000000   0.500000   0.500000 )  
               a(3) = (  -0.500000   0.500000   0.000000 )  

     reciprocal axes: (cart. coord. in units 2 pi/alat)
               b(1) = ( -1.000000 -1.000000  1.000000 )  
               b(2) = (  1.000000  1.000000  1.000000 )  
               b(3) = ( -1.000000  1.000000 -1.000000 )  


     PseudoPot. # 1 for Cu read from file:
     /home/lorenzo/pseudos/Cu/Cu.pbe-dn-rrkjus_psl.1.0.0.UPF
     MD5 check sum: ba3d6c84e19846e79d48cdc68ff7152b
     Pseudo is Ultrasoft + core correction, Zval = 11.0
     Generated using "atomic" code by A. Dal Corso v.6.3
     Using radial grid of 1199 points,  6 beta functions with: 
                l(1) =   0
                l(2) =   0
                l(3) =   1
                l(4) =   1
                l(5) =   2
                l(6) =   2
     Q(r) pseudized with 0 coefficients 


     atomic species   valence    mass     pseudopotential
        Cu            11.00    63.54600     Cu( 1.00)

     48 Sym. Ops., with inversion, found



   Cartesian axes

     site n.     atom                  positions (alat units)
         1           Cu  tau(   1) = (   0.0000000   0.0000000   0.0000000  )

     number of k points=    56  gaussian smearing, width (Ry)=  0.0100
                       cart. coord. in units 2pi/alat
        k(    1) = (   0.0000000   0.0000000   0.0000000), wk =   0.0015026
        k(    2) = (  -0.0909091   0.0909091  -0.0909091), wk =   0.0120210
        k(    3) = (  -0.1818182   0.1818182  -0.1818182), wk =   0.0120210
        k(    4) = (  -0.2727273   0.2727273  -0.2727273), wk =   0.0120210
        k(    5) = (  -0.3636364   0.3636364  -0.3636364), wk =   0.0120210
        k(    6) = (  -0.4545455   0.4545455  -0.4545455), wk =   0.0120210
        k(    7) = (   0.0000000   0.1818182   0.0000000), wk =   0.0090158
        k(    8) = (  -0.0909091   0.2727273  -0.0909091), wk =   0.0360631
        k(    9) = (  -0.1818182   0.3636364  -0.1818182), wk =   0.0360631
        k(   10) = (  -0.2727273   0.4545455  -0.2727273), wk =   0.0360631
        k(   11) = (  -0.3636364   0.5454545  -0.3636364), wk =   0.0360631
        k(   12) = (   0.5454545  -0.3636364   0.5454545), wk =   0.0360631
        k(   13) = (   0.4545455  -0.2727273   0.4545455), wk =   0.0360631
        k(   14) = (   0.3636364  -0.1818182   0.3636364), wk =   0.0360631
        k(   15) = (   0.2727273  -0.0909091   0.2727273), wk =   0.0360631
        k(   16) = (   0.1818182  -0.0000000   0.1818182), wk =   0.0180316
        k(   17) = (   0.0000000   0.3636364   0.0000000), wk =   0.0090158
        k(   18) = (  -0.0909091   0.4545455  -0.0909091), wk =   0.0360631
        k(   19) = (  -0.1818182   0.5454545  -0.1818182), wk =   0.0360631
        k(   20) = (  -0.2727273   0.6363636  -0.2727273), wk =   0.0360631
        k(   21) = (   0.6363636  -0.2727273   0.6363636), wk =   0.0360631
        k(   22) = (   0.5454545  -0.1818182   0.5454545), wk =   0.0360631
        k(   23) = (   0.4545455  -0.0909091   0.4545455), wk =   0.0360631
        k(   24) = (   0.3636364   0.0000000   0.3636364), wk =   0.0180316
        k(   25) = (   0.0000000   0.5454545   0.0000000), wk =   0.0090158
        k(   26) = (  -0.0909091   0.6363636  -0.0909091), wk =   0.0360631
        k(   27) = (  -0.1818182   0.7272727  -0.1818182), wk =   0.0360631
        k(   28) = (   0.7272727  -0.1818182   0.7272727), wk =   0.0360631
        k(   29) = (   0.6363636  -0.0909091   0.6363636), wk =   0.0360631
        k(   30) = (   0.5454545   0.0000000   0.5454545), wk =   0.0180316
        k(   31) = (   0.0000000   0.7272727   0.0000000), wk =   0.0090158
        k(   32) = (  -0.0909091   0.8181818  -0.0909091), wk =   0.0360631
        k(   33) = (   0.8181818  -0.0909091   0.8181818), wk =   0.0360631
        k(   34) = (   0.7272727   0.0000000   0.7272727), wk =   0.0180316
        k(   35) = (   0.0000000   0.9090909   0.0000000), wk =   0.0090158
        k(   36) = (   0.9090909  -0.0000000   0.9090909), wk =   0.0180316
        k(   37) = (  -0.1818182   0.3636364   0.0000000), wk =   0.0360631
        k(   38) = (  -0.2727273   0.4545455  -0.0909091), wk =   0.0721262
        k(   39) = (  -0.3636364   0.5454545  -0.1818182), wk =   0.0721262
        k(   40) = (   0.5454545  -0.3636364   0.7272727), wk =   0.0721262
        k(   41) = (  -0.1818182   0.5454545   0.0000000), wk =   0.0360631
        k(   42) = (  -0.2727273   0.6363636  -0.0909091), wk =   0.0721262
        k(   43) = (   0.6363636  -0.2727273   0.8181818), wk =   0.0721262
        k(   44) = (   0.5454545  -0.1818182   0.7272727), wk =   0.0721262
        k(   45) = (   0.4545455  -0.0909091   0.6363636), wk =   0.0721262
        k(   46) = (   0.3636364   0.0000000   0.5454545), wk =   0.0360631
        k(   47) = (  -0.1818182   0.7272727   0.0000000), wk =   0.0360631
        k(   48) = (   0.7272727  -0.1818182   0.9090909), wk =   0.0721262
        k(   49) = (   0.6363636  -0.0909091   0.8181818), wk =   0.0721262
        k(   50) = (   0.5454545   0.0000000   0.7272727), wk =   0.0360631
        k(   51) = (   0.8181818  -0.0909091   1.0000000), wk =   0.0360631
        k(   52) = (   0.7272727   0.0000000   0.9090909), wk =   0.0360631
        k(   53) = (   0.6363636  -0.2727273   1.0000000), wk =   0.0360631
        k(   54) = (   0.5454545  -0.1818182   0.9090909), wk =   0.0721262
        k(   55) = (   0.6363636  -0.0909091   1.0000000), wk =   0.0360631
        k(   56) = (   0.5454545   0.0000000   0.9090909), wk =   0.0360631

     Dense  grid:     2733 G-vectors     FFT dimensions: (  20,  20,  20)

     Estimated max dynamical RAM per process >       3.72 MB

     Estimated total dynamical RAM >      18.61 MB

     Check: negative/imaginary core charge=   -0.000010    0.000000

     Initial potential from superposition of free atoms

     starting charge   10.99977, renormalised to   11.00000
     Starting wfcs are    9 randomized atomic wfcs +    1 random wfcs

     total cpu time spent up to now is        0.9 secs

     Self-consistent Calculation

     iteration #  1     ecut=    40.00 Ry     beta= 0.70
     Davidson diagonalization with overlap
     ethr =  1.00E-02,  avg # of iterations =  3.8

     Threshold (ethr) on eigenvalues was too large:
     Diagonalizing with lowered threshold

     Davidson diagonalization with overlap
     ethr =  5.48E-04,  avg # of iterations =  1.0

     total cpu time spent up to now is        1.5 secs

     total energy              =    -122.70819136 Ry
     Harris-Foulkes estimate   =    -122.75489620 Ry
     estimated scf accuracy    <       0.05993806 Ry

     iteration #  2     ecut=    40.00 Ry     beta= 0.70
     Davidson diagonalization with overlap
     ethr =  5.45E-04,  avg # of iterations =  2.0

     total cpu time spent up to now is        1.8 secs

     total energy              =    -122.70875244 Ry
     Harris-Foulkes estimate   =    -122.79133330 Ry
     estimated scf accuracy    <       0.21397279 Ry

     iteration #  3     ecut=    40.00 Ry     beta= 0.70
     Davidson diagonalization with overlap
     ethr =  5.45E-04,  avg # of iterations =  2.0

     total cpu time spent up to now is        2.1 secs

     total energy              =    -122.74315222 Ry
     Harris-Foulkes estimate   =    -122.74316019 Ry
     estimated scf accuracy    <       0.00005058 Ry

     iteration #  4     ecut=    40.00 Ry     beta= 0.70
     Davidson diagonalization with overlap
     ethr =  4.60E-07,  avg # of iterations =  2.6

     total cpu time spent up to now is        2.4 secs

     total energy              =    -122.74319020 Ry
     Harris-Foulkes estimate   =    -122.74319369 Ry
     estimated scf accuracy    <       0.00001028 Ry

     iteration #  5     ecut=    40.00 Ry     beta= 0.70
     Davidson diagonalization with overlap
     ethr =  9.35E-08,  avg # of iterations =  1.3

     total cpu time spent up to now is        2.7 secs

     total energy              =    -122.74319232 Ry
     Harris-Foulkes estimate   =    -122.74319264 Ry
     estimated scf accuracy    <       0.00000092 Ry

     iteration #  6     ecut=    40.00 Ry     beta= 0.70
     Davidson diagonalization with overlap
     ethr =  8.35E-09,  avg # of iterations =  1.1

     total cpu time spent up to now is        2.9 secs

     End of self-consistent calculation

          k = 0.0000 0.0000 0.0000 (   331 PWs)   bands (ev):

     3.2776   9.6967   9.6967   9.6967  10.5241  10.5241  35.5988  37.9953
    37.9953  37.9953

          k =-0.0909 0.0909-0.0909 (   332 PWs)   bands (ev):

     3.5774   9.6339   9.7515   9.7515  10.5041  10.5041  33.2977  36.2977
    37.1638  37.1638

          k =-0.1818 0.1818-0.1818 (   335 PWs)   bands (ev):

     4.4473   9.4948   9.8482   9.8482  10.5067  10.5067  28.5636  35.8592
    36.0888  36.0888

          k =-0.2727 0.2727-0.2727 (   338 PWs)   bands (ev):

     5.7536   9.4478   9.8371   9.8371  10.6632  10.6632  24.0391  35.2009
    35.3342  35.3342

          k =-0.3636 0.3636-0.3636 (   344 PWs)   bands (ev):

     7.0247   9.7416   9.7416   9.9372  10.9084  10.9084  20.0218  34.4956
    34.9201  34.9201

          k =-0.4545 0.4545-0.4545 (   341 PWs)   bands (ev):

     7.5577   9.6695   9.6695  11.0776  11.0776  11.2803  16.9947  34.0626
    34.7756  34.7756

          k = 0.0000 0.1818 0.0000 (   335 PWs)   bands (ev):

     3.6769   9.5786   9.7920   9.7920  10.4184  10.5673  34.3849  35.2282
    35.2282  36.6151

          k =-0.0909 0.2727-0.0909 (   332 PWs)   bands (ev):

     4.3561   9.4379   9.8942   9.9039  10.3449  10.6138  30.3424  33.7536
    34.5057  37.7078

          k =-0.1818 0.3636-0.1818 (   339 PWs)   bands (ev):

     5.5265   9.3142   9.8523   9.9461  10.5198  10.7461  25.7091  32.7864
    33.8641  36.7110

          k =-0.2727 0.4545-0.2727 (   341 PWs)   bands (ev):

     6.8675   9.4415   9.7064   9.8768  10.9560  10.9828  21.4872  32.3714
    33.2054  34.7092

          k =-0.3636 0.5455-0.3636 (   344 PWs)   bands (ev):

     7.6340   9.5738   9.7885  10.0880  11.0972  11.8800  17.9695  32.1504
    32.5617  33.8866

          k = 0.5455-0.3636 0.5455 (   339 PWs)   bands (ev):

     7.7620   9.5572   9.7514  10.3786  11.0698  12.6081  16.5875  31.1158
    33.4079  34.0334

          k = 0.4545-0.2727 0.4545 (   344 PWs)   bands (ev):

     7.4788   9.6333   9.7913   9.9107  10.8680  11.6348  19.0342  30.5744
    34.7823  34.9112

          k = 0.3636-0.1818 0.3636 (   341 PWs)   bands (ev):

     6.4463   9.3857   9.7631   9.8915  10.5730  11.0703  22.8424  30.5807
    36.0439  36.9942

          k = 0.2727-0.0909 0.2727 (   335 PWs)   bands (ev):

     5.0938   9.3766   9.8612   9.9497  10.3577  10.7435  27.2229  31.1038
    37.4865  38.8799

          k = 0.1818-0.0000 0.1818 (   333 PWs)   bands (ev):

     4.0679   9.5244   9.8351   9.8365  10.3987  10.5755  31.6251  32.4428
    37.5509  39.1003

          k = 0.0000 0.3636 0.0000 (   335 PWs)   bands (ev):

     4.8261   9.2673  10.0664  10.0664  10.1691  10.6839  31.9373  31.9373
    32.7037  34.1448

          k =-0.0909 0.4545-0.0909 (   334 PWs)   bands (ev):

     5.7899   9.0908   9.9135  10.1934  10.4580  10.7966  27.7769  30.6863
    32.3283  33.5845

          k =-0.1818 0.5455-0.1818 (   331 PWs)   bands (ev):

     7.0166   9.0132   9.6887  10.1738  10.9902  11.1269  23.4312  30.0601
    30.4458  33.0177

          k =-0.2727 0.6364-0.2727 (   342 PWs)   bands (ev):

     7.9106   9.1414   9.6185  10.0854  11.1211  12.3760  19.5724  28.6041
    30.1191  32.8694

          k = 0.6364-0.2727 0.6364 (   345 PWs)   bands (ev):

     8.1657   9.2287   9.7855  10.0144  11.0786  14.0539  16.8579  27.2157
    30.8981  33.1293

          k = 0.5455-0.1818 0.5455 (   345 PWs)   bands (ev):

     8.0966   9.3396   9.6269  10.0049  10.8567  13.0938  18.4869  26.3818
    32.3691  33.8648

          k = 0.4545-0.0909 0.4545 (   338 PWs)   bands (ev):

     7.4490   9.2465   9.5454  10.0706  10.5283  11.8394  22.1137  26.1440
    34.4497  35.1344

          k = 0.3636 0.0000 0.3636 (   339 PWs)   bands (ev):

     6.2039   9.2275   9.7512  10.1946  10.1998  11.1629  26.0425  26.7756
    36.8862  37.0220

          k = 0.0000 0.5455 0.0000 (   343 PWs)   bands (ev):

     6.4669   8.8709  10.0873  10.4738  10.4738  10.8383  29.1379  29.1379
    29.7955  31.4618

          k =-0.0909 0.6364-0.0909 (   333 PWs)   bands (ev):

     7.3292   8.7198  10.0405  10.5620  10.9956  11.1386  25.7113  27.3808
    28.2411  31.9643

          k =-0.1818 0.7273-0.1818 (   340 PWs)   bands (ev):

     8.0208   8.7006   9.8799  10.4914  11.1412  12.6534  21.7684  25.3068
    28.0823  32.0734

          k = 0.7273-0.1818 0.7273 (   342 PWs)   bands (ev):

     8.4057   8.7949   9.7298  10.3945  11.1060  14.9189  18.3252  23.7350
    28.6997  32.3053

          k = 0.6364-0.0909 0.6364 (   343 PWs)   bands (ev):

     8.5872   8.9485   9.5054  10.3138  10.8972  15.1132  18.2479  22.7386
    30.0463  32.8678

          k = 0.5455 0.0000 0.5455 (   343 PWs)   bands (ev):

     8.3444   9.2305   9.2343  10.2356  10.6374  13.1231  21.2831  22.7661
    32.0086  33.8338

          k = 0.0000 0.7273 0.0000 (   327 PWs)   bands (ev):

     7.6206   8.5180  10.9100  10.9100  10.9820  11.1789  24.6937  27.0553
    27.0553  30.6969

          k =-0.0909 0.8182-0.0909 (   339 PWs)   bands (ev):

     7.8778   8.4423  10.6861  10.8845  11.1543  12.8733  22.5522  24.3365
    26.6293  31.3238

          k = 0.8182-0.0909 0.8182 (   345 PWs)   bands (ev):

     8.1578   8.5141  10.2920  10.7764  11.1540  15.1464  20.7523  21.1388
    27.0308  31.6992

          k = 0.7273 0.0000 0.7273 (   347 PWs)   bands (ev):

     8.4820   8.6819   9.8275  10.5989  11.0130  17.4194  17.7022  20.6573
    28.2135  32.1449

          k = 0.0000 0.9091 0.0000 (   342 PWs)   bands (ev):

     7.8071   8.3125  11.0682  11.2057  11.2057  13.5453  20.5928  25.9194
    25.9194  30.3306

          k = 0.9091-0.0000 0.9091 (   342 PWs)   bands (ev):

     7.9034   8.3407  10.9359  11.0107  11.2208  14.6628  19.8665  23.8309
    26.0598  31.1261

          k =-0.1818 0.3636 0.0000 (   337 PWs)   bands (ev):

     5.1885   9.2744   9.8897  10.0775  10.2972  10.7668  28.8977  29.5302
    35.8110  36.2913

          k =-0.2727 0.4545-0.0909 (   337 PWs)   bands (ev):

     6.4219   9.1641   9.7171  10.1183  10.5073  11.1300  24.6599  28.5599
    33.5459  36.4387

          k =-0.3636 0.5455-0.1818 (   340 PWs)   bands (ev):

     7.5798   9.3068   9.5501  10.0246  10.8526  11.8447  20.6100  28.4003
    31.5055  35.8843

          k = 0.5455-0.3636 0.7273 (   346 PWs)   bands (ev):

     8.0213   9.3515   9.8191   9.9524  11.0420  13.2489  17.3692  28.8040
    29.9562  35.5196

          k =-0.1818 0.5455 0.0000 (   335 PWs)   bands (ev):

     6.7709   8.9258   9.7674  10.4741  10.5562  11.1217  26.6128  27.1588
    30.2790  34.5556

          k =-0.2727 0.6364-0.0909 (   339 PWs)   bands (ev):

     7.7862   8.8790   9.5705  10.4245  10.8907  12.0140  22.6874  26.5745
    28.0528  34.9936

          k = 0.6364-0.2727 0.8182 (   341 PWs)   bands (ev):

     8.3428   8.9577   9.5192  10.3038  11.0634  13.7629  19.0200  26.2100
    26.9259  35.1229

          k = 0.5455-0.1818 0.7273 (   343 PWs)   bands (ev):

     8.5006   8.9962   9.5428  10.2249  11.0197  15.1483  17.2093  25.0002
    27.8029  35.6363

          k = 0.4545-0.0909 0.6364 (   341 PWs)   bands (ev):

     8.3430   9.1381   9.2997  10.2640  10.8048  13.2434  20.1758  24.3522
    29.2729  36.6659

          k = 0.3636 0.0000 0.5455 (   340 PWs)   bands (ev):

     7.5507   9.0695   9.4727  10.3316  10.5025  11.8901  23.7122  24.6465
    31.2289  38.1360

          k =-0.1818 0.7273 0.0000 (   338 PWs)   bands (ev):

     7.8529   8.6089  10.0815  10.8753  10.9078  12.1860  24.8795  24.9412
    25.5214  33.4049

          k = 0.7273-0.1818 0.9091 (   341 PWs)   bands (ev):

     8.2335   8.6412   9.8999  10.7040  11.1140  14.1163  21.3807  23.1253
    25.3222  34.1964

          k = 0.6364-0.0909 0.8182 (   346 PWs)   bands (ev):

     8.5405   8.7515   9.6444  10.5280  11.0907  16.6473  18.1342  21.8245
    26.0808  34.7262

          k = 0.5455 0.0000 0.7273 (   342 PWs)   bands (ev):

     8.7713   8.8646   9.3229  10.4132  10.9238  15.2837  19.4409  21.5866
    27.4362  35.6027

          k = 0.8182-0.0909 1.0000 (   337 PWs)   bands (ev):

     7.9944   8.4236  10.5741  10.9505  11.2054  14.4554  20.8037  23.9135
    24.5167  32.8527

          k = 0.7273 0.0000 0.9091 (   345 PWs)   bands (ev):

     8.2251   8.5576  10.1490  10.7664  11.2030  16.1824  20.1529  20.9594
    24.8662  33.9422

          k = 0.6364-0.2727 1.0000 (   341 PWs)   bands (ev):

     8.4049   8.8829   9.3575  10.5830  10.9060  13.5337  21.9811  23.1976
    25.9403  37.9267

          k = 0.5455-0.1818 0.9091 (   343 PWs)   bands (ev):

     8.6753   8.9262   9.2902  10.4577  11.0786  15.7842  18.8959  23.2556
    24.3346  38.3868

          k = 0.6364-0.0909 1.0000 (   348 PWs)   bands (ev):

     8.4139   8.7641   9.6779  10.6263  11.2044  16.2244  21.0218  21.4962
    22.4919  37.2986

          k = 0.5455 0.0000 0.9091 (   346 PWs)   bands (ev):

     8.5761   8.9881   9.3473  10.4926  11.2031  18.3566  18.3909  21.0139
    22.9118  38.6364

     the Fermi energy is    12.7772 ev

!    total energy              =    -122.74319246 Ry
     Harris-Foulkes estimate   =    -122.74319246 Ry
     estimated scf accuracy    <          1.7E-10 Ry

     The total energy is the sum of the following terms:

     one-electron contribution =     -27.50611580 Ry
     hartree contribution      =      30.62004664 Ry
     xc contribution           =     -44.63176623 Ry
     ewald contribution        =     -81.22522859 Ry
     smearing contrib. (-TS)   =      -0.00012849 Ry

     convergence has been achieved in   6 iterations

     Forces acting on atoms (cartesian axes, Ry/au):

     atom    1 type  1   force =     0.00000000    0.00000000    0.00000000

     Total force =     0.000000     Total SCF correction =     0.000000


     Computing stress (Cartesian axis) and pressure

          total   stress  (Ry/bohr**3)                   (kbar)     P=   17.12
   0.00011637  -0.00000000  -0.00000000         17.12     -0.00     -0.00
  -0.00000000   0.00011637   0.00000000         -0.00     17.12      0.00
  -0.00000000   0.00000000   0.00011637         -0.00      0.00     17.12


     Writing output data file Cu.save/

     init_run     :      0.18s CPU      0.20s WALL (       1 calls)
     electrons    :      1.90s CPU      2.06s WALL (       1 calls)
     forces       :      0.03s CPU      0.04s WALL (       1 calls)
     stress       :      0.11s CPU      0.11s WALL (       1 calls)

     Called by init_run:
     wfcinit      :      0.07s CPU      0.08s WALL (       1 calls)
     potinit      :      0.00s CPU      0.00s WALL (       1 calls)
     hinit0       :      0.11s CPU      0.11s WALL (       1 calls)

     Called by electrons:
     c_bands      :      1.58s CPU      1.72s WALL (       7 calls)
     sum_band     :      0.28s CPU      0.31s WALL (       7 calls)
     v_of_rho     :      0.01s CPU      0.01s WALL (       7 calls)
     newd         :      0.02s CPU      0.02s WALL (       7 calls)
     mix_rho      :      0.00s CPU      0.00s WALL (       7 calls)

     Called by c_bands:
     init_us_2    :      0.05s CPU      0.05s WALL (     952 calls)
     cegterg      :      1.51s CPU      1.64s WALL (     392 calls)

     Called by sum_band:
     sum_band:bec :      0.00s CPU      0.00s WALL (     392 calls)
     addusdens    :      0.02s CPU      0.02s WALL (       7 calls)

     Called by *egterg:
     h_psi        :      1.13s CPU      1.23s WALL (    1223 calls)
     s_psi        :      0.03s CPU      0.04s WALL (    1223 calls)
     g_psi        :      0.00s CPU      0.00s WALL (     775 calls)
     cdiaghg      :      0.22s CPU      0.24s WALL (    1111 calls)

     Called by h_psi:
     h_psi:pot    :      1.12s CPU      1.22s WALL (    1223 calls)
     h_psi:calbec :      0.05s CPU      0.06s WALL (    1223 calls)
     vloc_psi     :      1.03s CPU      1.12s WALL (    1223 calls)
     add_vuspsi   :      0.03s CPU      0.04s WALL (    1223 calls)

     General routines
     calbec       :      0.10s CPU      0.10s WALL (    1895 calls)
     fft          :      0.01s CPU      0.01s WALL (     104 calls)
     ffts         :      0.00s CPU      0.00s WALL (       7 calls)
     fftw         :      1.15s CPU      1.25s WALL (   23648 calls)

     Parallel routines
     fft_scatt_xy :      0.09s CPU      0.10s WALL (   23759 calls)
     fft_scatt_yz :      0.47s CPU      0.51s WALL (   23759 calls)

     PWSCF        :     2.94s CPU         3.18s WALL


   This run was terminated on:  23:19:33  25Mar2024            

=------------------------------------------------------------------------------=
   JOB DONE.
=------------------------------------------------------------------------------=
