
     Program PWSCF v.6.3MaX starts on 25Mar2024 at 23:13: 7 

     This program is part of the open-source Quantum ESPRESSO suite
     for quantum simulation of materials; please cite
         "P. Giannozzi et al., J. Phys.:Condens. Matter 21 395502 (2009);
         "P. Giannozzi et al., J. Phys.:Condens. Matter 29 465901 (2017);
          URL http://www.quantum-espresso.org", 
     in publications or presentations arising from this work. More details at
     http://www.quantum-espresso.org/quote

     Parallel version (MPI), running on     5 processors

     MPI processes distributed on     1 nodes
     R & G space division:  proc/nbgrp/npool/nimage =       5
     Waiting for input...
     Reading input from standard input

     Current dimensions of program PWSCF are:
     Max number of different atomic species (ntypx) = 10
     Max number of k-points (npk) =  40000
     Max angular momentum in pseudopotentials (lmaxx) =  3
               file Cu.pbesol-dn-rrkjus_psl.1.0.0.UPF: wavefunction(s)  3D renormalized

     Subspace diagonalization in iterative solution of the eigenvalue problem:
     a serial algorithm will be used


     Parallelization info
     --------------------
     sticks:   dense  smooth     PW     G-vecs:    dense   smooth      PW
     Min          24      24     11                  187      187      51
     Max          25      25     11                  191      191      52
     Sum         121     121     55                  941      941     259



     bravais-lattice index     =            2
     lattice parameter (alat)  =       6.8300  a.u.
     unit-cell volume          =      79.6530 (a.u.)^3
     number of atoms/cell      =            1
     number of atomic types    =            1
     number of electrons       =        11.00
     number of Kohn-Sham states=           10
     kinetic-energy cutoff     =      20.0000  Ry
     charge density cutoff     =      80.0000  Ry
     convergence threshold     =      1.0E-08
     mixing beta               =       0.7000
     number of iterations used =            8  plain     mixing
     Exchange-correlation      = PBESOL ( 1  4 10  8 0 0)

     celldm(1)=   6.830000  celldm(2)=   0.000000  celldm(3)=   0.000000
     celldm(4)=   0.000000  celldm(5)=   0.000000  celldm(6)=   0.000000

     crystal axes: (cart. coord. in units of alat)
               a(1) = (  -0.500000   0.000000   0.500000 )  
               a(2) = (   0.000000   0.500000   0.500000 )  
               a(3) = (  -0.500000   0.500000   0.000000 )  

     reciprocal axes: (cart. coord. in units 2 pi/alat)
               b(1) = ( -1.000000 -1.000000  1.000000 )  
               b(2) = (  1.000000  1.000000  1.000000 )  
               b(3) = ( -1.000000  1.000000 -1.000000 )  


     PseudoPot. # 1 for Cu read from file:
     /home/lorenzo/pseudos/Cu/Cu.pbesol-dn-rrkjus_psl.1.0.0.UPF
     MD5 check sum: bfa4c7aafbc42e028d5f4ccf7ceed93d
     Pseudo is Ultrasoft + core correction, Zval = 11.0
     Generated using "atomic" code by A. Dal Corso v.6.3
     Using radial grid of 1199 points,  6 beta functions with: 
                l(1) =   0
                l(2) =   0
                l(3) =   1
                l(4) =   1
                l(5) =   2
                l(6) =   2
     Q(r) pseudized with 0 coefficients 


     atomic species   valence    mass     pseudopotential
        Cu            11.00    63.54600     Cu( 1.00)

     48 Sym. Ops., with inversion, found



   Cartesian axes

     site n.     atom                  positions (alat units)
         1           Cu  tau(   1) = (   0.0000000   0.0000000   0.0000000  )

     number of k points=    10  gaussian smearing, width (Ry)=  0.0100
                       cart. coord. in units 2pi/alat
        k(    1) = (   0.0000000   0.0000000   0.0000000), wk =   0.0160000
        k(    2) = (  -0.2000000   0.2000000  -0.2000000), wk =   0.1280000
        k(    3) = (  -0.4000000   0.4000000  -0.4000000), wk =   0.1280000
        k(    4) = (   0.0000000   0.4000000   0.0000000), wk =   0.0960000
        k(    5) = (  -0.2000000   0.6000000  -0.2000000), wk =   0.3840000
        k(    6) = (   0.6000000  -0.2000000   0.6000000), wk =   0.3840000
        k(    7) = (   0.4000000   0.0000000   0.4000000), wk =   0.1920000
        k(    8) = (   0.0000000   0.8000000   0.0000000), wk =   0.0960000
        k(    9) = (   0.8000000   0.0000000   0.8000000), wk =   0.1920000
        k(   10) = (   0.6000000  -0.2000000   1.0000000), wk =   0.3840000

     Dense  grid:      941 G-vectors     FFT dimensions: (  15,  15,  15)

     Estimated max dynamical RAM per process >       1.53 MB

     Estimated total dynamical RAM >       7.65 MB

     Check: negative/imaginary core charge=   -0.000088    0.000000

     Initial potential from superposition of free atoms

     starting charge   10.99979, renormalised to   11.00000
     Starting wfcs are    9 randomized atomic wfcs +    1 random wfcs

     total cpu time spent up to now is        0.8 secs

     Self-consistent Calculation

     iteration #  1     ecut=    20.00 Ry     beta= 0.70
     Davidson diagonalization with overlap
     ethr =  1.00E-02,  avg # of iterations =  3.5

     total cpu time spent up to now is        0.9 secs

     total energy              =    -121.31248982 Ry
     Harris-Foulkes estimate   =    -121.88982810 Ry
     estimated scf accuracy    <       0.69592075 Ry

     iteration #  2     ecut=    20.00 Ry     beta= 0.70
     Davidson diagonalization with overlap
     ethr =  6.33E-03,  avg # of iterations =  2.0

     total cpu time spent up to now is        0.9 secs

     total energy              =    -121.59285146 Ry
     Harris-Foulkes estimate   =    -122.04606510 Ry
     estimated scf accuracy    <       0.94118187 Ry

     iteration #  3     ecut=    20.00 Ry     beta= 0.70
     Davidson diagonalization with overlap
     ethr =  6.33E-03,  avg # of iterations =  1.5

     total cpu time spent up to now is        1.0 secs

     total energy              =    -121.70085599 Ry
     Harris-Foulkes estimate   =    -121.72075075 Ry
     estimated scf accuracy    <       0.02732743 Ry

     iteration #  4     ecut=    20.00 Ry     beta= 0.70
     Davidson diagonalization with overlap
     ethr =  2.48E-04,  avg # of iterations =  2.3

     total cpu time spent up to now is        1.0 secs

     total energy              =    -121.70620675 Ry
     Harris-Foulkes estimate   =    -121.73107111 Ry
     estimated scf accuracy    <       0.06351473 Ry

     iteration #  5     ecut=    20.00 Ry     beta= 0.70
     Davidson diagonalization with overlap
     ethr =  2.48E-04,  avg # of iterations =  2.0

     total cpu time spent up to now is        1.0 secs

     total energy              =    -121.71546933 Ry
     Harris-Foulkes estimate   =    -121.71540206 Ry
     estimated scf accuracy    <       0.00060494 Ry

     iteration #  6     ecut=    20.00 Ry     beta= 0.70
     Davidson diagonalization with overlap
     ethr =  5.50E-06,  avg # of iterations =  2.2

     total cpu time spent up to now is        1.1 secs

     total energy              =    -121.71516384 Ry
     Harris-Foulkes estimate   =    -121.71551456 Ry
     estimated scf accuracy    <       0.00080389 Ry

     iteration #  7     ecut=    20.00 Ry     beta= 0.70
     Davidson diagonalization with overlap
     ethr =  5.50E-06,  avg # of iterations =  1.3

     total cpu time spent up to now is        1.1 secs

     total energy              =    -121.71530315 Ry
     Harris-Foulkes estimate   =    -121.71530319 Ry
     estimated scf accuracy    <       0.00000047 Ry

     iteration #  8     ecut=    20.00 Ry     beta= 0.70
     Davidson diagonalization with overlap
     ethr =  4.32E-09,  avg # of iterations =  3.1

     total cpu time spent up to now is        1.1 secs

     total energy              =    -121.71530431 Ry
     Harris-Foulkes estimate   =    -121.71530437 Ry
     estimated scf accuracy    <       0.00000024 Ry

     iteration #  9     ecut=    20.00 Ry     beta= 0.70
     Davidson diagonalization with overlap
     ethr =  2.16E-09,  avg # of iterations =  1.0

     total cpu time spent up to now is        1.2 secs

     total energy              =    -121.71530431 Ry
     Harris-Foulkes estimate   =    -121.71530433 Ry
     estimated scf accuracy    <       0.00000003 Ry

     iteration # 10     ecut=    20.00 Ry     beta= 0.70
     Davidson diagonalization with overlap
     ethr =  2.31E-10,  avg # of iterations =  2.0

     total cpu time spent up to now is        1.2 secs

     End of self-consistent calculation

          k = 0.0000 0.0000 0.0000 (   113 PWs)   bands (ev):

     3.1484   8.7181   8.7181   8.7181   9.4260   9.4260  35.7132  37.6542
    37.6542  37.6542

          k =-0.2000 0.2000-0.2000 (   123 PWs)   bands (ev):

     4.5210   7.9567   8.5121   8.5121   9.1872   9.1872  27.6415  35.8673
    36.0592  36.0592

          k =-0.4000 0.4000-0.4000 (   123 PWs)   bands (ev):

     6.6095   8.1755   8.1755   9.5856   9.5856   9.9818  18.4997  34.3294
    34.5812  34.5812

          k = 0.0000 0.4000 0.0000 (   129 PWs)   bands (ev):

     4.9482   7.6535   8.3283   8.5482   8.5482   9.2715  31.2782  31.2782
    33.0798  33.7279

          k =-0.2000 0.6000-0.2000 (   118 PWs)   bands (ev):

     6.8452   7.6450   8.3696   8.9208  10.2408  10.8809  22.0849  29.1412
    29.4931  32.9980

          k = 0.6000-0.2000 0.6000 (   125 PWs)   bands (ev):

     7.1298   7.6681   8.4326   8.5346   9.5188  13.7185  16.9999  25.7580
    31.1151  33.4149

          k = 0.4000 0.0000 0.4000 (   125 PWs)   bands (ev):

     6.4276   7.5316   8.2479   8.5811   8.9216  10.4946  24.9048  25.6787
    36.0404  36.2405

          k = 0.0000 0.8000 0.0000 (   117 PWs)   bands (ev):

     6.6864   6.7453  10.0092  10.1474  10.1474  11.7041  22.7809  26.2699
    26.2699  30.9834

          k = 0.8000 0.0000 0.8000 (   118 PWs)   bands (ev):

     6.9434   7.2554   9.2906   9.5828   9.8968  15.9847  19.8209  20.1436
    26.9392  32.1557

          k = 0.6000-0.2000 1.0000 (   115 PWs)   bands (ev):

     7.3867   7.7334   8.2527   9.4727  10.2629  14.5568  20.9113  22.2833
    24.2186  39.4575

     the Fermi energy is    11.7244 ev

!    total energy              =    -121.71530432 Ry
     Harris-Foulkes estimate   =    -121.71530432 Ry
     estimated scf accuracy    <          3.7E-09 Ry

     The total energy is the sum of the following terms:

     one-electron contribution =     -25.90853264 Ry
     hartree contribution      =      29.04478533 Ry
     xc contribution           =     -43.62606355 Ry
     ewald contribution        =     -81.22522858 Ry
     smearing contrib. (-TS)   =      -0.00026488 Ry

     convergence has been achieved in  10 iterations

     Forces acting on atoms (cartesian axes, Ry/au):

     atom    1 type  1   force =     0.00000000    0.00000000    0.00000000

     Total force =     0.000000     Total SCF correction =     0.000000


     Computing stress (Cartesian axis) and pressure

          total   stress  (Ry/bohr**3)                   (kbar)     P=-5595.20
  -0.03803542  -0.00000000  -0.00000000      -5595.20     -0.00     -0.00
  -0.00000000  -0.03803542   0.00000000         -0.00  -5595.20      0.00
  -0.00000000   0.00000000  -0.03803542         -0.00      0.00  -5595.20


     Writing output data file Cu.save/

     init_run     :      0.09s CPU      0.10s WALL (       1 calls)
     electrons    :      0.31s CPU      0.36s WALL (       1 calls)
     forces       :      0.01s CPU      0.01s WALL (       1 calls)
     stress       :      0.01s CPU      0.02s WALL (       1 calls)

     Called by init_run:
     wfcinit      :      0.01s CPU      0.01s WALL (       1 calls)
     potinit      :      0.00s CPU      0.00s WALL (       1 calls)
     hinit0       :      0.08s CPU      0.08s WALL (       1 calls)

     Called by electrons:
     c_bands      :      0.24s CPU      0.29s WALL (      10 calls)
     sum_band     :      0.05s CPU      0.05s WALL (      10 calls)
     v_of_rho     :      0.01s CPU      0.01s WALL (      11 calls)
     newd         :      0.01s CPU      0.01s WALL (      11 calls)
     mix_rho      :      0.00s CPU      0.00s WALL (      10 calls)

     Called by c_bands:
     init_us_2    :      0.01s CPU      0.01s WALL (     230 calls)
     cegterg      :      0.23s CPU      0.27s WALL (     100 calls)

     Called by sum_band:
     sum_band:bec :      0.00s CPU      0.00s WALL (     100 calls)
     addusdens    :      0.01s CPU      0.01s WALL (      10 calls)

     Called by *egterg:
     h_psi        :      0.14s CPU      0.17s WALL (     319 calls)
     s_psi        :      0.00s CPU      0.00s WALL (     319 calls)
     g_psi        :      0.00s CPU      0.00s WALL (     209 calls)
     cdiaghg      :      0.06s CPU      0.07s WALL (     309 calls)

     Called by h_psi:
     h_psi:pot    :      0.14s CPU      0.17s WALL (     319 calls)
     h_psi:calbec :      0.01s CPU      0.01s WALL (     319 calls)
     vloc_psi     :      0.12s CPU      0.15s WALL (     319 calls)
     add_vuspsi   :      0.00s CPU      0.00s WALL (     319 calls)

     General routines
     calbec       :      0.01s CPU      0.01s WALL (     469 calls)
     fft          :      0.01s CPU      0.01s WALL (     147 calls)
     ffts         :      0.00s CPU      0.00s WALL (      10 calls)
     fftw         :      0.13s CPU      0.16s WALL (    5936 calls)

     Parallel routines
     fft_scatt_xy :      0.02s CPU      0.02s WALL (    6093 calls)
     fft_scatt_yz :      0.06s CPU      0.07s WALL (    6093 calls)

     PWSCF        :     1.16s CPU         1.27s WALL


   This run was terminated on:  23:13: 8  25Mar2024            

=------------------------------------------------------------------------------=
   JOB DONE.
=------------------------------------------------------------------------------=
