
     Program PWSCF v.6.3MaX starts on 25Mar2024 at 23:33:14 

     This program is part of the open-source Quantum ESPRESSO suite
     for quantum simulation of materials; please cite
         "P. Giannozzi et al., J. Phys.:Condens. Matter 21 395502 (2009);
         "P. Giannozzi et al., J. Phys.:Condens. Matter 29 465901 (2017);
          URL http://www.quantum-espresso.org", 
     in publications or presentations arising from this work. More details at
     http://www.quantum-espresso.org/quote

     Parallel version (MPI), running on     5 processors

     MPI processes distributed on     1 nodes
     R & G space division:  proc/nbgrp/npool/nimage =       5
     Waiting for input...
     Reading input from standard input

     Current dimensions of program PWSCF are:
     Max number of different atomic species (ntypx) = 10
     Max number of k-points (npk) =  40000
     Max angular momentum in pseudopotentials (lmaxx) =  3
               file Cu.pbesol-dn-kjpaw_psl.1.0.0.UPF: wavefunction(s)  4S 3D renormalized

     Subspace diagonalization in iterative solution of the eigenvalue problem:
     a serial algorithm will be used


     Parallelization info
     --------------------
     sticks:   dense  smooth     PW     G-vecs:    dense   smooth      PW
     Min          87      87     27                 1245     1245     213
     Max          88      88     28                 1247     1247     214
     Sum         439     439    139                 6231     6231    1067



     bravais-lattice index     =            2
     lattice parameter (alat)  =       6.8300  a.u.
     unit-cell volume          =      79.6530 (a.u.)^3
     number of atoms/cell      =            1
     number of atomic types    =            1
     number of electrons       =        11.00
     number of Kohn-Sham states=           10
     kinetic-energy cutoff     =      70.0000  Ry
     charge density cutoff     =     280.0000  Ry
     convergence threshold     =      1.0E-08
     mixing beta               =       0.7000
     number of iterations used =            8  plain     mixing
     Exchange-correlation      = SLA PW PSX PSC ( 1  4 10  8 0 0)

     celldm(1)=   6.830000  celldm(2)=   0.000000  celldm(3)=   0.000000
     celldm(4)=   0.000000  celldm(5)=   0.000000  celldm(6)=   0.000000

     crystal axes: (cart. coord. in units of alat)
               a(1) = (  -0.500000   0.000000   0.500000 )  
               a(2) = (   0.000000   0.500000   0.500000 )  
               a(3) = (  -0.500000   0.500000   0.000000 )  

     reciprocal axes: (cart. coord. in units 2 pi/alat)
               b(1) = ( -1.000000 -1.000000  1.000000 )  
               b(2) = (  1.000000  1.000000  1.000000 )  
               b(3) = ( -1.000000  1.000000 -1.000000 )  


     PseudoPot. # 1 for Cu read from file:
     /home/lorenzo/pseudos/Cu/Cu.pbesol-dn-kjpaw_psl.1.0.0.UPF
     MD5 check sum: 1e9735a74797514c934643dbd229f231
     Pseudo is Projector augmented-wave + core cor, Zval = 11.0
     Generated using "atomic" code by A. Dal Corso v.6.3
     Shape of augmentation charge: PSQ
     Using radial grid of 1199 points,  6 beta functions with: 
                l(1) =   0
                l(2) =   0
                l(3) =   1
                l(4) =   1
                l(5) =   2
                l(6) =   2
     Q(r) pseudized with 0 coefficients 


     atomic species   valence    mass     pseudopotential
        Cu            11.00    63.54600     Cu( 1.00)

     48 Sym. Ops., with inversion, found



   Cartesian axes

     site n.     atom                  positions (alat units)
         1           Cu  tau(   1) = (   0.0000000   0.0000000   0.0000000  )

     number of k points=     3  gaussian smearing, width (Ry)=  0.0100
                       cart. coord. in units 2pi/alat
        k(    1) = (   0.0000000   0.0000000   0.0000000), wk =   0.2500000
        k(    2) = (   0.5000000  -0.5000000   0.5000000), wk =   1.0000000
        k(    3) = (   0.0000000  -1.0000000   0.0000000), wk =   0.7500000

     Dense  grid:     6231 G-vectors     FFT dimensions: (  25,  25,  25)

     Estimated max dynamical RAM per process >       6.15 MB

     Estimated total dynamical RAM >      30.75 MB

     Initial potential from superposition of free atoms

     starting charge   10.99979, renormalised to   11.00000
     Starting wfcs are    9 randomized atomic wfcs +    1 random wfcs
     Checking if some PAW data can be deallocated... 

     total cpu time spent up to now is        1.0 secs

     Self-consistent Calculation

     iteration #  1     ecut=    70.00 Ry     beta= 0.70
     Davidson diagonalization with overlap
     ethr =  1.00E-02,  avg # of iterations =  3.3

     Threshold (ethr) on eigenvalues was too large:
     Diagonalizing with lowered threshold

     Davidson diagonalization with overlap
     ethr =  6.28E-04,  avg # of iterations =  1.0

     total cpu time spent up to now is        1.2 secs

     total energy              =    -210.23044008 Ry
     Harris-Foulkes estimate   =    -210.28384400 Ry
     estimated scf accuracy    <       0.06922528 Ry

     iteration #  2     ecut=    70.00 Ry     beta= 0.70
     Davidson diagonalization with overlap
     ethr =  6.29E-04,  avg # of iterations =  2.0

     total cpu time spent up to now is        1.4 secs

     total energy              =    -210.24077883 Ry
     Harris-Foulkes estimate   =    -210.34184859 Ry
     estimated scf accuracy    <       0.26743890 Ry

     iteration #  3     ecut=    70.00 Ry     beta= 0.70
     Davidson diagonalization with overlap
     ethr =  6.29E-04,  avg # of iterations =  2.0

     total cpu time spent up to now is        1.5 secs

     total energy              =    -210.26782781 Ry
     Harris-Foulkes estimate   =    -210.27213808 Ry
     estimated scf accuracy    <       0.01185174 Ry

     iteration #  4     ecut=    70.00 Ry     beta= 0.70
     Davidson diagonalization with overlap
     ethr =  1.08E-04,  avg # of iterations =  2.3

     total cpu time spent up to now is        1.7 secs

     total energy              =    -210.26798681 Ry
     Harris-Foulkes estimate   =    -210.27169920 Ry
     estimated scf accuracy    <       0.01935827 Ry

     iteration #  5     ecut=    70.00 Ry     beta= 0.70
     Davidson diagonalization with overlap
     ethr =  1.08E-04,  avg # of iterations =  2.3

     total cpu time spent up to now is        1.8 secs

     total energy              =    -210.27022088 Ry
     Harris-Foulkes estimate   =    -210.27069175 Ry
     estimated scf accuracy    <       0.00482949 Ry

     iteration #  6     ecut=    70.00 Ry     beta= 0.70
     Davidson diagonalization with overlap
     ethr =  4.39E-05,  avg # of iterations =  1.0

     total cpu time spent up to now is        1.9 secs

     total energy              =    -210.27024619 Ry
     Harris-Foulkes estimate   =    -210.27033484 Ry
     estimated scf accuracy    <       0.00086232 Ry

     iteration #  7     ecut=    70.00 Ry     beta= 0.70
     Davidson diagonalization with overlap
     ethr =  7.84E-06,  avg # of iterations =  1.0

     total cpu time spent up to now is        2.1 secs

     total energy              =    -210.27028321 Ry
     Harris-Foulkes estimate   =    -210.27028459 Ry
     estimated scf accuracy    <       0.00000870 Ry

     iteration #  8     ecut=    70.00 Ry     beta= 0.70
     Davidson diagonalization with overlap
     ethr =  7.91E-08,  avg # of iterations =  2.7

     total cpu time spent up to now is        2.2 secs

     total energy              =    -210.27028475 Ry
     Harris-Foulkes estimate   =    -210.27028473 Ry
     estimated scf accuracy    <       0.00000266 Ry

     iteration #  9     ecut=    70.00 Ry     beta= 0.70
     Davidson diagonalization with overlap
     ethr =  2.42E-08,  avg # of iterations =  1.0

     total cpu time spent up to now is        2.4 secs

     total energy              =    -210.27028430 Ry
     Harris-Foulkes estimate   =    -210.27028475 Ry
     estimated scf accuracy    <       0.00000292 Ry

     iteration # 10     ecut=    70.00 Ry     beta= 0.70
     Davidson diagonalization with overlap
     ethr =  2.42E-08,  avg # of iterations =  1.0

     total cpu time spent up to now is        2.5 secs

     total energy              =    -210.27028456 Ry
     Harris-Foulkes estimate   =    -210.27028462 Ry
     estimated scf accuracy    <       0.00000060 Ry

     iteration # 11     ecut=    70.00 Ry     beta= 0.70
     Davidson diagonalization with overlap
     ethr =  5.44E-09,  avg # of iterations =  1.0

     total cpu time spent up to now is        2.6 secs

     End of self-consistent calculation

          k = 0.0000 0.0000 0.0000 (   749 PWs)   bands (ev):

     3.0503   9.7556   9.7556   9.7556  10.6428  10.6428  35.3275  37.7928
    37.7928  37.7928

          k = 0.5000-0.5000 0.5000 (   778 PWs)   bands (ev):

     7.5399   9.7352   9.7352  11.2171  11.2171  11.4133  16.3805  33.7718
    34.5431  34.5431

          k = 0.0000-1.0000 0.0000 (   790 PWs)   bands (ev):

     7.8082   8.2921  11.2154  11.3538  11.3538  13.9061  19.7136  25.5464
    25.5464  30.1339

     the Fermi energy is    11.5075 ev

!    total energy              =    -210.27028458 Ry
     Harris-Foulkes estimate   =    -210.27028459 Ry
     estimated scf accuracy    <          6.7E-09 Ry

     total all-electron energy =     -3307.149346 Ry

     The total energy is the sum of the following terms:

     one-electron contribution =     -28.01144177 Ry
     hartree contribution      =      30.72962924 Ry
     xc contribution           =     -44.16888600 Ry
     ewald contribution        =     -81.22522855 Ry
     one-center paw contrib.   =     -87.59134741 Ry
     smearing contrib. (-TS)   =      -0.00301011 Ry

     convergence has been achieved in  11 iterations

     Forces acting on atoms (cartesian axes, Ry/au):

     atom    1 type  1   force =     0.00000000    0.00000000    0.00000000

     Total force =     0.000000     Total SCF correction =     0.000000


     Computing stress (Cartesian axis) and pressure

          total   stress  (Ry/bohr**3)                   (kbar)     P=  185.93
   0.00126390  -0.00000000  -0.00000000        185.93     -0.00     -0.00
  -0.00000000   0.00126390   0.00000000         -0.00    185.93      0.00
  -0.00000000   0.00000000   0.00126390         -0.00      0.00    185.93


     Writing output data file Cu.save/

     init_run     :      0.28s CPU      0.30s WALL (       1 calls)
     electrons    :      1.41s CPU      1.59s WALL (       1 calls)
     forces       :      0.02s CPU      0.02s WALL (       1 calls)
     stress       :      0.06s CPU      0.06s WALL (       1 calls)

     Called by init_run:
     wfcinit      :      0.01s CPU      0.01s WALL (       1 calls)
     potinit      :      0.10s CPU      0.11s WALL (       1 calls)
     hinit0       :      0.15s CPU      0.15s WALL (       1 calls)

     Called by electrons:
     c_bands      :      0.20s CPU      0.21s WALL (      12 calls)
     sum_band     :      0.13s CPU      0.13s WALL (      12 calls)
     v_of_rho     :      0.04s CPU      0.04s WALL (      12 calls)
     newd         :      0.07s CPU      0.08s WALL (      12 calls)
     PAW_pot      :      1.07s CPU      1.23s WALL (      12 calls)
     mix_rho      :      0.01s CPU      0.01s WALL (      12 calls)

     Called by c_bands:
     init_us_2    :      0.01s CPU      0.01s WALL (      81 calls)
     cegterg      :      0.19s CPU      0.20s WALL (      36 calls)

     Called by sum_band:
     sum_band:bec :      0.00s CPU      0.00s WALL (      36 calls)
     addusdens    :      0.07s CPU      0.07s WALL (      12 calls)

     Called by *egterg:
     h_psi        :      0.15s CPU      0.16s WALL (     101 calls)
     s_psi        :      0.01s CPU      0.01s WALL (     101 calls)
     g_psi        :      0.00s CPU      0.00s WALL (      62 calls)
     cdiaghg      :      0.02s CPU      0.02s WALL (      95 calls)

     Called by h_psi:
     h_psi:pot    :      0.15s CPU      0.16s WALL (     101 calls)
     h_psi:calbec :      0.01s CPU      0.01s WALL (     101 calls)
     vloc_psi     :      0.14s CPU      0.14s WALL (     101 calls)
     add_vuspsi   :      0.01s CPU      0.01s WALL (     101 calls)

     General routines
     calbec       :      0.01s CPU      0.01s WALL (     152 calls)
     fft          :      0.02s CPU      0.03s WALL (     159 calls)
     ffts         :      0.00s CPU      0.00s WALL (      12 calls)
     fftw         :      0.16s CPU      0.16s WALL (    1998 calls)

     Parallel routines
     fft_scatt_xy :      0.01s CPU      0.02s WALL (    2169 calls)
     fft_scatt_yz :      0.05s CPU      0.05s WALL (    2169 calls)

     PWSCF        :     2.51s CPU         2.75s WALL


   This run was terminated on:  23:33:16  25Mar2024            

=------------------------------------------------------------------------------=
   JOB DONE.
=------------------------------------------------------------------------------=
