
     Program PWSCF v.6.3MaX starts on 25Mar2024 at 23: 7:54 

     This program is part of the open-source Quantum ESPRESSO suite
     for quantum simulation of materials; please cite
         "P. Giannozzi et al., J. Phys.:Condens. Matter 21 395502 (2009);
         "P. Giannozzi et al., J. Phys.:Condens. Matter 29 465901 (2017);
          URL http://www.quantum-espresso.org", 
     in publications or presentations arising from this work. More details at
     http://www.quantum-espresso.org/quote

     Parallel version (MPI), running on     5 processors

     MPI processes distributed on     1 nodes
     R & G space division:  proc/nbgrp/npool/nimage =       5
     Waiting for input...
     Reading input from standard input

     Current dimensions of program PWSCF are:
     Max number of different atomic species (ntypx) = 10
     Max number of k-points (npk) =  40000
     Max angular momentum in pseudopotentials (lmaxx) =  3
               file Cu.pbe-dn-kjpaw_psl.1.0.0.UPF: wavefunction(s)  4S 3D renormalized

     Subspace diagonalization in iterative solution of the eigenvalue problem:
     a serial algorithm will be used


     Parallelization info
     --------------------
     sticks:   dense  smooth     PW     G-vecs:    dense   smooth      PW
     Min         129     129     39                 2168     2168     376
     Max         130     130     40                 2171     2171     380
     Sum         649     649    199                10849    10849    1893



     bravais-lattice index     =            2
     lattice parameter (alat)  =       6.8300  a.u.
     unit-cell volume          =      79.6530 (a.u.)^3
     number of atoms/cell      =            1
     number of atomic types    =            1
     number of electrons       =        11.00
     number of Kohn-Sham states=           10
     kinetic-energy cutoff     =     100.0000  Ry
     charge density cutoff     =     400.0000  Ry
     convergence threshold     =      1.0E-08
     mixing beta               =       0.7000
     number of iterations used =            8  plain     mixing
     Exchange-correlation      = SLA PW PBX PBC ( 1  4  3  4 0 0)

     celldm(1)=   6.830000  celldm(2)=   0.000000  celldm(3)=   0.000000
     celldm(4)=   0.000000  celldm(5)=   0.000000  celldm(6)=   0.000000

     crystal axes: (cart. coord. in units of alat)
               a(1) = (  -0.500000   0.000000   0.500000 )  
               a(2) = (   0.000000   0.500000   0.500000 )  
               a(3) = (  -0.500000   0.500000   0.000000 )  

     reciprocal axes: (cart. coord. in units 2 pi/alat)
               b(1) = ( -1.000000 -1.000000  1.000000 )  
               b(2) = (  1.000000  1.000000  1.000000 )  
               b(3) = ( -1.000000  1.000000 -1.000000 )  


     PseudoPot. # 1 for Cu read from file:
     /home/lorenzo/pseudos/Cu/Cu.pbe-dn-kjpaw_psl.1.0.0.UPF
     MD5 check sum: cfffd1f38ee05704b3e17f46f1730a6f
     Pseudo is Projector augmented-wave + core cor, Zval = 11.0
     Generated using "atomic" code by A. Dal Corso v.6.3
     Shape of augmentation charge: PSQ
     Using radial grid of 1199 points,  6 beta functions with: 
                l(1) =   0
                l(2) =   0
                l(3) =   1
                l(4) =   1
                l(5) =   2
                l(6) =   2
     Q(r) pseudized with 0 coefficients 


     atomic species   valence    mass     pseudopotential
        Cu            11.00    63.54600     Cu( 1.00)

     48 Sym. Ops., with inversion, found



   Cartesian axes

     site n.     atom                  positions (alat units)
         1           Cu  tau(   1) = (   0.0000000   0.0000000   0.0000000  )

     number of k points=    29  gaussian smearing, width (Ry)=  0.0100
                       cart. coord. in units 2pi/alat
        k(    1) = (   0.0000000   0.0000000   0.0000000), wk =   0.0039062
        k(    2) = (  -0.1250000   0.1250000  -0.1250000), wk =   0.0312500
        k(    3) = (  -0.2500000   0.2500000  -0.2500000), wk =   0.0312500
        k(    4) = (  -0.3750000   0.3750000  -0.3750000), wk =   0.0312500
        k(    5) = (   0.5000000  -0.5000000   0.5000000), wk =   0.0156250
        k(    6) = (   0.0000000   0.2500000   0.0000000), wk =   0.0234375
        k(    7) = (  -0.1250000   0.3750000  -0.1250000), wk =   0.0937500
        k(    8) = (  -0.2500000   0.5000000  -0.2500000), wk =   0.0937500
        k(    9) = (   0.6250000  -0.3750000   0.6250000), wk =   0.0937500
        k(   10) = (   0.5000000  -0.2500000   0.5000000), wk =   0.0937500
        k(   11) = (   0.3750000  -0.1250000   0.3750000), wk =   0.0937500
        k(   12) = (   0.2500000   0.0000000   0.2500000), wk =   0.0468750
        k(   13) = (   0.0000000   0.5000000   0.0000000), wk =   0.0234375
        k(   14) = (  -0.1250000   0.6250000  -0.1250000), wk =   0.0937500
        k(   15) = (   0.7500000  -0.2500000   0.7500000), wk =   0.0937500
        k(   16) = (   0.6250000  -0.1250000   0.6250000), wk =   0.0937500
        k(   17) = (   0.5000000   0.0000000   0.5000000), wk =   0.0468750
        k(   18) = (   0.0000000   0.7500000   0.0000000), wk =   0.0234375
        k(   19) = (   0.8750000  -0.1250000   0.8750000), wk =   0.0937500
        k(   20) = (   0.7500000   0.0000000   0.7500000), wk =   0.0468750
        k(   21) = (   0.0000000  -1.0000000   0.0000000), wk =   0.0117188
        k(   22) = (  -0.2500000   0.5000000   0.0000000), wk =   0.0937500
        k(   23) = (   0.6250000  -0.3750000   0.8750000), wk =   0.1875000
        k(   24) = (   0.5000000  -0.2500000   0.7500000), wk =   0.0937500
        k(   25) = (   0.7500000  -0.2500000   1.0000000), wk =   0.0937500
        k(   26) = (   0.6250000  -0.1250000   0.8750000), wk =   0.1875000
        k(   27) = (   0.5000000   0.0000000   0.7500000), wk =   0.0937500
        k(   28) = (  -0.2500000  -1.0000000   0.0000000), wk =   0.0468750
        k(   29) = (  -0.5000000  -1.0000000   0.0000000), wk =   0.0234375

     Dense  grid:    10849 G-vectors     FFT dimensions: (  32,  32,  32)

     Estimated max dynamical RAM per process >      11.10 MB

     Estimated total dynamical RAM >      55.52 MB

     Initial potential from superposition of free atoms

     starting charge   10.99977, renormalised to   11.00000
     Starting wfcs are    9 randomized atomic wfcs +    1 random wfcs
     Checking if some PAW data can be deallocated... 

     total cpu time spent up to now is        1.3 secs

     Self-consistent Calculation

     iteration #  1     ecut=   100.00 Ry     beta= 0.70
     Davidson diagonalization with overlap
     ethr =  1.00E-02,  avg # of iterations =  3.7

     Threshold (ethr) on eigenvalues was too large:
     Diagonalizing with lowered threshold

     Davidson diagonalization with overlap
     ethr =  5.70E-04,  avg # of iterations =  1.0

     total cpu time spent up to now is        2.3 secs

     total energy              =    -213.05760834 Ry
     Harris-Foulkes estimate   =    -213.10687214 Ry
     estimated scf accuracy    <       0.06252645 Ry

     iteration #  2     ecut=   100.00 Ry     beta= 0.70
     Davidson diagonalization with overlap
     ethr =  5.68E-04,  avg # of iterations =  2.1

     total cpu time spent up to now is        2.8 secs

     total energy              =    -213.05879879 Ry
     Harris-Foulkes estimate   =    -213.14712539 Ry
     estimated scf accuracy    <       0.23073514 Ry

     iteration #  3     ecut=   100.00 Ry     beta= 0.70
     Davidson diagonalization with overlap
     ethr =  5.68E-04,  avg # of iterations =  2.1

     total cpu time spent up to now is        3.3 secs

     total energy              =    -213.09490770 Ry
     Harris-Foulkes estimate   =    -213.09495989 Ry
     estimated scf accuracy    <       0.00011631 Ry

     iteration #  4     ecut=   100.00 Ry     beta= 0.70
     Davidson diagonalization with overlap
     ethr =  1.06E-06,  avg # of iterations =  2.4

     total cpu time spent up to now is        3.8 secs

     total energy              =    -213.09496206 Ry
     Harris-Foulkes estimate   =    -213.09497158 Ry
     estimated scf accuracy    <       0.00002640 Ry

     iteration #  5     ecut=   100.00 Ry     beta= 0.70
     Davidson diagonalization with overlap
     ethr =  2.40E-07,  avg # of iterations =  1.1

     total cpu time spent up to now is        4.3 secs

     total energy              =    -213.09496701 Ry
     Harris-Foulkes estimate   =    -213.09496728 Ry
     estimated scf accuracy    <       0.00000075 Ry

     iteration #  6     ecut=   100.00 Ry     beta= 0.70
     Davidson diagonalization with overlap
     ethr =  6.80E-09,  avg # of iterations =  1.6

     total cpu time spent up to now is        4.7 secs

     End of self-consistent calculation

          k = 0.0000 0.0000 0.0000 (  1363 PWs)   bands (ev):

     3.2690   9.6779   9.6779   9.6779  10.5105  10.5105  35.5887  37.9892
    37.9892  37.9892

          k =-0.1250 0.1250-0.1250 (  1357 PWs)   bands (ev):

     3.8321   9.5664   9.7725   9.7725  10.4812  10.4812  31.5246  36.1256
    36.7172  36.7172

          k =-0.2500 0.2500-0.2500 (  1345 PWs)   bands (ev):

     5.3929   9.4165   9.8356   9.8356  10.5945  10.5945  25.1184  35.3719
    35.4743  35.4743

          k =-0.3750 0.3750-0.3750 (  1350 PWs)   bands (ev):

     7.1241   9.7140   9.7140  10.0570  10.9213  10.9213  19.5593  34.4103
    34.8794  34.8794

          k = 0.5000-0.5000 0.5000 (  1350 PWs)   bands (ev):

     7.5894   9.6439   9.6439  11.0855  11.0855  11.6290  16.4333  33.9944
    34.7568  34.7568

          k = 0.0000 0.2500 0.0000 (  1355 PWs)   bands (ev):

     4.0178   9.4611   9.8571   9.8571  10.3196  10.5905  33.7008  33.9382
    33.9382  35.7542

          k =-0.1250 0.3750-0.1250 (  1344 PWs)   bands (ev):

     5.2477   9.2447   9.8899  10.0042  10.3886  10.7130  27.5710  32.1407
    33.5086  35.9477

          k =-0.2500 0.5000-0.2500 (  1339 PWs)   bands (ev):

     7.0287   9.2738   9.6503   9.9445  10.9800  11.1287  21.6513  31.4269
    32.1316  33.7896

          k = 0.6250-0.3750 0.6250 (  1344 PWs)   bands (ev):

     7.8491   9.4407   9.8330  10.0088  11.0970  12.7989  17.1128  30.1563
    31.9351  33.5150

          k = 0.5000-0.2500 0.5000 (  1359 PWs)   bands (ev):

     7.7409   9.5135   9.8325   9.8599  10.8776  12.2509  18.3672  29.0001
    33.7361  34.3610

          k = 0.3750-0.1250 0.3750 (  1348 PWs)   bands (ev):

     6.4617   9.2770   9.7221   9.9622  10.4526  11.1695  23.5405  28.9165
    36.2780  36.7256

          k = 0.2500 0.0000 0.2500 (  1365 PWs)   bands (ev):

     4.7348   9.3867   9.8523   9.9317  10.3016  10.6821  29.4337  30.1486
    38.3020  40.0233

          k = 0.0000 0.5000 0.0000 (  1331 PWs)   bands (ev):

     6.0364   8.9522  10.0409  10.3462  10.3462  10.7856  29.7674  29.7674
    31.0547  31.7025

          k =-0.1250 0.6250-0.1250 (  1339 PWs)   bands (ev):

     7.3548   8.7575   9.8587  10.4401  11.0068  11.2717  24.6066  27.8228
    28.5776  32.2189

          k = 0.7500-0.2500 0.7500 (  1340 PWs)   bands (ev):

     8.2408   8.8220   9.6904  10.3231  11.1264  13.6164  19.3765  25.2396
    28.7700  32.3147

          k = 0.6250-0.1250 0.6250 (  1339 PWs)   bands (ev):

     8.4902   9.0068   9.5181  10.2248  10.8983  14.8038  17.9208  23.6475
    30.3670  32.9813

          k = 0.5000 0.0000 0.5000 (  1340 PWs)   bands (ev):

     7.9492   9.1637   9.3736  10.1809  10.5099  12.3899  22.3760  23.5794
    33.1448  34.4488

          k = 0.0000 0.7500 0.0000 (  1359 PWs)   bands (ev):

     7.6652   8.4631  10.9410  10.9410  10.9839  11.4331  24.0855  26.8470
    26.8470  30.5980

          k = 0.8750-0.1250 0.8750 (  1343 PWs)   bands (ev):

     7.9683   8.4159  10.5833  10.8634  11.1686  13.9733  21.4110  22.9125
    26.5694  31.4295

          k = 0.7500 0.0000 0.7500 (  1350 PWs)   bands (ev):

     8.3843   8.6183   9.9310  10.6448  11.0321  16.9920  18.3990  20.5049
    27.8334  31.9889

          k = 0.0000-1.0000 0.0000 (  1362 PWs)   bands (ev):

     7.7963   8.2661  11.0670  11.2302  11.2302  14.1350  19.7842  25.7635
    25.7635  30.2555

          k =-0.2500 0.5000 0.0000 (  1343 PWs)   bands (ev):

     6.6292   9.0310   9.6687  10.3554  10.3941  11.2000  25.9853  26.6640
    31.9573  36.5632

          k = 0.6250-0.3750 0.8750 (  1346 PWs)   bands (ev):

     8.0364   9.0782   9.3980  10.2305  10.8514  12.5430  20.6660  26.1370
    29.0555  36.6300

          k = 0.5000-0.2500 0.7500 (  1356 PWs)   bands (ev):

     8.3647   9.0716   9.5995  10.1280  11.0296  14.7746  16.9265  26.8674
    27.2405  36.3531

          k = 0.7500-0.2500 1.0000 (  1339 PWs)   bands (ev):

     8.0706   8.6431   9.8268  10.7850  10.9376  12.9060  23.5890  24.3175
    24.7487  34.8648

          k = 0.6250-0.1250 0.8750 (  1342 PWs)   bands (ev):

     8.5001   8.7679   9.5672  10.5354  11.1100  16.0030  19.0438  22.4378
    24.6781  35.9911

          k = 0.5000 0.0000 0.7500 (  1342 PWs)   bands (ev):

     8.7371   8.9410   9.1806  10.4219  10.9418  15.1156  19.8448  21.8034
    26.3971  37.1503

          k =-0.2500-1.0000 0.0000 (  1350 PWs)   bands (ev):

     8.1207   8.4828  10.2885  10.8172  11.2306  15.7514  20.0768  22.6823
    23.5905  34.3061

          k =-0.5000-1.0000 0.0000 (  1348 PWs)   bands (ev):

     8.5439   9.1577   9.1577  10.4673  11.2309  18.8662  18.8662  20.9813
    21.4609  41.0725

     the Fermi energy is    12.6355 ev

!    total energy              =    -213.09496716 Ry
     Harris-Foulkes estimate   =    -213.09496716 Ry
     estimated scf accuracy    <          2.9E-10 Ry

     total all-electron energy =     -3309.974733 Ry

     The total energy is the sum of the following terms:

     one-electron contribution =     -28.01724141 Ry
     hartree contribution      =      30.62421694 Ry
     xc contribution           =     -44.62998948 Ry
     ewald contribution        =     -81.22522855 Ry
     one-center paw contrib.   =     -89.84631881 Ry
     smearing contrib. (-TS)   =      -0.00040584 Ry

     convergence has been achieved in   6 iterations

     Forces acting on atoms (cartesian axes, Ry/au):

     atom    1 type  1   force =     0.00000000    0.00000000    0.00000000

     Total force =     0.000000     Total SCF correction =     0.000000


     Computing stress (Cartesian axis) and pressure

          total   stress  (Ry/bohr**3)                   (kbar)     P=   27.33
   0.00018577   0.00000000   0.00000000         27.33      0.00      0.00
   0.00000000   0.00018577  -0.00000000          0.00     27.33     -0.00
   0.00000000  -0.00000000   0.00018577          0.00     -0.00     27.33


     Writing output data file Cu.save/

     init_run     :      0.44s CPU      0.48s WALL (       1 calls)
     electrons    :      3.23s CPU      3.44s WALL (       1 calls)
     forces       :      0.05s CPU      0.06s WALL (       1 calls)
     stress       :      0.20s CPU      0.20s WALL (       1 calls)

     Called by init_run:
     wfcinit      :      0.11s CPU      0.11s WALL (       1 calls)
     potinit      :      0.12s CPU      0.13s WALL (       1 calls)
     hinit0       :      0.19s CPU      0.20s WALL (       1 calls)

     Called by electrons:
     c_bands      :      2.07s CPU      2.23s WALL (       7 calls)
     sum_band     :      0.49s CPU      0.51s WALL (       7 calls)
     v_of_rho     :      0.04s CPU      0.05s WALL (       7 calls)
     newd         :      0.07s CPU      0.07s WALL (       7 calls)
     PAW_pot      :      0.67s CPU      0.71s WALL (       7 calls)
     mix_rho      :      0.00s CPU      0.00s WALL (       7 calls)

     Called by c_bands:
     init_us_2    :      0.07s CPU      0.08s WALL (     493 calls)
     cegterg      :      1.96s CPU      2.12s WALL (     203 calls)

     Called by sum_band:
     sum_band:bec :      0.00s CPU      0.00s WALL (     203 calls)
     addusdens    :      0.07s CPU      0.08s WALL (       7 calls)

     Called by *egterg:
     h_psi        :      1.59s CPU      1.73s WALL (     636 calls)
     s_psi        :      0.05s CPU      0.06s WALL (     636 calls)
     g_psi        :      0.00s CPU      0.01s WALL (     404 calls)
     cdiaghg      :      0.13s CPU      0.13s WALL (     578 calls)

     Called by h_psi:
     h_psi:pot    :      1.59s CPU      1.72s WALL (     636 calls)
     h_psi:calbec :      0.09s CPU      0.09s WALL (     636 calls)
     vloc_psi     :      1.44s CPU      1.57s WALL (     636 calls)
     add_vuspsi   :      0.06s CPU      0.06s WALL (     636 calls)

     General routines
     calbec       :      0.14s CPU      0.15s WALL (     984 calls)
     fft          :      0.03s CPU      0.03s WALL (     104 calls)
     ffts         :      0.00s CPU      0.00s WALL (       7 calls)
     fftw         :      1.64s CPU      1.78s WALL (   12268 calls)

     Parallel routines
     fft_scatt_xy :      0.15s CPU      0.17s WALL (   12379 calls)
     fft_scatt_yz :      0.58s CPU      0.63s WALL (   12379 calls)

     PWSCF        :     4.74s CPU         5.04s WALL


   This run was terminated on:  23: 8: 0  25Mar2024            

=------------------------------------------------------------------------------=
   JOB DONE.
=------------------------------------------------------------------------------=
