
     Program PWSCF v.6.3MaX starts on 25Mar2024 at 23: 7: 2 

     This program is part of the open-source Quantum ESPRESSO suite
     for quantum simulation of materials; please cite
         "P. Giannozzi et al., J. Phys.:Condens. Matter 21 395502 (2009);
         "P. Giannozzi et al., J. Phys.:Condens. Matter 29 465901 (2017);
          URL http://www.quantum-espresso.org", 
     in publications or presentations arising from this work. More details at
     http://www.quantum-espresso.org/quote

     Parallel version (MPI), running on     5 processors

     MPI processes distributed on     1 nodes
     R & G space division:  proc/nbgrp/npool/nimage =       5
     Waiting for input...
     Reading input from standard input

     Current dimensions of program PWSCF are:
     Max number of different atomic species (ntypx) = 10
     Max number of k-points (npk) =  40000
     Max angular momentum in pseudopotentials (lmaxx) =  3
               file Cu.pbe-dn-kjpaw_psl.1.0.0.UPF: wavefunction(s)  4S 3D renormalized

     Subspace diagonalization in iterative solution of the eigenvalue problem:
     a serial algorithm will be used


     Parallelization info
     --------------------
     sticks:   dense  smooth     PW     G-vecs:    dense   smooth      PW
     Min         129     129     39                 2168     2168     361
     Max         130     130     40                 2171     2171     363
     Sum         649     649    199                10849    10849    1807



     bravais-lattice index     =            2
     lattice parameter (alat)  =       6.8300  a.u.
     unit-cell volume          =      79.6530 (a.u.)^3
     number of atoms/cell      =            1
     number of atomic types    =            1
     number of electrons       =        11.00
     number of Kohn-Sham states=           10
     kinetic-energy cutoff     =     100.0000  Ry
     charge density cutoff     =     400.0000  Ry
     convergence threshold     =      1.0E-08
     mixing beta               =       0.7000
     number of iterations used =            8  plain     mixing
     Exchange-correlation      = SLA PW PBX PBC ( 1  4  3  4 0 0)

     celldm(1)=   6.830000  celldm(2)=   0.000000  celldm(3)=   0.000000
     celldm(4)=   0.000000  celldm(5)=   0.000000  celldm(6)=   0.000000

     crystal axes: (cart. coord. in units of alat)
               a(1) = (  -0.500000   0.000000   0.500000 )  
               a(2) = (   0.000000   0.500000   0.500000 )  
               a(3) = (  -0.500000   0.500000   0.000000 )  

     reciprocal axes: (cart. coord. in units 2 pi/alat)
               b(1) = ( -1.000000 -1.000000  1.000000 )  
               b(2) = (  1.000000  1.000000  1.000000 )  
               b(3) = ( -1.000000  1.000000 -1.000000 )  


     PseudoPot. # 1 for Cu read from file:
     /home/lorenzo/pseudos/Cu/Cu.pbe-dn-kjpaw_psl.1.0.0.UPF
     MD5 check sum: cfffd1f38ee05704b3e17f46f1730a6f
     Pseudo is Projector augmented-wave + core cor, Zval = 11.0
     Generated using "atomic" code by A. Dal Corso v.6.3
     Shape of augmentation charge: PSQ
     Using radial grid of 1199 points,  6 beta functions with: 
                l(1) =   0
                l(2) =   0
                l(3) =   1
                l(4) =   1
                l(5) =   2
                l(6) =   2
     Q(r) pseudized with 0 coefficients 


     atomic species   valence    mass     pseudopotential
        Cu            11.00    63.54600     Cu( 1.00)

     48 Sym. Ops., with inversion, found



   Cartesian axes

     site n.     atom                  positions (alat units)
         1           Cu  tau(   1) = (   0.0000000   0.0000000   0.0000000  )

     number of k points=     8  gaussian smearing, width (Ry)=  0.0100
                       cart. coord. in units 2pi/alat
        k(    1) = (   0.0000000   0.0000000   0.0000000), wk =   0.0312500
        k(    2) = (  -0.2500000   0.2500000  -0.2500000), wk =   0.2500000
        k(    3) = (   0.5000000  -0.5000000   0.5000000), wk =   0.1250000
        k(    4) = (   0.0000000   0.5000000   0.0000000), wk =   0.1875000
        k(    5) = (   0.7500000  -0.2500000   0.7500000), wk =   0.7500000
        k(    6) = (   0.5000000   0.0000000   0.5000000), wk =   0.3750000
        k(    7) = (   0.0000000  -1.0000000   0.0000000), wk =   0.0937500
        k(    8) = (  -0.5000000  -1.0000000   0.0000000), wk =   0.1875000

     Dense  grid:    10849 G-vectors     FFT dimensions: (  32,  32,  32)

     Estimated max dynamical RAM per process >      10.24 MB

     Estimated total dynamical RAM >      51.21 MB

     Initial potential from superposition of free atoms

     starting charge   10.99977, renormalised to   11.00000
     Starting wfcs are    9 randomized atomic wfcs +    1 random wfcs
     Checking if some PAW data can be deallocated... 

     total cpu time spent up to now is        1.2 secs

     Self-consistent Calculation

     iteration #  1     ecut=   100.00 Ry     beta= 0.70
     Davidson diagonalization with overlap
     ethr =  1.00E-02,  avg # of iterations =  3.5

     Threshold (ethr) on eigenvalues was too large:
     Diagonalizing with lowered threshold

     Davidson diagonalization with overlap
     ethr =  5.52E-04,  avg # of iterations =  1.0

     total cpu time spent up to now is        1.6 secs

     total energy              =    -213.04965222 Ry
     Harris-Foulkes estimate   =    -213.09747302 Ry
     estimated scf accuracy    <       0.06070336 Ry

     iteration #  2     ecut=   100.00 Ry     beta= 0.70
     Davidson diagonalization with overlap
     ethr =  5.52E-04,  avg # of iterations =  2.0

     total cpu time spent up to now is        1.8 secs

     total energy              =    -213.05173559 Ry
     Harris-Foulkes estimate   =    -213.13275589 Ry
     estimated scf accuracy    <       0.20702107 Ry

     iteration #  3     ecut=   100.00 Ry     beta= 0.70
     Davidson diagonalization with overlap
     ethr =  5.52E-04,  avg # of iterations =  2.0

     total cpu time spent up to now is        2.1 secs

     total energy              =    -213.08522895 Ry
     Harris-Foulkes estimate   =    -213.08524559 Ry
     estimated scf accuracy    <       0.00005410 Ry

     iteration #  4     ecut=   100.00 Ry     beta= 0.70
     Davidson diagonalization with overlap
     ethr =  4.92E-07,  avg # of iterations =  3.2

     total cpu time spent up to now is        2.3 secs

     total energy              =    -213.08527356 Ry
     Harris-Foulkes estimate   =    -213.08527875 Ry
     estimated scf accuracy    <       0.00001517 Ry

     iteration #  5     ecut=   100.00 Ry     beta= 0.70
     Davidson diagonalization with overlap
     ethr =  1.38E-07,  avg # of iterations =  1.2

     total cpu time spent up to now is        2.5 secs

     total energy              =    -213.08527633 Ry
     Harris-Foulkes estimate   =    -213.08527650 Ry
     estimated scf accuracy    <       0.00000049 Ry

     iteration #  6     ecut=   100.00 Ry     beta= 0.70
     Davidson diagonalization with overlap
     ethr =  4.46E-09,  avg # of iterations =  1.5

     total cpu time spent up to now is        2.8 secs

     End of self-consistent calculation

          k = 0.0000 0.0000 0.0000 (  1363 PWs)   bands (ev):

     3.2653   9.6434   9.6434   9.6434  10.4752  10.4752  35.5877  37.9845
    37.9845  37.9845

          k =-0.2500 0.2500-0.2500 (  1345 PWs)   bands (ev):

     5.3882   9.3854   9.8013   9.8013  10.5587  10.5587  25.1085  35.3702
    35.4661  35.4661

          k = 0.5000-0.5000 0.5000 (  1350 PWs)   bands (ev):

     7.5666   9.6105   9.6105  11.0482  11.0482  11.6261  16.4133  33.9938
    34.7493  34.7493

          k = 0.0000 0.5000 0.0000 (  1331 PWs)   bands (ev):

     6.0309   8.9201  10.0099  10.3104  10.3104  10.7497  29.7600  29.7600
    31.0476  31.6929

          k = 0.7500-0.2500 0.7500 (  1340 PWs)   bands (ev):

     8.2170   8.7944   9.6604  10.2882  11.0889  13.5970  19.3647  25.2298
    28.7630  32.3065

          k = 0.5000 0.0000 0.5000 (  1340 PWs)   bands (ev):

     7.9357   9.1329   9.3429  10.1470  10.4734  12.3614  22.3643  23.5704
    33.1363  34.4433

          k = 0.0000-1.0000 0.0000 (  1362 PWs)   bands (ev):

     7.7720   8.2360  11.0305  11.1919  11.1919  14.1311  19.7682  25.7585
    25.7585  30.2427

          k =-0.5000-1.0000 0.0000 (  1348 PWs)   bands (ev):

     8.5174   9.1277   9.1277  10.4330  11.1927  18.8551  18.8551  20.9684
    21.4516  41.0668

     the Fermi energy is    13.4304 ev

!    total energy              =    -213.08527640 Ry
     Harris-Foulkes estimate   =    -213.08527640 Ry
     estimated scf accuracy    <          9.6E-10 Ry

     total all-electron energy =     -3309.965042 Ry

     The total energy is the sum of the following terms:

     one-electron contribution =     -27.98717121 Ry
     hartree contribution      =      30.60104993 Ry
     xc contribution           =     -44.62589834 Ry
     ewald contribution        =     -81.22522855 Ry
     one-center paw contrib.   =     -89.84755585 Ry
     smearing contrib. (-TS)   =      -0.00047239 Ry

     convergence has been achieved in   6 iterations

     Forces acting on atoms (cartesian axes, Ry/au):

     atom    1 type  1   force =     0.00000000    0.00000000    0.00000000

     Total force =     0.000000     Total SCF correction =     0.000000


     Computing stress (Cartesian axis) and pressure

          total   stress  (Ry/bohr**3)                   (kbar)     P=   36.87
   0.00025062  -0.00000000   0.00000000         36.87     -0.00      0.00
  -0.00000000   0.00025062   0.00000000         -0.00     36.87      0.00
   0.00000000  -0.00000000   0.00025062          0.00     -0.00     36.87


     Writing output data file Cu.save/

     init_run     :      0.37s CPU      0.40s WALL (       1 calls)
     electrons    :      1.52s CPU      1.60s WALL (       1 calls)
     forces       :      0.04s CPU      0.04s WALL (       1 calls)
     stress       :      0.12s CPU      0.12s WALL (       1 calls)

     Called by init_run:
     wfcinit      :      0.04s CPU      0.04s WALL (       1 calls)
     potinit      :      0.11s CPU      0.12s WALL (       1 calls)
     hinit0       :      0.19s CPU      0.19s WALL (       1 calls)

     Called by electrons:
     c_bands      :      0.59s CPU      0.63s WALL (       7 calls)
     sum_band     :      0.20s CPU      0.21s WALL (       7 calls)
     v_of_rho     :      0.05s CPU      0.05s WALL (       7 calls)
     newd         :      0.09s CPU      0.09s WALL (       7 calls)
     PAW_pot      :      0.69s CPU      0.73s WALL (       7 calls)
     mix_rho      :      0.01s CPU      0.01s WALL (       7 calls)

     Called by c_bands:
     init_us_2    :      0.02s CPU      0.02s WALL (     136 calls)
     cegterg      :      0.55s CPU      0.59s WALL (      56 calls)

     Called by sum_band:
     sum_band:bec :      0.00s CPU      0.00s WALL (      56 calls)
     addusdens    :      0.08s CPU      0.08s WALL (       7 calls)

     Called by *egterg:
     h_psi        :      0.46s CPU      0.49s WALL (     180 calls)
     s_psi        :      0.02s CPU      0.02s WALL (     180 calls)
     g_psi        :      0.00s CPU      0.00s WALL (     116 calls)
     cdiaghg      :      0.04s CPU      0.04s WALL (     164 calls)

     Called by h_psi:
     h_psi:pot    :      0.46s CPU      0.49s WALL (     180 calls)
     h_psi:calbec :      0.03s CPU      0.03s WALL (     180 calls)
     vloc_psi     :      0.41s CPU      0.44s WALL (     180 calls)
     add_vuspsi   :      0.01s CPU      0.02s WALL (     180 calls)

     General routines
     calbec       :      0.04s CPU      0.05s WALL (     276 calls)
     fft          :      0.03s CPU      0.03s WALL (     104 calls)
     ffts         :      0.00s CPU      0.00s WALL (       7 calls)
     fftw         :      0.46s CPU      0.50s WALL (    3388 calls)

     Parallel routines
     fft_scatt_xy :      0.04s CPU      0.05s WALL (    3499 calls)
     fft_scatt_yz :      0.19s CPU      0.21s WALL (    3499 calls)

     PWSCF        :     2.85s CPU         2.99s WALL


   This run was terminated on:  23: 7: 5  25Mar2024            

=------------------------------------------------------------------------------=
   JOB DONE.
=------------------------------------------------------------------------------=
