
     Program PWSCF v.6.3MaX starts on 25Mar2024 at 23: 8:48 

     This program is part of the open-source Quantum ESPRESSO suite
     for quantum simulation of materials; please cite
         "P. Giannozzi et al., J. Phys.:Condens. Matter 21 395502 (2009);
         "P. Giannozzi et al., J. Phys.:Condens. Matter 29 465901 (2017);
          URL http://www.quantum-espresso.org", 
     in publications or presentations arising from this work. More details at
     http://www.quantum-espresso.org/quote

     Parallel version (MPI), running on     5 processors

     MPI processes distributed on     1 nodes
     R & G space division:  proc/nbgrp/npool/nimage =       5
     Waiting for input...
     Reading input from standard input

     Current dimensions of program PWSCF are:
     Max number of different atomic species (ntypx) = 10
     Max number of k-points (npk) =  40000
     Max angular momentum in pseudopotentials (lmaxx) =  3
               file Cu.pbe-dn-kjpaw_psl.1.0.0.UPF: wavefunction(s)  4S 3D renormalized

     Subspace diagonalization in iterative solution of the eigenvalue problem:
     a serial algorithm will be used


     Parallelization info
     --------------------
     sticks:   dense  smooth     PW     G-vecs:    dense   smooth      PW
     Min          12      12      6                   66       66      22
     Max          13      13      7                   67       67      23
     Sum          61      61     31                  331      331     113



     bravais-lattice index     =            2
     lattice parameter (alat)  =       6.8300  a.u.
     unit-cell volume          =      79.6530 (a.u.)^3
     number of atoms/cell      =            1
     number of atomic types    =            1
     number of electrons       =        11.00
     number of Kohn-Sham states=           10
     kinetic-energy cutoff     =      10.0000  Ry
     charge density cutoff     =      40.0000  Ry
     convergence threshold     =      1.0E-08
     mixing beta               =       0.7000
     number of iterations used =            8  plain     mixing
     Exchange-correlation      = SLA PW PBX PBC ( 1  4  3  4 0 0)

     celldm(1)=   6.830000  celldm(2)=   0.000000  celldm(3)=   0.000000
     celldm(4)=   0.000000  celldm(5)=   0.000000  celldm(6)=   0.000000

     crystal axes: (cart. coord. in units of alat)
               a(1) = (  -0.500000   0.000000   0.500000 )  
               a(2) = (   0.000000   0.500000   0.500000 )  
               a(3) = (  -0.500000   0.500000   0.000000 )  

     reciprocal axes: (cart. coord. in units 2 pi/alat)
               b(1) = ( -1.000000 -1.000000  1.000000 )  
               b(2) = (  1.000000  1.000000  1.000000 )  
               b(3) = ( -1.000000  1.000000 -1.000000 )  


     PseudoPot. # 1 for Cu read from file:
     /home/lorenzo/pseudos/Cu/Cu.pbe-dn-kjpaw_psl.1.0.0.UPF
     MD5 check sum: cfffd1f38ee05704b3e17f46f1730a6f
     Pseudo is Projector augmented-wave + core cor, Zval = 11.0
     Generated using "atomic" code by A. Dal Corso v.6.3
     Shape of augmentation charge: PSQ
     Using radial grid of 1199 points,  6 beta functions with: 
                l(1) =   0
                l(2) =   0
                l(3) =   1
                l(4) =   1
                l(5) =   2
                l(6) =   2
     Q(r) pseudized with 0 coefficients 


     atomic species   valence    mass     pseudopotential
        Cu            11.00    63.54600     Cu( 1.00)

     48 Sym. Ops., with inversion, found



   Cartesian axes

     site n.     atom                  positions (alat units)
         1           Cu  tau(   1) = (   0.0000000   0.0000000   0.0000000  )

     number of k points=    56  gaussian smearing, width (Ry)=  0.0100
                       cart. coord. in units 2pi/alat
        k(    1) = (   0.0000000   0.0000000   0.0000000), wk =   0.0015026
        k(    2) = (  -0.0909091   0.0909091  -0.0909091), wk =   0.0120210
        k(    3) = (  -0.1818182   0.1818182  -0.1818182), wk =   0.0120210
        k(    4) = (  -0.2727273   0.2727273  -0.2727273), wk =   0.0120210
        k(    5) = (  -0.3636364   0.3636364  -0.3636364), wk =   0.0120210
        k(    6) = (  -0.4545455   0.4545455  -0.4545455), wk =   0.0120210
        k(    7) = (   0.0000000   0.1818182   0.0000000), wk =   0.0090158
        k(    8) = (  -0.0909091   0.2727273  -0.0909091), wk =   0.0360631
        k(    9) = (  -0.1818182   0.3636364  -0.1818182), wk =   0.0360631
        k(   10) = (  -0.2727273   0.4545455  -0.2727273), wk =   0.0360631
        k(   11) = (  -0.3636364   0.5454545  -0.3636364), wk =   0.0360631
        k(   12) = (   0.5454545  -0.3636364   0.5454545), wk =   0.0360631
        k(   13) = (   0.4545455  -0.2727273   0.4545455), wk =   0.0360631
        k(   14) = (   0.3636364  -0.1818182   0.3636364), wk =   0.0360631
        k(   15) = (   0.2727273  -0.0909091   0.2727273), wk =   0.0360631
        k(   16) = (   0.1818182  -0.0000000   0.1818182), wk =   0.0180316
        k(   17) = (   0.0000000   0.3636364   0.0000000), wk =   0.0090158
        k(   18) = (  -0.0909091   0.4545455  -0.0909091), wk =   0.0360631
        k(   19) = (  -0.1818182   0.5454545  -0.1818182), wk =   0.0360631
        k(   20) = (  -0.2727273   0.6363636  -0.2727273), wk =   0.0360631
        k(   21) = (   0.6363636  -0.2727273   0.6363636), wk =   0.0360631
        k(   22) = (   0.5454545  -0.1818182   0.5454545), wk =   0.0360631
        k(   23) = (   0.4545455  -0.0909091   0.4545455), wk =   0.0360631
        k(   24) = (   0.3636364   0.0000000   0.3636364), wk =   0.0180316
        k(   25) = (   0.0000000   0.5454545   0.0000000), wk =   0.0090158
        k(   26) = (  -0.0909091   0.6363636  -0.0909091), wk =   0.0360631
        k(   27) = (  -0.1818182   0.7272727  -0.1818182), wk =   0.0360631
        k(   28) = (   0.7272727  -0.1818182   0.7272727), wk =   0.0360631
        k(   29) = (   0.6363636  -0.0909091   0.6363636), wk =   0.0360631
        k(   30) = (   0.5454545   0.0000000   0.5454545), wk =   0.0180316
        k(   31) = (   0.0000000   0.7272727   0.0000000), wk =   0.0090158
        k(   32) = (  -0.0909091   0.8181818  -0.0909091), wk =   0.0360631
        k(   33) = (   0.8181818  -0.0909091   0.8181818), wk =   0.0360631
        k(   34) = (   0.7272727   0.0000000   0.7272727), wk =   0.0180316
        k(   35) = (   0.0000000   0.9090909   0.0000000), wk =   0.0090158
        k(   36) = (   0.9090909  -0.0000000   0.9090909), wk =   0.0180316
        k(   37) = (  -0.1818182   0.3636364   0.0000000), wk =   0.0360631
        k(   38) = (  -0.2727273   0.4545455  -0.0909091), wk =   0.0721262
        k(   39) = (  -0.3636364   0.5454545  -0.1818182), wk =   0.0721262
        k(   40) = (   0.5454545  -0.3636364   0.7272727), wk =   0.0721262
        k(   41) = (  -0.1818182   0.5454545   0.0000000), wk =   0.0360631
        k(   42) = (  -0.2727273   0.6363636  -0.0909091), wk =   0.0721262
        k(   43) = (   0.6363636  -0.2727273   0.8181818), wk =   0.0721262
        k(   44) = (   0.5454545  -0.1818182   0.7272727), wk =   0.0721262
        k(   45) = (   0.4545455  -0.0909091   0.6363636), wk =   0.0721262
        k(   46) = (   0.3636364   0.0000000   0.5454545), wk =   0.0360631
        k(   47) = (  -0.1818182   0.7272727   0.0000000), wk =   0.0360631
        k(   48) = (   0.7272727  -0.1818182   0.9090909), wk =   0.0721262
        k(   49) = (   0.6363636  -0.0909091   0.8181818), wk =   0.0721262
        k(   50) = (   0.5454545   0.0000000   0.7272727), wk =   0.0360631
        k(   51) = (   0.8181818  -0.0909091   1.0000000), wk =   0.0360631
        k(   52) = (   0.7272727   0.0000000   0.9090909), wk =   0.0360631
        k(   53) = (   0.6363636  -0.2727273   1.0000000), wk =   0.0360631
        k(   54) = (   0.5454545  -0.1818182   0.9090909), wk =   0.0721262
        k(   55) = (   0.6363636  -0.0909091   1.0000000), wk =   0.0360631
        k(   56) = (   0.5454545   0.0000000   0.9090909), wk =   0.0360631

     Dense  grid:      331 G-vectors     FFT dimensions: (   9,   9,   9)

     Estimated max dynamical RAM per process >       0.87 MB

     Estimated total dynamical RAM >       4.35 MB

     Check: negative/imaginary core charge=   -0.008472    0.000000

     Initial potential from superposition of free atoms

     starting charge   10.99977, renormalised to   11.00000
     Starting wfcs are    9 randomized atomic wfcs +    1 random wfcs
     Checking if some PAW data can be deallocated... 

     total cpu time spent up to now is        1.0 secs

     Self-consistent Calculation

     iteration #  1     ecut=    10.00 Ry     beta= 0.70
     Davidson diagonalization with overlap
     ethr =  1.00E-02,  avg # of iterations =  3.3

     total cpu time spent up to now is        1.3 secs

     total energy              =    -193.99464717 Ry
     Harris-Foulkes estimate   =    -208.02910686 Ry
     estimated scf accuracy    <      16.44048307 Ry

     iteration #  2     ecut=    10.00 Ry     beta= 0.70
     Davidson diagonalization with overlap
     ethr =  1.00E-02,  avg # of iterations =  2.8

     total cpu time spent up to now is        1.5 secs

     total energy              =    -199.86538986 Ry
     Harris-Foulkes estimate   =    -200.62110141 Ry
     estimated scf accuracy    <       1.20289332 Ry

     iteration #  3     ecut=    10.00 Ry     beta= 0.70
     Davidson diagonalization with overlap
     ethr =  1.00E-02,  avg # of iterations =  1.5

     total cpu time spent up to now is        1.7 secs

     total energy              =    -199.92416230 Ry
     Harris-Foulkes estimate   =    -199.97112527 Ry
     estimated scf accuracy    <       0.08041634 Ry

     iteration #  4     ecut=    10.00 Ry     beta= 0.70
     Davidson diagonalization with overlap
     ethr =  7.31E-04,  avg # of iterations =  2.0

     total cpu time spent up to now is        1.9 secs

     total energy              =    -199.93548079 Ry
     Harris-Foulkes estimate   =    -199.94028265 Ry
     estimated scf accuracy    <       0.00626355 Ry

     iteration #  5     ecut=    10.00 Ry     beta= 0.70
     Davidson diagonalization with overlap
     ethr =  5.69E-05,  avg # of iterations =  2.1

     total cpu time spent up to now is        2.1 secs

     total energy              =    -199.93680000 Ry
     Harris-Foulkes estimate   =    -199.93680308 Ry
     estimated scf accuracy    <       0.00000740 Ry

     iteration #  6     ecut=    10.00 Ry     beta= 0.70
     Davidson diagonalization with overlap
     ethr =  6.73E-08,  avg # of iterations =  2.0

     total cpu time spent up to now is        2.3 secs

     total energy              =    -199.93679072 Ry
     Harris-Foulkes estimate   =    -199.93680095 Ry
     estimated scf accuracy    <       0.00000431 Ry

     iteration #  7     ecut=    10.00 Ry     beta= 0.70
     Davidson diagonalization with overlap
     ethr =  3.91E-08,  avg # of iterations =  2.1

     total cpu time spent up to now is        2.5 secs

     total energy              =    -199.93679187 Ry
     Harris-Foulkes estimate   =    -199.93679187 Ry
     estimated scf accuracy    <       0.00000004 Ry

     iteration #  8     ecut=    10.00 Ry     beta= 0.70
     Davidson diagonalization with overlap
     ethr =  3.62E-10,  avg # of iterations =  2.3

     total cpu time spent up to now is        2.8 secs

     total energy              =    -199.93679205 Ry
     Harris-Foulkes estimate   =    -199.93679191 Ry
     estimated scf accuracy    <       0.00000004 Ry

     iteration #  9     ecut=    10.00 Ry     beta= 0.70
     Davidson diagonalization with overlap
     ethr =  3.19E-10,  avg # of iterations =  1.4

     total cpu time spent up to now is        3.0 secs

     End of self-consistent calculation

          k = 0.0000 0.0000 0.0000 (    51 PWs)   bands (ev):

    -7.1674  -7.1674  -0.5271  -0.5271  -0.5271   1.1393  30.7531  30.7531
    30.7531  39.6539

          k =-0.0909 0.0909-0.0909 (    52 PWs)   bands (ev):

    -6.2851  -6.2851  -3.2301  -3.2301  -1.5222   1.4392  29.1957  30.5332
    30.5332  39.8616

          k =-0.1818 0.1818-0.1818 (    46 PWs)   bands (ev):

    -2.8953  -2.8953  -2.0067   2.3521   5.3190   5.3190  25.3672  30.0382
    30.0382  39.7190

          k =-0.2727 0.2727-0.2727 (    46 PWs)   bands (ev):

    -3.3441  -3.3441  -2.3280   3.9250   5.8334   5.8334  20.8589  29.1871
    29.1871  38.5892

          k =-0.3636 0.3636-0.3636 (    43 PWs)   bands (ev):

    -1.3666  -0.4087  -0.4087   6.2250   8.5282   8.5282  16.5256  28.3500
    28.3500  37.5190

          k =-0.4545 0.4545-0.4545 (    40 PWs)   bands (ev):

    -0.1834  -0.1834   2.5757   9.5483  12.3156  12.3156  14.0152  27.8224
    27.8224  36.9299

          k = 0.0000 0.1818 0.0000 (    51 PWs)   bands (ev):

    -7.0357  -6.4516  -2.6470  -2.6470   1.3497   2.1125  29.8047  29.8047
    29.8977  39.4127

          k =-0.0909 0.2727-0.0909 (    47 PWs)   bands (ev):

    -4.8228  -4.0916  -0.5820   2.2548   3.9498   4.0599  26.8343  28.9323
    29.9752  39.8242

          k =-0.1818 0.3636-0.1818 (    44 PWs)   bands (ev):

    -2.9319  -2.6595   3.2373   3.8643   5.8276   7.0154  22.5840  27.9555
    29.3955  38.6491

          k =-0.2727 0.4545-0.2727 (    44 PWs)   bands (ev):

    -3.2327  -2.8366   3.1117   5.4023   6.3352   7.7540  18.2169  27.2394
    28.3244  37.4712

          k =-0.3636 0.5455-0.3636 (    40 PWs)   bands (ev):

    -0.0067   0.0116   4.1162   7.5857  12.0407  12.4267  14.8191  27.0255
    27.2377  36.8794

          k = 0.5455-0.3636 0.5455 (    41 PWs)   bands (ev):

    -2.3963  -0.0913   2.6413   9.1467  11.8209  12.3626  13.4329  26.3727
    27.4606  36.5209

          k = 0.4545-0.2727 0.4545 (    43 PWs)   bands (ev):

    -3.0470  -0.2959   0.1197   6.8541   8.4800  10.6357  15.5861  26.1288
    28.4030  37.0183

          k = 0.3636-0.1818 0.3636 (    44 PWs)   bands (ev):

    -3.0607  -0.6928  -0.0067   4.7104   6.7896   7.7898  19.6700  26.5537
    29.5672  38.1022

          k = 0.2727-0.0909 0.2727 (    46 PWs)   bands (ev):

    -3.2240  -2.4512  -0.3462   1.6795   3.2925   6.6904  23.9514  27.4373
    30.4854  39.5688

          k = 0.1818-0.0000 0.1818 (    49 PWs)   bands (ev):

    -6.2146  -4.0027  -1.5173   0.3405   1.7468   2.9140  27.6080  28.6702
    30.8382  39.9597

          k = 0.0000 0.3636 0.0000 (    43 PWs)   bands (ev):

    -1.5487   2.3635   3.9262   3.9262   3.9665   4.6304  27.7697  27.9060
    27.9060  39.4975

          k =-0.0909 0.4545-0.0909 (    47 PWs)   bands (ev):

    -4.9033  -4.6689  -0.1680   2.9891   4.2328   4.5299  24.0988  26.4605
    27.5813  37.5826

          k =-0.1818 0.5455-0.1818 (    47 PWs)   bands (ev):

    -5.0522  -4.7553   0.0185   2.9311   5.0874   5.9634  19.9253  25.6242
    26.4553  36.6030

          k =-0.2727 0.6364-0.2727 (    43 PWs)   bands (ev):

    -2.6950  -2.6327   1.1450   6.4141  10.2312  11.6458  16.3313  24.9237
    25.4637  35.9925

          k = 0.6364-0.2727 0.6364 (    43 PWs)   bands (ev):

    -2.5823  -2.5441   1.2852   7.5343   9.8781  12.7032  13.6835  23.6520
    26.0531  36.0379

          k = 0.5455-0.1818 0.5455 (    40 PWs)   bands (ev):

     0.5284   2.2697   5.5834   7.2361   8.7780  12.3116  15.4628  23.0274
    27.4242  36.9809

          k = 0.4545-0.0909 0.4545 (    40 PWs)   bands (ev):

     0.5683   2.3415   5.5711   5.7410   8.1173  11.6855  19.0762  23.1237
    28.8578  37.8650

          k = 0.3636 0.0000 0.3636 (    43 PWs)   bands (ev):

    -0.0946   0.8891   2.7815   3.0658   5.4555   6.7259  22.2026  24.4909
    30.0453  38.9693

          k = 0.0000 0.5455 0.0000 (    43 PWs)   bands (ev):

    -2.6699   1.9215   4.0849   5.2494   5.2563   5.2563  24.3832  25.4033
    25.4033  36.3206

          k =-0.0909 0.6364-0.0909 (    44 PWs)   bands (ev):

    -3.0003  -2.2675   3.8448   5.3233   6.0938   6.9203  21.2525  24.2148
    24.4382  35.2005

          k =-0.1818 0.7273-0.1818 (    44 PWs)   bands (ev):

    -4.1259  -1.7194   0.3367   5.4148  10.0966  10.1570  17.9450  22.2636
    23.9995  35.4941

          k = 0.7273-0.1818 0.7273 (    42 PWs)   bands (ev):

    -2.8766   1.6289   2.9502   5.6690  10.9771  13.1484  14.7713  20.6787
    24.4975  35.7536

          k = 0.6364-0.0909 0.6364 (    42 PWs)   bands (ev):

    -1.9967   2.1331   2.4573   7.0527   7.6737  13.0226  16.3171  19.4759
    25.6637  36.1788

          k = 0.5455 0.0000 0.5455 (    42 PWs)   bands (ev):

    -0.6653   1.2179   3.5864   5.2964   7.3340  11.3535  18.0864  19.5194
    27.4099  36.9012

          k = 0.0000 0.7273 0.0000 (    44 PWs)   bands (ev):

    -3.4427  -2.8619   3.8178   6.7215   6.7215   7.5708  19.9937  23.2069
    23.2069  33.8657

          k =-0.0909 0.8182-0.0909 (    42 PWs)   bands (ev):

    -3.5741  -2.0343   4.0596   8.5623  10.6825  12.2197  17.8275  21.4984
    22.6924  34.2788

          k = 0.8182-0.0909 0.8182 (    42 PWs)   bands (ev):

    -3.3798  -2.1047   3.9810   9.0943  10.9635  14.5294  15.6923  18.8680
    22.9528  34.9468

          k = 0.7273 0.0000 0.7273 (    38 PWs)   bands (ev):

    -1.5872   4.3155   7.8720   9.7362  13.5406  14.2213  18.3287  18.3336
    24.3039  35.9123

          k = 0.0000 0.9091 0.0000 (    40 PWs)   bands (ev):

    -3.8365   0.1828   5.0137  11.1639  13.8335  13.8335  16.2156  21.9088
    21.9088  33.7917

          k = 0.9091-0.0000 0.9091 (    40 PWs)   bands (ev):

    -3.7641   0.2670   4.8990  11.5413  14.0163  14.8871  14.9898  20.6476
    21.9539  34.3450

          k =-0.1818 0.3636 0.0000 (    47 PWs)   bands (ev):

    -4.9333  -3.3323   0.9796   1.2601   3.3633   3.8197  24.9488  26.7170
    29.7406  39.5335

          k =-0.2727 0.4545-0.0909 (    43 PWs)   bands (ev):

    -1.4872   0.6025   3.0124   3.9325   5.5780   7.6490  21.3189  25.3592
    28.9388  38.3356

          k =-0.3636 0.5455-0.1818 (    41 PWs)   bands (ev):

     0.1070   0.7812   3.6525   6.0412   8.4575  11.3369  17.4588  24.7350
    27.6965  37.4220

          k = 0.5455-0.3636 0.7273 (    41 PWs)   bands (ev):

    -0.6830   0.1734   2.7058   7.3629  10.9885  12.5460  14.3634  24.7016
    26.4863  36.7923

          k =-0.1818 0.5455 0.0000 (    45 PWs)   bands (ev):

    -3.8624  -2.2464   2.2891   4.5705   4.8263   5.9821  22.2691  24.3192
    26.7697  37.0692

          k =-0.2727 0.6364-0.0909 (    45 PWs)   bands (ev):

    -4.7247  -1.7352   1.3451   3.0505   6.7116   9.5757  19.0273  22.9432
    25.3084  36.6203

          k = 0.6364-0.2727 0.8182 (    41 PWs)   bands (ev):

    -1.0978   0.4649   3.1856   6.9342  11.3605  12.8733  16.0585  22.2956
    24.4485  36.7833

          k = 0.5455-0.1818 0.7273 (    41 PWs)   bands (ev):

    -1.1973   0.6910   3.4500   7.2725  10.6064  13.7987  15.0259  21.5652
    24.8423  36.9089

          k = 0.4545-0.0909 0.6364 (    43 PWs)   bands (ev):

    -2.3879  -0.4591   2.7831   5.1026   7.8247  11.4146  16.9538  20.9833
    26.1132  37.2203

          k = 0.3636 0.0000 0.5455 (    44 PWs)   bands (ev):

    -2.9434  -0.7654   1.5436   3.9136   6.7862   8.8357  19.9249  21.9513
    27.8508  37.7802

          k =-0.1818 0.7273 0.0000 (    43 PWs)   bands (ev):

    -3.2283  -2.2606   3.7957   6.8257   7.1893  11.3831  19.4446  22.1355
    23.3652  35.3197

          k = 0.7273-0.1818 0.9091 (    42 PWs)   bands (ev):

    -3.1136  -1.1833   4.2105   7.5571  10.9737  12.5271  17.0394  20.3523
    22.5518  36.2185

          k = 0.6364-0.0909 0.8182 (    39 PWs)   bands (ev):

    -2.0239   2.6089   6.4557  10.4505  13.2869  14.2959  16.0971  19.2378
    23.2825  37.0485

          k = 0.5455 0.0000 0.7273 (    41 PWs)   bands (ev):

    -1.8742   1.8033   5.3062   7.7926   8.9385  13.1922  17.6083  17.9588
    24.4153  37.1504

          k = 0.8182-0.0909 1.0000 (    41 PWs)   bands (ev):

    -3.5910  -1.1332   4.6135   9.4114  13.5283  13.8884  15.9885  20.8691
    21.3722  34.9949

          k = 0.7273 0.0000 0.9091 (    39 PWs)   bands (ev):

    -2.6463   1.3524   7.5348  10.3520  14.1622  14.7841  16.8381  19.0309
    21.9012  36.4468

          k = 0.6364-0.2727 1.0000 (    43 PWs)   bands (ev):

    -2.2093  -1.8682   2.9072   6.3532   8.1078  11.6703  18.2423  19.9364
    23.7109  37.5875

          k = 0.5455-0.1818 0.9091 (    42 PWs)   bands (ev):

    -2.0510  -1.9652   3.5334   7.9710  10.7632  13.7179  16.0153  19.5492
    22.4428  38.0302

          k = 0.6364-0.0909 1.0000 (    41 PWs)   bands (ev):

    -2.3514  -1.9111   4.8044   9.7386  13.2107  14.0115  16.5945  18.7651
    20.7883  38.1124

          k = 0.5455 0.0000 0.9091 (    44 PWs)   bands (ev):

    -3.0309  -2.6330  -2.2903   7.5681  12.3085  14.1318  16.1249  16.9516
    20.7374  38.5578

     the Fermi energy is    12.4869 ev

!    total energy              =    -199.93679205 Ry
     Harris-Foulkes estimate   =    -199.93679205 Ry
     estimated scf accuracy    <          2.5E-11 Ry

     total all-electron energy =     -3296.816558 Ry

     The total energy is the sum of the following terms:

     one-electron contribution =      -1.72102716 Ry
     hartree contribution      =      12.10812947 Ry
     xc contribution           =     -39.22711576 Ry
     ewald contribution        =     -81.22522857 Ry
     one-center paw contrib.   =     -89.87100544 Ry
     smearing contrib. (-TS)   =      -0.00054458 Ry

     convergence has been achieved in   9 iterations

     Forces acting on atoms (cartesian axes, Ry/au):

     atom    1 type  1   force =     0.00000000    0.00000000    0.00000000

     Total force =     0.000000     Total SCF correction =     0.000000


     Computing stress (Cartesian axis) and pressure

          total   stress  (Ry/bohr**3)                   (kbar)     P=********
  -0.29141734  -0.00000000  -0.00000000     -42868.96     -0.00     -0.00
  -0.00000000  -0.29141734   0.00000000         -0.00 -42868.96      0.00
  -0.00000000   0.00000000  -0.29141734         -0.00      0.00 -42868.96


     Writing output data file Cu.save/

     init_run     :      0.17s CPU      0.20s WALL (       1 calls)
     electrons    :      1.74s CPU      2.05s WALL (       1 calls)
     forces       :      0.01s CPU      0.01s WALL (       1 calls)
     stress       :      0.03s CPU      0.03s WALL (       1 calls)

     Called by init_run:
     wfcinit      :      0.01s CPU      0.03s WALL (       1 calls)
     potinit      :      0.09s CPU      0.11s WALL (       1 calls)
     hinit0       :      0.05s CPU      0.05s WALL (       1 calls)

     Called by electrons:
     c_bands      :      0.83s CPU      0.99s WALL (       9 calls)
     sum_band     :      0.09s CPU      0.11s WALL (       9 calls)
     v_of_rho     :      0.00s CPU      0.00s WALL (      10 calls)
     newd         :      0.00s CPU      0.00s WALL (      10 calls)
     PAW_pot      :      0.90s CPU      1.03s WALL (      10 calls)
     mix_rho      :      0.00s CPU      0.00s WALL (       9 calls)

     Called by c_bands:
     init_us_2    :      0.01s CPU      0.02s WALL (    1176 calls)
     cegterg      :      0.80s CPU      0.95s WALL (     504 calls)

     Called by sum_band:
     sum_band:bec :      0.00s CPU      0.00s WALL (     504 calls)
     addusdens    :      0.00s CPU      0.00s WALL (       9 calls)

     Called by *egterg:
     h_psi        :      0.41s CPU      0.51s WALL (    1646 calls)
     s_psi        :      0.02s CPU      0.02s WALL (    1646 calls)
     g_psi        :      0.00s CPU      0.00s WALL (    1086 calls)
     cdiaghg      :      0.27s CPU      0.31s WALL (    1590 calls)

     Called by h_psi:
     h_psi:pot    :      0.41s CPU      0.50s WALL (    1646 calls)
     h_psi:calbec :      0.03s CPU      0.04s WALL (    1646 calls)
     vloc_psi     :      0.35s CPU      0.43s WALL (    1646 calls)
     add_vuspsi   :      0.02s CPU      0.02s WALL (    1646 calls)

     General routines
     calbec       :      0.04s CPU      0.05s WALL (    2430 calls)
     fft          :      0.00s CPU      0.00s WALL (     136 calls)
     ffts         :      0.00s CPU      0.00s WALL (       9 calls)
     fftw         :      0.36s CPU      0.45s WALL (   30750 calls)

     Parallel routines
     fft_scatt_xy :      0.05s CPU      0.06s WALL (   30895 calls)
     fft_scatt_yz :      0.15s CPU      0.18s WALL (   30895 calls)

     PWSCF        :     2.73s CPU         3.14s WALL


   This run was terminated on:  23: 8:52  25Mar2024            

=------------------------------------------------------------------------------=
   JOB DONE.
=------------------------------------------------------------------------------=
