
     Program PWSCF v.6.3MaX starts on 25Mar2024 at 23:32:33 

     This program is part of the open-source Quantum ESPRESSO suite
     for quantum simulation of materials; please cite
         "P. Giannozzi et al., J. Phys.:Condens. Matter 21 395502 (2009);
         "P. Giannozzi et al., J. Phys.:Condens. Matter 29 465901 (2017);
          URL http://www.quantum-espresso.org", 
     in publications or presentations arising from this work. More details at
     http://www.quantum-espresso.org/quote

     Parallel version (MPI), running on     5 processors

     MPI processes distributed on     1 nodes
     R & G space division:  proc/nbgrp/npool/nimage =       5
     Waiting for input...
     Reading input from standard input

     Current dimensions of program PWSCF are:
     Max number of different atomic species (ntypx) = 10
     Max number of k-points (npk) =  40000
     Max angular momentum in pseudopotentials (lmaxx) =  3
               file Cu.pbesol-dn-rrkjus_psl.1.0.0.UPF: wavefunction(s)  3D renormalized

     Subspace diagonalization in iterative solution of the eigenvalue problem:
     a serial algorithm will be used


     Parallelization info
     --------------------
     sticks:   dense  smooth     PW     G-vecs:    dense   smooth      PW
     Min          87      87     30                 1245     1245     241
     Max          88      88     31                 1247     1247     244
     Sum         439     439    151                 6231     6231    1211



     bravais-lattice index     =            2
     lattice parameter (alat)  =       6.8300  a.u.
     unit-cell volume          =      79.6530 (a.u.)^3
     number of atoms/cell      =            1
     number of atomic types    =            1
     number of electrons       =        11.00
     number of Kohn-Sham states=           10
     kinetic-energy cutoff     =      70.0000  Ry
     charge density cutoff     =     280.0000  Ry
     convergence threshold     =      1.0E-08
     mixing beta               =       0.7000
     number of iterations used =            8  plain     mixing
     Exchange-correlation      = PBESOL ( 1  4 10  8 0 0)

     celldm(1)=   6.830000  celldm(2)=   0.000000  celldm(3)=   0.000000
     celldm(4)=   0.000000  celldm(5)=   0.000000  celldm(6)=   0.000000

     crystal axes: (cart. coord. in units of alat)
               a(1) = (  -0.500000   0.000000   0.500000 )  
               a(2) = (   0.000000   0.500000   0.500000 )  
               a(3) = (  -0.500000   0.500000   0.000000 )  

     reciprocal axes: (cart. coord. in units 2 pi/alat)
               b(1) = ( -1.000000 -1.000000  1.000000 )  
               b(2) = (  1.000000  1.000000  1.000000 )  
               b(3) = ( -1.000000  1.000000 -1.000000 )  


     PseudoPot. # 1 for Cu read from file:
     /home/lorenzo/pseudos/Cu/Cu.pbesol-dn-rrkjus_psl.1.0.0.UPF
     MD5 check sum: bfa4c7aafbc42e028d5f4ccf7ceed93d
     Pseudo is Ultrasoft + core correction, Zval = 11.0
     Generated using "atomic" code by A. Dal Corso v.6.3
     Using radial grid of 1199 points,  6 beta functions with: 
                l(1) =   0
                l(2) =   0
                l(3) =   1
                l(4) =   1
                l(5) =   2
                l(6) =   2
     Q(r) pseudized with 0 coefficients 


     atomic species   valence    mass     pseudopotential
        Cu            11.00    63.54600     Cu( 1.00)

     48 Sym. Ops., with inversion, found



   Cartesian axes

     site n.     atom                  positions (alat units)
         1           Cu  tau(   1) = (   0.0000000   0.0000000   0.0000000  )

     number of k points=    47  gaussian smearing, width (Ry)=  0.0100
                       cart. coord. in units 2pi/alat
        k(    1) = (   0.0000000   0.0000000   0.0000000), wk =   0.0020000
        k(    2) = (  -0.1000000   0.1000000  -0.1000000), wk =   0.0160000
        k(    3) = (  -0.2000000   0.2000000  -0.2000000), wk =   0.0160000
        k(    4) = (  -0.3000000   0.3000000  -0.3000000), wk =   0.0160000
        k(    5) = (  -0.4000000   0.4000000  -0.4000000), wk =   0.0160000
        k(    6) = (   0.5000000  -0.5000000   0.5000000), wk =   0.0080000
        k(    7) = (   0.0000000   0.2000000   0.0000000), wk =   0.0120000
        k(    8) = (  -0.1000000   0.3000000  -0.1000000), wk =   0.0480000
        k(    9) = (  -0.2000000   0.4000000  -0.2000000), wk =   0.0480000
        k(   10) = (  -0.3000000   0.5000000  -0.3000000), wk =   0.0480000
        k(   11) = (   0.6000000  -0.4000000   0.6000000), wk =   0.0480000
        k(   12) = (   0.5000000  -0.3000000   0.5000000), wk =   0.0480000
        k(   13) = (   0.4000000  -0.2000000   0.4000000), wk =   0.0480000
        k(   14) = (   0.3000000  -0.1000000   0.3000000), wk =   0.0480000
        k(   15) = (   0.2000000   0.0000000   0.2000000), wk =   0.0240000
        k(   16) = (   0.0000000   0.4000000   0.0000000), wk =   0.0120000
        k(   17) = (  -0.1000000   0.5000000  -0.1000000), wk =   0.0480000
        k(   18) = (  -0.2000000   0.6000000  -0.2000000), wk =   0.0480000
        k(   19) = (   0.7000000  -0.3000000   0.7000000), wk =   0.0480000
        k(   20) = (   0.6000000  -0.2000000   0.6000000), wk =   0.0480000
        k(   21) = (   0.5000000  -0.1000000   0.5000000), wk =   0.0480000
        k(   22) = (   0.4000000   0.0000000   0.4000000), wk =   0.0240000
        k(   23) = (   0.0000000   0.6000000   0.0000000), wk =   0.0120000
        k(   24) = (  -0.1000000   0.7000000  -0.1000000), wk =   0.0480000
        k(   25) = (   0.8000000  -0.2000000   0.8000000), wk =   0.0480000
        k(   26) = (   0.7000000  -0.1000000   0.7000000), wk =   0.0480000
        k(   27) = (   0.6000000  -0.0000000   0.6000000), wk =   0.0240000
        k(   28) = (   0.0000000   0.8000000   0.0000000), wk =   0.0120000
        k(   29) = (   0.9000000  -0.1000000   0.9000000), wk =   0.0480000
        k(   30) = (   0.8000000   0.0000000   0.8000000), wk =   0.0240000
        k(   31) = (   0.0000000  -1.0000000   0.0000000), wk =   0.0060000
        k(   32) = (  -0.2000000   0.4000000   0.0000000), wk =   0.0480000
        k(   33) = (  -0.3000000   0.5000000  -0.1000000), wk =   0.0960000
        k(   34) = (   0.6000000  -0.4000000   0.8000000), wk =   0.0960000
        k(   35) = (   0.5000000  -0.3000000   0.7000000), wk =   0.0480000
        k(   36) = (  -0.2000000   0.6000000   0.0000000), wk =   0.0480000
        k(   37) = (   0.7000000  -0.3000000   0.9000000), wk =   0.0960000
        k(   38) = (   0.6000000  -0.2000000   0.8000000), wk =   0.0960000
        k(   39) = (   0.5000000  -0.1000000   0.7000000), wk =   0.0960000
        k(   40) = (   0.4000000   0.0000000   0.6000000), wk =   0.0480000
        k(   41) = (   0.8000000  -0.2000000   1.0000000), wk =   0.0480000
        k(   42) = (   0.7000000  -0.1000000   0.9000000), wk =   0.0960000
        k(   43) = (   0.6000000   0.0000000   0.8000000), wk =   0.0480000
        k(   44) = (  -0.2000000  -1.0000000   0.0000000), wk =   0.0240000
        k(   45) = (   0.6000000  -0.2000000   1.0000000), wk =   0.0480000
        k(   46) = (   0.5000000  -0.1000000   0.9000000), wk =   0.0480000
        k(   47) = (  -0.4000000  -1.0000000   0.0000000), wk =   0.0240000

     Dense  grid:     6231 G-vectors     FFT dimensions: (  25,  25,  25)

     Estimated max dynamical RAM per process >       7.20 MB

     Estimated total dynamical RAM >      36.02 MB

     Initial potential from superposition of free atoms

     starting charge   10.99979, renormalised to   11.00000
     Starting wfcs are    9 randomized atomic wfcs +    1 random wfcs

     total cpu time spent up to now is        1.0 secs

     Self-consistent Calculation

     iteration #  1     ecut=    70.00 Ry     beta= 0.70
     Davidson diagonalization with overlap
     ethr =  1.00E-02,  avg # of iterations =  3.6

     Threshold (ethr) on eigenvalues was too large:
     Diagonalizing with lowered threshold

     Davidson diagonalization with overlap
     ethr =  6.93E-04,  avg # of iterations =  1.0

     total cpu time spent up to now is        1.8 secs

     total energy              =    -122.36368234 Ry
     Harris-Foulkes estimate   =    -122.42397596 Ry
     estimated scf accuracy    <       0.07585648 Ry

     iteration #  2     ecut=    70.00 Ry     beta= 0.70
     Davidson diagonalization with overlap
     ethr =  6.90E-04,  avg # of iterations =  2.0

     total cpu time spent up to now is        2.2 secs

     total energy              =    -122.36539866 Ry
     Harris-Foulkes estimate   =    -122.47254325 Ry
     estimated scf accuracy    <       0.27947998 Ry

     iteration #  3     ecut=    70.00 Ry     beta= 0.70
     Davidson diagonalization with overlap
     ethr =  6.90E-04,  avg # of iterations =  2.0

     total cpu time spent up to now is        2.6 secs

     total energy              =    -122.40890403 Ry
     Harris-Foulkes estimate   =    -122.40894582 Ry
     estimated scf accuracy    <       0.00010890 Ry

     iteration #  4     ecut=    70.00 Ry     beta= 0.70
     Davidson diagonalization with overlap
     ethr =  9.90E-07,  avg # of iterations =  2.7

     total cpu time spent up to now is        3.1 secs

     total energy              =    -122.40898023 Ry
     Harris-Foulkes estimate   =    -122.40898540 Ry
     estimated scf accuracy    <       0.00001507 Ry

     iteration #  5     ecut=    70.00 Ry     beta= 0.70
     Davidson diagonalization with overlap
     ethr =  1.37E-07,  avg # of iterations =  1.1

     total cpu time spent up to now is        3.4 secs

     total energy              =    -122.40898304 Ry
     Harris-Foulkes estimate   =    -122.40898323 Ry
     estimated scf accuracy    <       0.00000058 Ry

     iteration #  6     ecut=    70.00 Ry     beta= 0.70
     Davidson diagonalization with overlap
     ethr =  5.23E-09,  avg # of iterations =  1.3

     total cpu time spent up to now is        3.8 secs

     End of self-consistent calculation

          k = 0.0000 0.0000 0.0000 (   749 PWs)   bands (ev):

     3.0491   9.4810   9.4810   9.4810  10.3154  10.3154  35.3873  37.7542
    37.7542  37.7542

          k =-0.1000 0.1000-0.1000 (   791 PWs)   bands (ev):

     3.4113   9.4060   9.5462   9.5462  10.2924  10.2924  32.6013  36.0287
    36.7960  36.7960

          k =-0.2000 0.2000-0.2000 (   794 PWs)   bands (ev):

     4.4525   9.2534   9.6435   9.6435  10.3147  10.3147  27.3919  35.5336
    35.6553  35.6553

          k =-0.3000 0.3000-0.3000 (   790 PWs)   bands (ev):

     5.9475   9.2879   9.5982   9.5982  10.5270  10.5270  22.5376  34.7660
    34.9205  34.9205

          k =-0.4000 0.4000-0.4000 (   790 PWs)   bands (ev):

     7.1077   9.4931   9.4931  10.1967  10.7841  10.7841  18.4064  34.0670
    34.5815  34.5815

          k = 0.5000-0.5000 0.5000 (   778 PWs)   bands (ev):

     7.3818   9.4465   9.4465  10.8930  10.8930  11.4098  16.2212  33.7958
    34.5076  34.5076

          k = 0.0000 0.2000 0.0000 (   797 PWs)   bands (ev):

     3.5313   9.3388   9.5967   9.5967  10.1884  10.3676  33.9808  34.6338
    34.6338  36.1684

          k =-0.1000 0.3000-0.1000 (   797 PWs)   bands (ev):

     4.3455   9.1759   9.7014   9.7222  10.1253  10.4302  29.3533  33.0544
    34.0169  37.2711

          k =-0.2000 0.4000-0.2000 (   795 PWs)   bands (ev):

     5.7104   9.0664   9.5951   9.7412  10.4197  10.6048  24.3424  32.1121
    33.3093  35.4884

          k =-0.3000 0.5000-0.3000 (   789 PWs)   bands (ev):

     7.0622   9.3244   9.4698   9.6494  10.8239  11.0855  19.8990  31.8667
    32.3419  33.7977

          k = 0.6000-0.4000 0.6000 (   791 PWs)   bands (ev):

     7.5531   9.3178   9.5693  10.0207  10.9004  12.3447  16.6443  30.9730
    32.3933  33.5530

          k = 0.5000-0.3000 0.5000 (   791 PWs)   bands (ev):

     7.4815   9.3577   9.5701   9.9182  10.7560  11.9623  17.4967  30.0658
    33.7328  34.1187

          k = 0.4000-0.2000 0.4000 (   790 PWs)   bands (ev):

     6.6882   9.2453   9.4921   9.6596  10.4481  11.0624  21.3067  29.8288
    35.3578  35.8451

          k = 0.3000-0.1000 0.3000 (   799 PWs)   bands (ev):

     5.2154   9.1236   9.6288   9.7567  10.1565  10.6258  25.9702  30.2421
    37.0859  38.5137

          k = 0.2000 0.0000 0.2000 (   797 PWs)   bands (ev):

     4.0010   9.2775   9.6369   9.6479  10.1678  10.3892  30.7996  31.5799
    37.5000  39.0824

          k = 0.0000 0.4000 0.0000 (   801 PWs)   bands (ev):

     4.9024   8.9738   9.9109   9.9258   9.9258  10.5054  31.0801  31.0801
    32.1828  33.2622

          k =-0.1000 0.5000-0.1000 (   804 PWs)   bands (ev):

     6.0115   8.7832   9.6575  10.0541  10.3992  10.6477  26.6391  29.8071
    31.0655  32.7672

          k =-0.2000 0.6000-0.2000 (   797 PWs)   bands (ev):

     7.2769   8.7407   9.4347  10.0046  10.8550  11.3567  22.0090  28.7693
    29.3244  32.4846

          k = 0.7000-0.3000 0.7000 (   792 PWs)   bands (ev):

     7.9374   8.8831   9.4464   9.9065  10.9207  13.1615  18.0632  26.8923
    29.7079  32.5396

          k = 0.6000-0.2000 0.6000 (   785 PWs)   bands (ev):

     8.0447   8.9888   9.4702   9.8518  10.7580  13.9237  17.0869  25.6421
    30.9634  33.0827

          k = 0.5000-0.1000 0.5000 (   787 PWs)   bands (ev):

     7.6894   9.0837   9.2069   9.8789  10.4253  12.1717  20.6323  25.1023
    33.0027  34.2171

          k = 0.4000 0.0000 0.4000 (   789 PWs)   bands (ev):

     6.4845   8.9743   9.4599   9.9715  10.0686  11.1866  24.7822  25.5921
    35.6775  35.9388

          k = 0.0000 0.6000 0.0000 (   801 PWs)   bands (ev):

     6.7062   8.5367  10.0100  10.3965  10.3965  10.6779  27.9986  28.1804
    28.1804  30.9481

          k =-0.1000 0.7000-0.1000 (   785 PWs)   bands (ev):

     7.4519   8.3972   9.9949  10.4556  10.8602  11.4343  24.5782  25.4032
    27.3772  31.5128

          k = 0.8000-0.2000 0.8000 (   781 PWs)   bands (ev):

     7.9732   8.4240   9.7609  10.3590  10.9491  13.5785  20.4551  23.3207
    27.5110  31.7256

          k = 0.7000-0.1000 0.7000 (   787 PWs)   bands (ev):

     8.3223   8.5577   9.4708  10.2432  10.8050  16.1869  17.2374  21.9226
    28.5856  32.1400

          k = 0.6000-0.0000 0.6000 (   788 PWs)   bands (ev):

     8.3828   8.8243   9.1238  10.1069  10.5522  14.0175  19.7948  21.7134
    30.4776  32.9671

          k = 0.0000 0.8000 0.0000 (   789 PWs)   bands (ev):

     7.5386   8.1940  10.8193  10.8458  10.8458  11.8624  22.6196  26.2273
    26.2273  30.2625

          k = 0.9000-0.1000 0.9000 (   777 PWs)   bands (ev):

     7.7056   8.1635  10.5925  10.7479  10.9890  13.8039  20.6482  23.4455
    26.0464  31.0190

          k = 0.8000 0.0000 0.8000 (   782 PWs)   bands (ev):

     8.0010   8.3101  10.0258  10.5782  10.9102  15.9188  19.6731  20.1726
    26.8761  31.5112

          k = 0.0000-1.0000 0.0000 (   790 PWs)   bands (ev):

     7.5935   8.0656  10.8737  11.0386  11.0386  13.9091  19.5720  25.5254
    25.5254  30.0450

          k =-0.2000 0.4000 0.0000 (   792 PWs)   bands (ev):

     5.3284   8.9934   9.6384   9.9373  10.1036  10.6442  27.8531  28.4813
    34.6017  36.0921

          k =-0.3000 0.5000-0.1000 (   792 PWs)   bands (ev):

     6.7072   8.9087   9.4156   9.9396  10.3989  11.1589  23.2835  27.5875
    32.0681  36.1829

          k = 0.6000-0.4000 0.8000 (   789 PWs)   bands (ev):

     7.7105   9.0910   9.3327   9.8343  10.7383  12.2870  19.0619  27.6409
    29.9731  35.6651

          k = 0.5000-0.3000 0.7000 (   790 PWs)   bands (ev):

     7.9187   9.0600   9.5989   9.7734  10.8496  13.7673  16.5080  28.2281
    28.6873  35.4461

          k =-0.2000 0.6000 0.0000 (   790 PWs)   bands (ev):

     7.0445   8.6179   9.5243  10.3955  10.4442  11.1808  25.4817  26.0693
    28.4761  34.3212

          k = 0.7000-0.3000 0.9000 (   789 PWs)   bands (ev):

     7.9229   8.6122   9.3406  10.2839  10.7759  12.5848  21.3333  25.6297
    26.1970  34.8931

          k = 0.6000-0.2000 0.8000 (   791 PWs)   bands (ev):

     8.3161   8.6702   9.3023  10.1363  10.8614  14.9492  17.6435  24.4258
    26.3020  35.2511

          k = 0.5000-0.1000 0.7000 (   784 PWs)   bands (ev):

     8.3756   8.7792   9.1305  10.1030  10.7090  14.2218  18.7253  23.4039
    27.6371  36.1300

          k = 0.4000 0.0000 0.6000 (   783 PWs)   bands (ev):

     7.8329   8.8427   9.1160  10.1580  10.4189  12.2673  22.3562  23.4909
    29.5976  37.5391

          k = 0.8000-0.2000 1.0000 (   786 PWs)   bands (ev):

     7.7893   8.3172  10.0071  10.6990  10.8439  12.9348  22.9510  23.8537
    24.5215  33.2723

          k = 0.7000-0.1000 0.9000 (   775 PWs)   bands (ev):

     8.0922   8.4156   9.7186  10.4926  10.9562  15.3715  20.2282  21.2498
    24.6508  34.2766

          k = 0.6000 0.0000 0.8000 (   777 PWs)   bands (ev):

     8.4234   8.5750   9.3102  10.2947  10.8473  16.8738  17.9893  20.7463
    25.8236  35.0669

          k =-0.2000-1.0000 0.0000 (   782 PWs)   bands (ev):

     7.8109   8.2037  10.3497  10.7079  11.0388  15.0300  19.7541  23.2574
    23.9428  32.9325

          k = 0.6000-0.2000 1.0000 (   776 PWs)   bands (ev):

     8.3306   8.6925   9.1217  10.3547  10.8406  14.6598  20.7097  22.2182
    24.0460  38.3466

          k = 0.5000-0.1000 0.9000 (   778 PWs)   bands (ev):

     8.4323   8.8000   9.0325  10.2575  10.9462  17.2564  17.8660  22.4500
    22.6744  38.8938

          k =-0.4000-1.0000 0.0000 (   772 PWs)   bands (ev):

     8.2497   8.6299   9.3622  10.3513  11.0393  17.2972  20.1049  20.3856
    21.8255  37.9613

     the Fermi energy is    12.3870 ev

!    total energy              =    -122.40898314 Ry
     Harris-Foulkes estimate   =    -122.40898314 Ry
     estimated scf accuracy    <          1.3E-09 Ry

     The total energy is the sum of the following terms:

     one-electron contribution =     -27.59490796 Ry
     hartree contribution      =      30.52197571 Ry
     xc contribution           =     -44.11043538 Ry
     ewald contribution        =     -81.22522855 Ry
     smearing contrib. (-TS)   =      -0.00038696 Ry

     convergence has been achieved in   6 iterations

     Forces acting on atoms (cartesian axes, Ry/au):

     atom    1 type  1   force =     0.00000000    0.00000000    0.00000000

     Total force =     0.000000     Total SCF correction =     0.000000


     Computing stress (Cartesian axis) and pressure

          total   stress  (Ry/bohr**3)                   (kbar)     P=  -55.64
  -0.00037824  -0.00000000   0.00000000        -55.64     -0.00      0.00
  -0.00000000  -0.00037824   0.00000000         -0.00    -55.64      0.00
   0.00000000   0.00000000  -0.00037824          0.00      0.00    -55.64


     Writing output data file Cu.save/

     init_run     :      0.29s CPU      0.31s WALL (       1 calls)
     electrons    :      2.68s CPU      2.82s WALL (       1 calls)
     forces       :      0.04s CPU      0.04s WALL (       1 calls)
     stress       :      0.14s CPU      0.14s WALL (       1 calls)

     Called by init_run:
     wfcinit      :      0.12s CPU      0.13s WALL (       1 calls)
     potinit      :      0.01s CPU      0.01s WALL (       1 calls)
     hinit0       :      0.16s CPU      0.16s WALL (       1 calls)

     Called by electrons:
     c_bands      :      2.17s CPU      2.28s WALL (       7 calls)
     sum_band     :      0.44s CPU      0.46s WALL (       7 calls)
     v_of_rho     :      0.02s CPU      0.02s WALL (       7 calls)
     newd         :      0.05s CPU      0.05s WALL (       7 calls)
     mix_rho      :      0.00s CPU      0.00s WALL (       7 calls)

     Called by c_bands:
     init_us_2    :      0.08s CPU      0.09s WALL (     799 calls)
     cegterg      :      2.05s CPU      2.16s WALL (     329 calls)

     Called by sum_band:
     sum_band:bec :      0.00s CPU      0.00s WALL (     329 calls)
     addusdens    :      0.04s CPU      0.04s WALL (       7 calls)

     Called by *egterg:
     h_psi        :      1.65s CPU      1.74s WALL (    1023 calls)
     s_psi        :      0.06s CPU      0.06s WALL (    1023 calls)
     g_psi        :      0.01s CPU      0.01s WALL (     647 calls)
     cdiaghg      :      0.18s CPU      0.19s WALL (     929 calls)

     Called by h_psi:
     h_psi:pot    :      1.65s CPU      1.73s WALL (    1023 calls)
     h_psi:calbec :      0.08s CPU      0.08s WALL (    1023 calls)
     vloc_psi     :      1.51s CPU      1.59s WALL (    1023 calls)
     add_vuspsi   :      0.05s CPU      0.06s WALL (    1023 calls)

     General routines
     calbec       :      0.13s CPU      0.13s WALL (    1587 calls)
     fft          :      0.02s CPU      0.02s WALL (     104 calls)
     ffts         :      0.00s CPU      0.00s WALL (       7 calls)
     fftw         :      1.72s CPU      1.80s WALL (   19920 calls)

     Parallel routines
     fft_scatt_xy :      0.13s CPU      0.14s WALL (   20031 calls)
     fft_scatt_yz :      0.53s CPU      0.55s WALL (   20031 calls)

     PWSCF        :     3.87s CPU         4.09s WALL


   This run was terminated on:  23:32:37  25Mar2024            

=------------------------------------------------------------------------------=
   JOB DONE.
=------------------------------------------------------------------------------=
