
     Program PWSCF v.6.3MaX starts on 25Mar2024 at 23:47:20 

     This program is part of the open-source Quantum ESPRESSO suite
     for quantum simulation of materials; please cite
         "P. Giannozzi et al., J. Phys.:Condens. Matter 21 395502 (2009);
         "P. Giannozzi et al., J. Phys.:Condens. Matter 29 465901 (2017);
          URL http://www.quantum-espresso.org", 
     in publications or presentations arising from this work. More details at
     http://www.quantum-espresso.org/quote

     Parallel version (MPI), running on     5 processors

     MPI processes distributed on     1 nodes
     R & G space division:  proc/nbgrp/npool/nimage =       5
     Waiting for input...
     Reading input from standard input

     Current dimensions of program PWSCF are:
     Max number of different atomic species (ntypx) = 10
     Max number of k-points (npk) =  40000
     Max angular momentum in pseudopotentials (lmaxx) =  3
               file Cu.pbe-dn-rrkjus_psl.1.0.0.UPF: wavefunction(s)  3D renormalized

     Subspace diagonalization in iterative solution of the eigenvalue problem:
     a serial algorithm will be used


     Parallelization info
     --------------------
     sticks:   dense  smooth     PW     G-vecs:    dense   smooth      PW
     Min         119     119     37                 1967     1967     327
     Max         119     119     38                 1969     1969     329
     Sum         595     595    187                 9841     9841    1639



     bravais-lattice index     =            2
     lattice parameter (alat)  =       6.8300  a.u.
     unit-cell volume          =      79.6530 (a.u.)^3
     number of atoms/cell      =            1
     number of atomic types    =            1
     number of electrons       =        11.00
     number of Kohn-Sham states=           10
     kinetic-energy cutoff     =      95.0000  Ry
     charge density cutoff     =     380.0000  Ry
     convergence threshold     =      1.0E-08
     mixing beta               =       0.7000
     number of iterations used =            8  plain     mixing
     Exchange-correlation      = PBE ( 1  4  3  4 0 0)

     celldm(1)=   6.830000  celldm(2)=   0.000000  celldm(3)=   0.000000
     celldm(4)=   0.000000  celldm(5)=   0.000000  celldm(6)=   0.000000

     crystal axes: (cart. coord. in units of alat)
               a(1) = (  -0.500000   0.000000   0.500000 )  
               a(2) = (   0.000000   0.500000   0.500000 )  
               a(3) = (  -0.500000   0.500000   0.000000 )  

     reciprocal axes: (cart. coord. in units 2 pi/alat)
               b(1) = ( -1.000000 -1.000000  1.000000 )  
               b(2) = (  1.000000  1.000000  1.000000 )  
               b(3) = ( -1.000000  1.000000 -1.000000 )  


     PseudoPot. # 1 for Cu read from file:
     /home/lorenzo/pseudos/Cu/Cu.pbe-dn-rrkjus_psl.1.0.0.UPF
     MD5 check sum: ba3d6c84e19846e79d48cdc68ff7152b
     Pseudo is Ultrasoft + core correction, Zval = 11.0
     Generated using "atomic" code by A. Dal Corso v.6.3
     Using radial grid of 1199 points,  6 beta functions with: 
                l(1) =   0
                l(2) =   0
                l(3) =   1
                l(4) =   1
                l(5) =   2
                l(6) =   2
     Q(r) pseudized with 0 coefficients 


     atomic species   valence    mass     pseudopotential
        Cu            11.00    63.54600     Cu( 1.00)

     48 Sym. Ops., with inversion, found



   Cartesian axes

     site n.     atom                  positions (alat units)
         1           Cu  tau(   1) = (   0.0000000   0.0000000   0.0000000  )

     number of k points=     3  gaussian smearing, width (Ry)=  0.0100
                       cart. coord. in units 2pi/alat
        k(    1) = (   0.0000000   0.0000000   0.0000000), wk =   0.2500000
        k(    2) = (   0.5000000  -0.5000000   0.5000000), wk =   1.0000000
        k(    3) = (   0.0000000  -1.0000000   0.0000000), wk =   0.7500000

     Dense  grid:     9841 G-vectors     FFT dimensions: (  30,  30,  30)

     Estimated max dynamical RAM per process >       9.15 MB

     Estimated total dynamical RAM >      45.75 MB

     Initial potential from superposition of free atoms

     starting charge   10.99977, renormalised to   11.00000
     Starting wfcs are    9 randomized atomic wfcs +    1 random wfcs

     total cpu time spent up to now is        0.9 secs

     Self-consistent Calculation

     iteration #  1     ecut=    95.00 Ry     beta= 0.70
     Davidson diagonalization with overlap
     ethr =  1.00E-02,  avg # of iterations =  4.3

     Threshold (ethr) on eigenvalues was too large:
     Diagonalizing with lowered threshold

     Davidson diagonalization with overlap
     ethr =  5.60E-04,  avg # of iterations =  1.0

     total cpu time spent up to now is        1.1 secs

     total energy              =    -122.56188599 Ry
     Harris-Foulkes estimate   =    -122.60782017 Ry
     estimated scf accuracy    <       0.06169509 Ry

     iteration #  2     ecut=    95.00 Ry     beta= 0.70
     Davidson diagonalization with overlap
     ethr =  5.61E-04,  avg # of iterations =  2.0

     total cpu time spent up to now is        1.1 secs

     total energy              =    -122.57114622 Ry
     Harris-Foulkes estimate   =    -122.66164375 Ry
     estimated scf accuracy    <       0.24285388 Ry

     iteration #  3     ecut=    95.00 Ry     beta= 0.70
     Davidson diagonalization with overlap
     ethr =  5.61E-04,  avg # of iterations =  2.0

     total cpu time spent up to now is        1.2 secs

     total energy              =    -122.59541044 Ry
     Harris-Foulkes estimate   =    -122.59925251 Ry
     estimated scf accuracy    <       0.01138348 Ry

     iteration #  4     ecut=    95.00 Ry     beta= 0.70
     Davidson diagonalization with overlap
     ethr =  1.03E-04,  avg # of iterations =  1.0

     total cpu time spent up to now is        1.2 secs

     total energy              =    -122.59537051 Ry
     Harris-Foulkes estimate   =    -122.59808215 Ry
     estimated scf accuracy    <       0.01301112 Ry

     iteration #  5     ecut=    95.00 Ry     beta= 0.70
     Davidson diagonalization with overlap
     ethr =  1.03E-04,  avg # of iterations =  2.3

     total cpu time spent up to now is        1.3 secs

     total energy              =    -122.59730361 Ry
     Harris-Foulkes estimate   =    -122.59790017 Ry
     estimated scf accuracy    <       0.00549915 Ry

     iteration #  6     ecut=    95.00 Ry     beta= 0.70
     Davidson diagonalization with overlap
     ethr =  5.00E-05,  avg # of iterations =  1.0

     total cpu time spent up to now is        1.3 secs

     total energy              =    -122.59729244 Ry
     Harris-Foulkes estimate   =    -122.59742092 Ry
     estimated scf accuracy    <       0.00128515 Ry

     iteration #  7     ecut=    95.00 Ry     beta= 0.70
     Davidson diagonalization with overlap
     ethr =  1.17E-05,  avg # of iterations =  1.0

     total cpu time spent up to now is        1.4 secs

     total energy              =    -122.59732742 Ry
     Harris-Foulkes estimate   =    -122.59734103 Ry
     estimated scf accuracy    <       0.00005005 Ry

     iteration #  8     ecut=    95.00 Ry     beta= 0.70
     Davidson diagonalization with overlap
     ethr =  4.55E-07,  avg # of iterations =  1.0

     total cpu time spent up to now is        1.4 secs

     total energy              =    -122.59734829 Ry
     Harris-Foulkes estimate   =    -122.59734641 Ry
     estimated scf accuracy    <       0.00014224 Ry

     iteration #  9     ecut=    95.00 Ry     beta= 0.70
     Davidson diagonalization with overlap
     ethr =  4.55E-07,  avg # of iterations =  1.0

     total cpu time spent up to now is        1.5 secs

     total energy              =    -122.59733272 Ry
     Harris-Foulkes estimate   =    -122.59734876 Ry
     estimated scf accuracy    <       0.00017849 Ry

     iteration # 10     ecut=    95.00 Ry     beta= 0.70
     Davidson diagonalization with overlap
     ethr =  4.55E-07,  avg # of iterations =  1.0

     total cpu time spent up to now is        1.6 secs

     total energy              =    -122.59733706 Ry
     Harris-Foulkes estimate   =    -122.59733925 Ry
     estimated scf accuracy    <       0.00000499 Ry

     iteration # 11     ecut=    95.00 Ry     beta= 0.70
     Davidson diagonalization with overlap
     ethr =  4.54E-08,  avg # of iterations =  2.0

     total cpu time spent up to now is        1.6 secs

     total energy              =    -122.59734166 Ry
     Harris-Foulkes estimate   =    -122.59734287 Ry
     estimated scf accuracy    <       0.00006615 Ry

     iteration # 12     ecut=    95.00 Ry     beta= 0.70
     Davidson diagonalization with overlap
     ethr =  4.54E-08,  avg # of iterations =  1.0

     total cpu time spent up to now is        1.7 secs

     total energy              =    -122.59734239 Ry
     Harris-Foulkes estimate   =    -122.59734177 Ry
     estimated scf accuracy    <       0.00004685 Ry

     iteration # 13     ecut=    95.00 Ry     beta= 0.70
     Davidson diagonalization with overlap
     ethr =  4.54E-08,  avg # of iterations =  1.0

     total cpu time spent up to now is        1.8 secs

     total energy              =    -122.59734505 Ry
     Harris-Foulkes estimate   =    -122.59734242 Ry
     estimated scf accuracy    <       0.00005788 Ry

     iteration # 14     ecut=    95.00 Ry     beta= 0.70
     Davidson diagonalization with overlap
     ethr =  4.54E-08,  avg # of iterations =  1.0

     total cpu time spent up to now is        1.8 secs

     total energy              =    -122.59733406 Ry
     Harris-Foulkes estimate   =    -122.59734537 Ry
     estimated scf accuracy    <       0.00009625 Ry

     iteration # 15     ecut=    95.00 Ry     beta= 0.70
     Davidson diagonalization with overlap
     ethr =  4.54E-08,  avg # of iterations =  1.0

     total cpu time spent up to now is        1.9 secs

     total energy              =    -122.59733908 Ry
     Harris-Foulkes estimate   =    -122.59733904 Ry
     estimated scf accuracy    <       0.00000005 Ry

     iteration # 16     ecut=    95.00 Ry     beta= 0.70
     Davidson diagonalization with overlap
     ethr =  4.11E-10,  avg # of iterations =  2.3

     total cpu time spent up to now is        1.9 secs

     total energy              =    -122.59733909 Ry
     Harris-Foulkes estimate   =    -122.59733910 Ry
     estimated scf accuracy    <       0.00000047 Ry

     iteration # 17     ecut=    95.00 Ry     beta= 0.70
     Davidson diagonalization with overlap
     ethr =  4.11E-10,  avg # of iterations =  1.0

     total cpu time spent up to now is        2.0 secs

     total energy              =    -122.59733901 Ry
     Harris-Foulkes estimate   =    -122.59733909 Ry
     estimated scf accuracy    <       0.00000046 Ry

     iteration # 18     ecut=    95.00 Ry     beta= 0.70
     Davidson diagonalization with overlap
     ethr =  4.11E-10,  avg # of iterations =  2.3

     total cpu time spent up to now is        2.1 secs

     total energy              =    -122.59733904 Ry
     Harris-Foulkes estimate   =    -122.59733905 Ry
     estimated scf accuracy    <       0.00000006 Ry

     iteration # 19     ecut=    95.00 Ry     beta= 0.70
     Davidson diagonalization with overlap
     ethr =  4.11E-10,  avg # of iterations =  1.0

     total cpu time spent up to now is        2.1 secs

     total energy              =    -122.59733905 Ry
     Harris-Foulkes estimate   =    -122.59733905 Ry
     estimated scf accuracy    <       0.00000003 Ry

     iteration # 20     ecut=    95.00 Ry     beta= 0.70
     Davidson diagonalization with overlap
     ethr =  2.35E-10,  avg # of iterations =  1.0

     total cpu time spent up to now is        2.2 secs

     total energy              =    -122.59733905 Ry
     Harris-Foulkes estimate   =    -122.59733905 Ry
     estimated scf accuracy    <       0.00000001 Ry

     iteration # 21     ecut=    95.00 Ry     beta= 0.70
     Davidson diagonalization with overlap
     ethr =  1.19E-10,  avg # of iterations =  1.0

     total cpu time spent up to now is        2.2 secs

     total energy              =    -122.59733904 Ry
     Harris-Foulkes estimate   =    -122.59733905 Ry
     estimated scf accuracy    <       0.00000001 Ry

     iteration # 22     ecut=    95.00 Ry     beta= 0.70
     Davidson diagonalization with overlap
     ethr =  9.75E-11,  avg # of iterations =  1.0

     total cpu time spent up to now is        2.3 secs

     End of self-consistent calculation

          k = 0.0000 0.0000 0.0000 (  1243 PWs)   bands (ev):

     3.2854   9.9823   9.9823   9.9823  10.8473  10.8473  35.5702  38.0289
    38.0289  38.0289

          k = 0.5000-0.5000 0.5000 (  1224 PWs)   bands (ev):

     7.7760   9.9506   9.9506  11.4306  11.4306  11.6424  16.6139  33.9743
    34.8100  34.8100

          k = 0.0000-1.0000 0.0000 (  1234 PWs)   bands (ev):

     8.0187   8.5233  11.4173  11.5752  11.5752  14.1555  19.9289  25.7982
    25.7982  30.3774

     the Fermi energy is    11.7332 ev

!    total energy              =    -122.59733904 Ry
     Harris-Foulkes estimate   =    -122.59733904 Ry
     estimated scf accuracy    <          6.0E-09 Ry

     The total energy is the sum of the following terms:

     one-electron contribution =     -27.51338991 Ry
     hartree contribution      =      30.83517325 Ry
     xc contribution           =     -44.69093939 Ry
     ewald contribution        =     -81.22522855 Ry
     smearing contrib. (-TS)   =      -0.00295444 Ry

     convergence has been achieved in  22 iterations

     Forces acting on atoms (cartesian axes, Ry/au):

     atom    1 type  1   force =     0.00000000    0.00000000    0.00000000

     Total force =     0.000000     Total SCF correction =     0.000000


     Computing stress (Cartesian axis) and pressure

          total   stress  (Ry/bohr**3)                   (kbar)     P=  274.32
   0.00186479  -0.00000000  -0.00000000        274.32     -0.00     -0.00
  -0.00000000   0.00186479   0.00000000         -0.00    274.32      0.00
  -0.00000000   0.00000000   0.00186479         -0.00      0.00    274.32


     Writing output data file Cu.save/

     init_run     :      0.22s CPU      0.23s WALL (       1 calls)
     electrons    :      1.32s CPU      1.36s WALL (       1 calls)
     forces       :      0.04s CPU      0.04s WALL (       1 calls)
     stress       :      0.09s CPU      0.09s WALL (       1 calls)

     Called by init_run:
     wfcinit      :      0.01s CPU      0.01s WALL (       1 calls)
     potinit      :      0.01s CPU      0.01s WALL (       1 calls)
     hinit0       :      0.18s CPU      0.18s WALL (       1 calls)

     Called by electrons:
     c_bands      :      0.58s CPU      0.61s WALL (      23 calls)
     sum_band     :      0.38s CPU      0.39s WALL (      23 calls)
     v_of_rho     :      0.12s CPU      0.12s WALL (      23 calls)
     newd         :      0.22s CPU      0.23s WALL (      23 calls)
     mix_rho      :      0.03s CPU      0.03s WALL (      23 calls)

     Called by c_bands:
     init_us_2    :      0.03s CPU      0.03s WALL (     147 calls)
     cegterg      :      0.55s CPU      0.57s WALL (      69 calls)

     Called by sum_band:
     sum_band:bec :      0.00s CPU      0.00s WALL (      69 calls)
     addusdens    :      0.22s CPU      0.22s WALL (      23 calls)

     Called by *egterg:
     h_psi        :      0.45s CPU      0.47s WALL (     172 calls)
     s_psi        :      0.01s CPU      0.01s WALL (     172 calls)
     g_psi        :      0.00s CPU      0.00s WALL (     100 calls)
     cdiaghg      :      0.03s CPU      0.03s WALL (     166 calls)

     Called by h_psi:
     h_psi:pot    :      0.44s CPU      0.47s WALL (     172 calls)
     h_psi:calbec :      0.02s CPU      0.02s WALL (     172 calls)
     vloc_psi     :      0.41s CPU      0.43s WALL (     172 calls)
     add_vuspsi   :      0.01s CPU      0.02s WALL (     172 calls)

     General routines
     calbec       :      0.03s CPU      0.04s WALL (     256 calls)
     fft          :      0.07s CPU      0.07s WALL (     280 calls)
     ffts         :      0.00s CPU      0.00s WALL (      23 calls)
     fftw         :      0.47s CPU      0.49s WALL (    3710 calls)

     Parallel routines
     fft_scatt_xy :      0.04s CPU      0.04s WALL (    4013 calls)
     fft_scatt_yz :      0.17s CPU      0.17s WALL (    4013 calls)

     PWSCF        :     2.38s CPU         2.47s WALL


   This run was terminated on:  23:47:23  25Mar2024            

=------------------------------------------------------------------------------=
   JOB DONE.
=------------------------------------------------------------------------------=
