
     Program PWSCF v.6.3MaX starts on 25Mar2024 at 23: 7:19 

     This program is part of the open-source Quantum ESPRESSO suite
     for quantum simulation of materials; please cite
         "P. Giannozzi et al., J. Phys.:Condens. Matter 21 395502 (2009);
         "P. Giannozzi et al., J. Phys.:Condens. Matter 29 465901 (2017);
          URL http://www.quantum-espresso.org", 
     in publications or presentations arising from this work. More details at
     http://www.quantum-espresso.org/quote

     Parallel version (MPI), running on     5 processors

     MPI processes distributed on     1 nodes
     R & G space division:  proc/nbgrp/npool/nimage =       5
     Waiting for input...
     Reading input from standard input

     Current dimensions of program PWSCF are:
     Max number of different atomic species (ntypx) = 10
     Max number of k-points (npk) =  40000
     Max angular momentum in pseudopotentials (lmaxx) =  3
               file Cu.pbesol-dn-kjpaw_psl.1.0.0.UPF: wavefunction(s)  4S 3D renormalized

     Subspace diagonalization in iterative solution of the eigenvalue problem:
     a serial algorithm will be used


     Parallelization info
     --------------------
     sticks:   dense  smooth     PW     G-vecs:    dense   smooth      PW
     Min         129     129     39                 2168     2168     365
     Max         130     130     40                 2171     2171     368
     Sum         649     649    199                10849    10849    1837



     bravais-lattice index     =            2
     lattice parameter (alat)  =       6.8300  a.u.
     unit-cell volume          =      79.6530 (a.u.)^3
     number of atoms/cell      =            1
     number of atomic types    =            1
     number of electrons       =        11.00
     number of Kohn-Sham states=           10
     kinetic-energy cutoff     =     100.0000  Ry
     charge density cutoff     =     400.0000  Ry
     convergence threshold     =      1.0E-08
     mixing beta               =       0.7000
     number of iterations used =            8  plain     mixing
     Exchange-correlation      = SLA PW PSX PSC ( 1  4 10  8 0 0)

     celldm(1)=   6.830000  celldm(2)=   0.000000  celldm(3)=   0.000000
     celldm(4)=   0.000000  celldm(5)=   0.000000  celldm(6)=   0.000000

     crystal axes: (cart. coord. in units of alat)
               a(1) = (  -0.500000   0.000000   0.500000 )  
               a(2) = (   0.000000   0.500000   0.500000 )  
               a(3) = (  -0.500000   0.500000   0.000000 )  

     reciprocal axes: (cart. coord. in units 2 pi/alat)
               b(1) = ( -1.000000 -1.000000  1.000000 )  
               b(2) = (  1.000000  1.000000  1.000000 )  
               b(3) = ( -1.000000  1.000000 -1.000000 )  


     PseudoPot. # 1 for Cu read from file:
     /home/lorenzo/pseudos/Cu/Cu.pbesol-dn-kjpaw_psl.1.0.0.UPF
     MD5 check sum: 1e9735a74797514c934643dbd229f231
     Pseudo is Projector augmented-wave + core cor, Zval = 11.0
     Generated using "atomic" code by A. Dal Corso v.6.3
     Shape of augmentation charge: PSQ
     Using radial grid of 1199 points,  6 beta functions with: 
                l(1) =   0
                l(2) =   0
                l(3) =   1
                l(4) =   1
                l(5) =   2
                l(6) =   2
     Q(r) pseudized with 0 coefficients 


     atomic species   valence    mass     pseudopotential
        Cu            11.00    63.54600     Cu( 1.00)

     48 Sym. Ops., with inversion, found



   Cartesian axes

     site n.     atom                  positions (alat units)
         1           Cu  tau(   1) = (   0.0000000   0.0000000   0.0000000  )

     number of k points=    10  gaussian smearing, width (Ry)=  0.0100
                       cart. coord. in units 2pi/alat
        k(    1) = (   0.0000000   0.0000000   0.0000000), wk =   0.0160000
        k(    2) = (  -0.2000000   0.2000000  -0.2000000), wk =   0.1280000
        k(    3) = (  -0.4000000   0.4000000  -0.4000000), wk =   0.1280000
        k(    4) = (   0.0000000   0.4000000   0.0000000), wk =   0.0960000
        k(    5) = (  -0.2000000   0.6000000  -0.2000000), wk =   0.3840000
        k(    6) = (   0.6000000  -0.2000000   0.6000000), wk =   0.3840000
        k(    7) = (   0.4000000   0.0000000   0.4000000), wk =   0.1920000
        k(    8) = (   0.0000000   0.8000000   0.0000000), wk =   0.0960000
        k(    9) = (   0.8000000   0.0000000   0.8000000), wk =   0.1920000
        k(   10) = (   0.6000000  -0.2000000   1.0000000), wk =   0.3840000

     Dense  grid:    10849 G-vectors     FFT dimensions: (  32,  32,  32)

     Estimated max dynamical RAM per process >      10.32 MB

     Estimated total dynamical RAM >      51.62 MB

     Initial potential from superposition of free atoms

     starting charge   10.99979, renormalised to   11.00000
     Starting wfcs are    9 randomized atomic wfcs +    1 random wfcs
     Checking if some PAW data can be deallocated... 

     total cpu time spent up to now is        1.1 secs

     Self-consistent Calculation

     iteration #  1     ecut=   100.00 Ry     beta= 0.70
     Davidson diagonalization with overlap
     ethr =  1.00E-02,  avg # of iterations =  3.5

     Threshold (ethr) on eigenvalues was too large:
     Diagonalizing with lowered threshold

     Davidson diagonalization with overlap
     ethr =  6.77E-04,  avg # of iterations =  1.0

     total cpu time spent up to now is        1.5 secs

     total energy              =    -210.38271847 Ry
     Harris-Foulkes estimate   =    -210.44195870 Ry
     estimated scf accuracy    <       0.07409424 Ry

     iteration #  2     ecut=   100.00 Ry     beta= 0.70
     Davidson diagonalization with overlap
     ethr =  6.74E-04,  avg # of iterations =  2.0

     total cpu time spent up to now is        1.8 secs

     total energy              =    -210.38713893 Ry
     Harris-Foulkes estimate   =    -210.49193649 Ry
     estimated scf accuracy    <       0.27291265 Ry

     iteration #  3     ecut=   100.00 Ry     beta= 0.70
     Davidson diagonalization with overlap
     ethr =  6.74E-04,  avg # of iterations =  2.2

     total cpu time spent up to now is        2.0 secs

     total energy              =    -210.42820157 Ry
     Harris-Foulkes estimate   =    -210.42842766 Ry
     estimated scf accuracy    <       0.00047424 Ry

     iteration #  4     ecut=   100.00 Ry     beta= 0.70
     Davidson diagonalization with overlap
     ethr =  4.31E-06,  avg # of iterations =  2.4

     total cpu time spent up to now is        2.2 secs

     total energy              =    -210.42834941 Ry
     Harris-Foulkes estimate   =    -210.42836202 Ry
     estimated scf accuracy    <       0.00003453 Ry

     iteration #  5     ecut=   100.00 Ry     beta= 0.70
     Davidson diagonalization with overlap
     ethr =  3.14E-07,  avg # of iterations =  1.5

     total cpu time spent up to now is        2.4 secs

     total energy              =    -210.42835581 Ry
     Harris-Foulkes estimate   =    -210.42835585 Ry
     estimated scf accuracy    <       0.00000009 Ry

     iteration #  6     ecut=   100.00 Ry     beta= 0.70
     Davidson diagonalization with overlap
     ethr =  8.11E-10,  avg # of iterations =  2.8

     total cpu time spent up to now is        2.7 secs

     End of self-consistent calculation

          k = 0.0000 0.0000 0.0000 (  1363 PWs)   bands (ev):

     3.0466   9.5192   9.5192   9.5192  10.3621  10.3621  35.3794  37.7557
    37.7557  37.7557

          k =-0.2000 0.2000-0.2000 (  1345 PWs)   bands (ev):

     4.4506   9.2890   9.6829   9.6829  10.3604  10.3604  27.3983  35.5259
    35.6616  35.6616

          k =-0.4000 0.4000-0.4000 (  1362 PWs)   bands (ev):

     7.1226   9.5336   9.5336  10.2076  10.8295  10.8295  18.4213  34.0558
    34.5893  34.5893

          k = 0.0000 0.4000 0.0000 (  1343 PWs)   bands (ev):

     4.9006   9.0095   9.9542   9.9653   9.9653  10.5529  31.0859  31.0859
    32.1862  33.2574

          k =-0.2000 0.6000-0.2000 (  1345 PWs)   bands (ev):

     7.2862   8.7726   9.4719  10.0466  10.9012  11.3912  22.0181  28.7749
    29.3298  32.4894

          k = 0.6000-0.2000 0.6000 (  1350 PWs)   bands (ev):

     8.0696   9.0231   9.5008   9.8943  10.8024  13.9408  17.1039  25.6493
    30.9703  33.0835

          k = 0.4000 0.0000 0.4000 (  1344 PWs)   bands (ev):

     6.4859   9.0084   9.4990  10.0161  10.1090  11.2289  24.7916  25.5975
    35.6859  35.9365

          k = 0.0000 0.8000 0.0000 (  1347 PWs)   bands (ev):

     7.5620   8.2262  10.8680  10.8889  10.8889  11.8727  22.6317  26.2299
    26.2299  30.2723

          k = 0.8000 0.0000 0.8000 (  1348 PWs)   bands (ev):

     8.0313   8.3409  10.0601  10.6254  10.9537  15.9276  19.6847  20.1853
    26.8798  31.5175

          k = 0.6000-0.2000 1.0000 (  1336 PWs)   bands (ev):

     8.3587   8.7245   9.1537  10.4000  10.8837  14.6776  20.7192  22.2262
    24.0552  38.3480

     the Fermi energy is    11.8929 ev

!    total energy              =    -210.42835593 Ry
     Harris-Foulkes estimate   =    -210.42835593 Ry
     estimated scf accuracy    <          1.4E-09 Ry

     total all-electron energy =     -3307.307417 Ry

     The total energy is the sum of the following terms:

     one-electron contribution =     -28.04728119 Ry
     hartree contribution      =      30.56082125 Ry
     xc contribution           =     -44.11801476 Ry
     ewald contribution        =     -81.22522855 Ry
     one-center paw contrib.   =     -87.59838780 Ry
     smearing contrib. (-TS)   =      -0.00026488 Ry

     convergence has been achieved in   6 iterations

     Forces acting on atoms (cartesian axes, Ry/au):

     atom    1 type  1   force =     0.00000000    0.00000000    0.00000000

     Total force =     0.000000     Total SCF correction =     0.000000


     Computing stress (Cartesian axis) and pressure

          total   stress  (Ry/bohr**3)                   (kbar)     P=  -71.02
  -0.00048278   0.00000000   0.00000000        -71.02      0.00      0.00
   0.00000000  -0.00048278  -0.00000000          0.00    -71.02     -0.00
   0.00000000  -0.00000000  -0.00048278          0.00     -0.00    -71.02


     Writing output data file Cu.save/

     init_run     :      0.37s CPU      0.40s WALL (       1 calls)
     electrons    :      1.48s CPU      1.56s WALL (       1 calls)
     forces       :      0.05s CPU      0.05s WALL (       1 calls)
     stress       :      0.13s CPU      0.13s WALL (       1 calls)

     Called by init_run:
     wfcinit      :      0.03s CPU      0.04s WALL (       1 calls)
     potinit      :      0.12s CPU      0.13s WALL (       1 calls)
     hinit0       :      0.19s CPU      0.19s WALL (       1 calls)

     Called by electrons:
     c_bands      :      0.64s CPU      0.68s WALL (       7 calls)
     sum_band     :      0.19s CPU      0.20s WALL (       7 calls)
     v_of_rho     :      0.04s CPU      0.05s WALL (       7 calls)
     newd         :      0.08s CPU      0.08s WALL (       7 calls)
     PAW_pot      :      0.64s CPU      0.67s WALL (       7 calls)
     mix_rho      :      0.00s CPU      0.00s WALL (       7 calls)

     Called by c_bands:
     init_us_2    :      0.03s CPU      0.03s WALL (     170 calls)
     cegterg      :      0.61s CPU      0.65s WALL (      70 calls)

     Called by sum_band:
     sum_band:bec :      0.00s CPU      0.00s WALL (      70 calls)
     addusdens    :      0.07s CPU      0.07s WALL (       7 calls)

     Called by *egterg:
     h_psi        :      0.49s CPU      0.53s WALL (     234 calls)
     s_psi        :      0.02s CPU      0.02s WALL (     234 calls)
     g_psi        :      0.00s CPU      0.00s WALL (     154 calls)
     cdiaghg      :      0.04s CPU      0.04s WALL (     214 calls)

     Called by h_psi:
     h_psi:pot    :      0.49s CPU      0.53s WALL (     234 calls)
     h_psi:calbec :      0.03s CPU      0.03s WALL (     234 calls)
     vloc_psi     :      0.45s CPU      0.48s WALL (     234 calls)
     add_vuspsi   :      0.02s CPU      0.02s WALL (     234 calls)

     General routines
     calbec       :      0.04s CPU      0.04s WALL (     354 calls)
     fft          :      0.04s CPU      0.04s WALL (     104 calls)
     ffts         :      0.00s CPU      0.00s WALL (       7 calls)
     fftw         :      0.49s CPU      0.53s WALL (    4308 calls)

     Parallel routines
     fft_scatt_xy :      0.05s CPU      0.06s WALL (    4419 calls)
     fft_scatt_yz :      0.15s CPU      0.17s WALL (    4419 calls)

     PWSCF        :     2.79s CPU         2.95s WALL


   This run was terminated on:  23: 7:22  25Mar2024            

=------------------------------------------------------------------------------=
   JOB DONE.
=------------------------------------------------------------------------------=
