
     Program PWSCF v.6.3MaX starts on 25Mar2024 at 23:11:40 

     This program is part of the open-source Quantum ESPRESSO suite
     for quantum simulation of materials; please cite
         "P. Giannozzi et al., J. Phys.:Condens. Matter 21 395502 (2009);
         "P. Giannozzi et al., J. Phys.:Condens. Matter 29 465901 (2017);
          URL http://www.quantum-espresso.org", 
     in publications or presentations arising from this work. More details at
     http://www.quantum-espresso.org/quote

     Parallel version (MPI), running on     5 processors

     MPI processes distributed on     1 nodes
     R & G space division:  proc/nbgrp/npool/nimage =       5
     Waiting for input...
     Reading input from standard input

     Current dimensions of program PWSCF are:
     Max number of different atomic species (ntypx) = 10
     Max number of k-points (npk) =  40000
     Max angular momentum in pseudopotentials (lmaxx) =  3
               file Cu.pbe-dn-kjpaw_psl.1.0.0.UPF: wavefunction(s)  4S 3D renormalized

     Subspace diagonalization in iterative solution of the eigenvalue problem:
     a serial algorithm will be used


     Parallelization info
     --------------------
     sticks:   dense  smooth     PW     G-vecs:    dense   smooth      PW
     Min          18      18      7                  121      121      33
     Max          19      19      8                  123      123      35
     Sum          91      91     37                  609      609     169



     bravais-lattice index     =            2
     lattice parameter (alat)  =       6.8300  a.u.
     unit-cell volume          =      79.6530 (a.u.)^3
     number of atoms/cell      =            1
     number of atomic types    =            1
     number of electrons       =        11.00
     number of Kohn-Sham states=           10
     kinetic-energy cutoff     =      15.0000  Ry
     charge density cutoff     =      60.0000  Ry
     convergence threshold     =      1.0E-08
     mixing beta               =       0.7000
     number of iterations used =            8  plain     mixing
     Exchange-correlation      = SLA PW PBX PBC ( 1  4  3  4 0 0)

     celldm(1)=   6.830000  celldm(2)=   0.000000  celldm(3)=   0.000000
     celldm(4)=   0.000000  celldm(5)=   0.000000  celldm(6)=   0.000000

     crystal axes: (cart. coord. in units of alat)
               a(1) = (  -0.500000   0.000000   0.500000 )  
               a(2) = (   0.000000   0.500000   0.500000 )  
               a(3) = (  -0.500000   0.500000   0.000000 )  

     reciprocal axes: (cart. coord. in units 2 pi/alat)
               b(1) = ( -1.000000 -1.000000  1.000000 )  
               b(2) = (  1.000000  1.000000  1.000000 )  
               b(3) = ( -1.000000  1.000000 -1.000000 )  


     PseudoPot. # 1 for Cu read from file:
     /home/lorenzo/pseudos/Cu/Cu.pbe-dn-kjpaw_psl.1.0.0.UPF
     MD5 check sum: cfffd1f38ee05704b3e17f46f1730a6f
     Pseudo is Projector augmented-wave + core cor, Zval = 11.0
     Generated using "atomic" code by A. Dal Corso v.6.3
     Shape of augmentation charge: PSQ
     Using radial grid of 1199 points,  6 beta functions with: 
                l(1) =   0
                l(2) =   0
                l(3) =   1
                l(4) =   1
                l(5) =   2
                l(6) =   2
     Q(r) pseudized with 0 coefficients 


     atomic species   valence    mass     pseudopotential
        Cu            11.00    63.54600     Cu( 1.00)

     48 Sym. Ops., with inversion, found



   Cartesian axes

     site n.     atom                  positions (alat units)
         1           Cu  tau(   1) = (   0.0000000   0.0000000   0.0000000  )

     number of k points=    29  gaussian smearing, width (Ry)=  0.0100
                       cart. coord. in units 2pi/alat
        k(    1) = (   0.0000000   0.0000000   0.0000000), wk =   0.0039062
        k(    2) = (  -0.1250000   0.1250000  -0.1250000), wk =   0.0312500
        k(    3) = (  -0.2500000   0.2500000  -0.2500000), wk =   0.0312500
        k(    4) = (  -0.3750000   0.3750000  -0.3750000), wk =   0.0312500
        k(    5) = (   0.5000000  -0.5000000   0.5000000), wk =   0.0156250
        k(    6) = (   0.0000000   0.2500000   0.0000000), wk =   0.0234375
        k(    7) = (  -0.1250000   0.3750000  -0.1250000), wk =   0.0937500
        k(    8) = (  -0.2500000   0.5000000  -0.2500000), wk =   0.0937500
        k(    9) = (   0.6250000  -0.3750000   0.6250000), wk =   0.0937500
        k(   10) = (   0.5000000  -0.2500000   0.5000000), wk =   0.0937500
        k(   11) = (   0.3750000  -0.1250000   0.3750000), wk =   0.0937500
        k(   12) = (   0.2500000   0.0000000   0.2500000), wk =   0.0468750
        k(   13) = (   0.0000000   0.5000000   0.0000000), wk =   0.0234375
        k(   14) = (  -0.1250000   0.6250000  -0.1250000), wk =   0.0937500
        k(   15) = (   0.7500000  -0.2500000   0.7500000), wk =   0.0937500
        k(   16) = (   0.6250000  -0.1250000   0.6250000), wk =   0.0937500
        k(   17) = (   0.5000000   0.0000000   0.5000000), wk =   0.0468750
        k(   18) = (   0.0000000   0.7500000   0.0000000), wk =   0.0234375
        k(   19) = (   0.8750000  -0.1250000   0.8750000), wk =   0.0937500
        k(   20) = (   0.7500000   0.0000000   0.7500000), wk =   0.0468750
        k(   21) = (   0.0000000  -1.0000000   0.0000000), wk =   0.0117188
        k(   22) = (  -0.2500000   0.5000000   0.0000000), wk =   0.0937500
        k(   23) = (   0.6250000  -0.3750000   0.8750000), wk =   0.1875000
        k(   24) = (   0.5000000  -0.2500000   0.7500000), wk =   0.0937500
        k(   25) = (   0.7500000  -0.2500000   1.0000000), wk =   0.0937500
        k(   26) = (   0.6250000  -0.1250000   0.8750000), wk =   0.1875000
        k(   27) = (   0.5000000   0.0000000   0.7500000), wk =   0.0937500
        k(   28) = (  -0.2500000  -1.0000000   0.0000000), wk =   0.0468750
        k(   29) = (  -0.5000000  -1.0000000   0.0000000), wk =   0.0234375

     Dense  grid:      609 G-vectors     FFT dimensions: (  12,  12,  12)

     Estimated max dynamical RAM per process >       1.21 MB

     Estimated total dynamical RAM >       6.04 MB

     Check: negative/imaginary core charge=   -0.001143    0.000000

     Initial potential from superposition of free atoms

     starting charge   10.99977, renormalised to   11.00000
     Starting wfcs are    9 randomized atomic wfcs +    1 random wfcs
     Checking if some PAW data can be deallocated... 

     total cpu time spent up to now is        1.0 secs

     Self-consistent Calculation

     iteration #  1     ecut=    15.00 Ry     beta= 0.70
     Davidson diagonalization with overlap
     ethr =  1.00E-02,  avg # of iterations =  3.8

     total cpu time spent up to now is        1.3 secs

     total energy              =    -208.11731039 Ry
     Harris-Foulkes estimate   =    -211.04832872 Ry
     estimated scf accuracy    <       3.60125007 Ry

     iteration #  2     ecut=    15.00 Ry     beta= 0.70
     Davidson diagonalization with overlap
     ethr =  1.00E-02,  avg # of iterations =  2.2

     total cpu time spent up to now is        1.5 secs

     total energy              =    -209.83386682 Ry
     Harris-Foulkes estimate   =    -210.68030992 Ry
     estimated scf accuracy    <       1.44292560 Ry

     iteration #  3     ecut=    15.00 Ry     beta= 0.70
     Davidson diagonalization with overlap
     ethr =  1.00E-02,  avg # of iterations =  1.7

     total cpu time spent up to now is        1.6 secs

     total energy              =    -209.90799970 Ry
     Harris-Foulkes estimate   =    -209.98658077 Ry
     estimated scf accuracy    <       0.11121950 Ry

     iteration #  4     ecut=    15.00 Ry     beta= 0.70
     Davidson diagonalization with overlap
     ethr =  1.01E-03,  avg # of iterations =  2.2

     total cpu time spent up to now is        1.8 secs

     total energy              =    -209.92388135 Ry
     Harris-Foulkes estimate   =    -209.99117203 Ry
     estimated scf accuracy    <       0.11474488 Ry

     iteration #  5     ecut=    15.00 Ry     beta= 0.70
     Davidson diagonalization with overlap
     ethr =  1.01E-03,  avg # of iterations =  1.9

     total cpu time spent up to now is        2.0 secs

     total energy              =    -209.94952675 Ry
     Harris-Foulkes estimate   =    -209.94955584 Ry
     estimated scf accuracy    <       0.00006812 Ry

     iteration #  6     ecut=    15.00 Ry     beta= 0.70
     Davidson diagonalization with overlap
     ethr =  6.19E-07,  avg # of iterations =  3.0

     total cpu time spent up to now is        2.2 secs

     total energy              =    -209.94953427 Ry
     Harris-Foulkes estimate   =    -209.94979401 Ry
     estimated scf accuracy    <       0.00042308 Ry

     iteration #  7     ecut=    15.00 Ry     beta= 0.70
     Davidson diagonalization with overlap
     ethr =  6.19E-07,  avg # of iterations =  2.0

     total cpu time spent up to now is        2.3 secs

     total energy              =    -209.94962363 Ry
     Harris-Foulkes estimate   =    -209.94962359 Ry
     estimated scf accuracy    <       0.00000009 Ry

     iteration #  8     ecut=    15.00 Ry     beta= 0.70
     Davidson diagonalization with overlap
     ethr =  8.51E-10,  avg # of iterations =  1.8

     total cpu time spent up to now is        2.5 secs

     End of self-consistent calculation

          k = 0.0000 0.0000 0.0000 (    65 PWs)   bands (ev):

     3.7341   7.8790   7.8790   8.9925   8.9925   8.9925  37.2353  37.3719
    37.3719  37.3719

          k =-0.1250 0.1250-0.1250 (    68 PWs)   bands (ev):

     4.2738   7.3733   7.6819   7.6819   8.9567   8.9567  32.8069  37.0775
    37.0775  37.5714

          k =-0.2500 0.2500-0.2500 (    74 PWs)   bands (ev):

     5.3668   6.1479   6.1479   7.2436   8.2081   8.2081  25.9423  35.7958
    35.7958  37.1127

          k =-0.3750 0.3750-0.3750 (    74 PWs)   bands (ev):

     5.7174   6.2884   6.2884   7.9516   7.9516   9.6808  20.0037  34.5151
    34.5151  35.8853

          k = 0.5000-0.5000 0.5000 (    76 PWs)   bands (ev):

     5.2815   5.8536   5.8536   7.8514   7.8514  12.1742  16.1348  33.9695
    33.9695  35.3373

          k = 0.0000 0.2500 0.0000 (    72 PWs)   bands (ev):

     4.4584   6.8232   6.8232   7.0313   8.1973   8.5677  34.5068  34.5068
    35.8493  37.0791

          k =-0.1250 0.3750-0.1250 (    77 PWs)   bands (ev):

     5.3284   5.5047   5.9279   6.7162   7.2028   8.1504  28.3640  32.5290
    35.6637  36.9751

          k =-0.2500 0.5000-0.2500 (    78 PWs)   bands (ev):

     5.4351   5.6968   6.1172   6.8360   7.1901   9.1865  22.0272  31.6929
    33.1491  35.3248

          k = 0.6250-0.3750 0.6250 (    80 PWs)   bands (ev):

     4.8704   5.5322   5.9365   6.3692   7.0889  12.4249  16.7781  30.7903
    32.0367  34.9823

          k = 0.5000-0.2500 0.5000 (    80 PWs)   bands (ev):

     4.4488   5.7330   6.0694   6.4437   7.1721  11.2506  18.2256  29.6335
    33.6946  35.6039

          k = 0.3750-0.1250 0.3750 (    75 PWs)   bands (ev):

     5.5551   6.1381   6.3765   7.5017   8.0614   8.4384  24.2430  29.7125
    36.5784  37.3658

          k = 0.2500 0.0000 0.2500 (    71 PWs)   bands (ev):

     5.0142   6.5219   6.9640   7.9139   8.1469   8.9156  30.5934  31.1379
    38.6530  39.3075

          k = 0.0000 0.5000 0.0000 (    76 PWs)   bands (ev):

     5.5361   6.1562   6.1562   7.0776   7.6431   7.7093  30.0131  30.0131
    32.2983  34.4706

          k =-0.1250 0.6250-0.1250 (    79 PWs)   bands (ev):

     5.3397   5.7294   5.7997   6.3879   7.0690   9.7209  25.0701  28.6492
    28.7060  34.8929

          k = 0.7500-0.2500 0.7500 (    80 PWs)   bands (ev):

     4.9049   5.6023   6.3204   6.5837   6.6751  12.8890  19.5477  25.8275
    28.9031  34.8081

          k = 0.6250-0.1250 0.6250 (    79 PWs)   bands (ev):

     5.2765   5.8762   6.0321   6.8207   6.9134  14.4369  17.9858  24.0940
    30.5984  35.2204

          k = 0.5000 0.0000 0.5000 (    79 PWs)   bands (ev):

     5.6196   5.6732   5.9487   6.1796   7.1846  10.8598  23.0615  23.8420
    33.5059  36.1841

          k = 0.0000 0.7500 0.0000 (    80 PWs)   bands (ev):

     5.1191   5.1224   6.1882   6.1882   7.2102  11.1592  24.6192  26.8473
    26.8473  33.6275

          k = 0.8750-0.1250 0.8750 (    78 PWs)   bands (ev):

     5.3121   5.8408   6.7506   6.7767   7.4107  13.8815  21.7247  23.3904
    26.6029  34.6514

          k = 0.7500 0.0000 0.7500 (    77 PWs)   bands (ev):

     5.9976   6.3178   6.4292   6.8629   7.0368  17.1526  18.8549  20.8836
    27.9334  35.0769

          k = 0.0000-1.0000 0.0000 (    80 PWs)   bands (ev):

     5.1173   5.8430   5.8430   6.6647   6.6887  14.5853  20.6896  25.7098
    25.7098  34.3187

          k =-0.2500 0.5000 0.0000 (    76 PWs)   bands (ev):

     5.7185   5.8089   6.2108   7.3824   7.5998   8.7212  26.9050  27.1017
    33.0408  37.9929

          k = 0.6250-0.3750 0.8750 (    79 PWs)   bands (ev):

     5.0469   5.6081   6.1037   6.6417   7.4232  11.3275  20.9495  26.6150
    29.8959  37.4612

          k = 0.5000-0.2500 0.7500 (    78 PWs)   bands (ev):

     5.4496   5.9431   6.3191   6.5015   7.4029  14.6815  16.8349  27.1345
    28.2700  36.9928

          k = 0.7500-0.2500 1.0000 (    82 PWs)   bands (ev):

     4.7251   5.1825   5.5473   6.4093   6.5658  12.0550  24.1100  24.2576
    25.4757  37.2259

          k = 0.6250-0.1250 0.8750 (    79 PWs)   bands (ev):

     5.3694   5.8819   6.3197   6.4941   7.0517  15.9659  19.3532  22.7476
    25.2584  37.9831

          k = 0.5000 0.0000 0.7500 (    78 PWs)   bands (ev):

     5.5630   6.2530   6.3420   6.7692   7.0880  14.8487  20.4165  21.8915
    27.1042  38.4645

          k =-0.2500-1.0000 0.0000 (    80 PWs)   bands (ev):

     4.7495   6.3017   6.3249   6.4695   6.7463  15.9653  19.9929  23.3952
    23.6373  37.0757

          k =-0.5000-1.0000 0.0000 (    84 PWs)   bands (ev):

     4.6676   5.1815   5.6296   5.6296   6.2570  19.1530  19.1530  20.6614
    21.5283  41.7744

     the Fermi energy is    11.4787 ev

!    total energy              =    -209.94962364 Ry
     Harris-Foulkes estimate   =    -209.94962364 Ry
     estimated scf accuracy    <          2.7E-09 Ry

     total all-electron energy =     -3306.829390 Ry

     The total energy is the sum of the following terms:

     one-electron contribution =     -20.99870161 Ry
     hartree contribution      =      24.81666969 Ry
     xc contribution           =     -42.85776702 Ry
     ewald contribution        =     -81.22523186 Ry
     one-center paw contrib.   =     -89.68442286 Ry
     smearing contrib. (-TS)   =      -0.00016999 Ry

     convergence has been achieved in   8 iterations

     Forces acting on atoms (cartesian axes, Ry/au):

     atom    1 type  1   force =     0.00000000    0.00000000    0.00000000

     Total force =     0.000000     Total SCF correction =     0.000000


     Computing stress (Cartesian axis) and pressure

          total   stress  (Ry/bohr**3)                   (kbar)     P=********
  -0.11806343   0.00000000   0.00000000     -17367.73      0.00      0.00
   0.00000000  -0.11806343  -0.00000000          0.00 -17367.73     -0.00
   0.00000000  -0.00000000  -0.11806343          0.00     -0.00 -17367.73


     Writing output data file Cu.save/

     init_run     :      0.20s CPU      0.22s WALL (       1 calls)
     electrons    :      1.33s CPU      1.55s WALL (       1 calls)
     forces       :      0.01s CPU      0.01s WALL (       1 calls)
     stress       :      0.02s CPU      0.02s WALL (       1 calls)

     Called by init_run:
     wfcinit      :      0.02s CPU      0.02s WALL (       1 calls)
     potinit      :      0.11s CPU      0.12s WALL (       1 calls)
     hinit0       :      0.06s CPU      0.06s WALL (       1 calls)

     Called by electrons:
     c_bands      :      0.51s CPU      0.59s WALL (       8 calls)
     sum_band     :      0.06s CPU      0.08s WALL (       8 calls)
     v_of_rho     :      0.00s CPU      0.00s WALL (       9 calls)
     newd         :      0.01s CPU      0.01s WALL (       9 calls)
     PAW_pot      :      0.85s CPU      0.97s WALL (       9 calls)
     mix_rho      :      0.00s CPU      0.00s WALL (       8 calls)

     Called by c_bands:
     init_us_2    :      0.01s CPU      0.01s WALL (     551 calls)
     cegterg      :      0.49s CPU      0.57s WALL (     232 calls)

     Called by sum_band:
     sum_band:bec :      0.00s CPU      0.00s WALL (     232 calls)
     addusdens    :      0.01s CPU      0.01s WALL (       8 calls)

     Called by *egterg:
     h_psi        :      0.28s CPU      0.34s WALL (     800 calls)
     s_psi        :      0.01s CPU      0.01s WALL (     800 calls)
     g_psi        :      0.00s CPU      0.00s WALL (     539 calls)
     cdiaghg      :      0.15s CPU      0.17s WALL (     771 calls)

     Called by h_psi:
     h_psi:pot    :      0.28s CPU      0.33s WALL (     800 calls)
     h_psi:calbec :      0.02s CPU      0.02s WALL (     800 calls)
     vloc_psi     :      0.25s CPU      0.29s WALL (     800 calls)
     add_vuspsi   :      0.01s CPU      0.01s WALL (     800 calls)

     General routines
     calbec       :      0.02s CPU      0.03s WALL (    1177 calls)
     fft          :      0.00s CPU      0.00s WALL (     125 calls)
     ffts         :      0.00s CPU      0.00s WALL (       8 calls)
     fftw         :      0.26s CPU      0.31s WALL (   14814 calls)

     Parallel routines
     fft_scatt_xy :      0.03s CPU      0.04s WALL (   14947 calls)
     fft_scatt_yz :      0.11s CPU      0.13s WALL (   14947 calls)

     PWSCF        :     2.32s CPU         2.62s WALL


   This run was terminated on:  23:11:42  25Mar2024            

=------------------------------------------------------------------------------=
   JOB DONE.
=------------------------------------------------------------------------------=
