
     Program PWSCF v.6.3MaX starts on 25Mar2024 at 23:15: 0 

     This program is part of the open-source Quantum ESPRESSO suite
     for quantum simulation of materials; please cite
         "P. Giannozzi et al., J. Phys.:Condens. Matter 21 395502 (2009);
         "P. Giannozzi et al., J. Phys.:Condens. Matter 29 465901 (2017);
          URL http://www.quantum-espresso.org", 
     in publications or presentations arising from this work. More details at
     http://www.quantum-espresso.org/quote

     Parallel version (MPI), running on     5 processors

     MPI processes distributed on     1 nodes
     R & G space division:  proc/nbgrp/npool/nimage =       5
     Waiting for input...
     Reading input from standard input

     Current dimensions of program PWSCF are:
     Max number of different atomic species (ntypx) = 10
     Max number of k-points (npk) =  40000
     Max angular momentum in pseudopotentials (lmaxx) =  3
               file Cu.pbesol-dn-kjpaw_psl.1.0.0.UPF: wavefunction(s)  4S 3D renormalized

     Subspace diagonalization in iterative solution of the eigenvalue problem:
     a serial algorithm will be used


     Parallelization info
     --------------------
     sticks:   dense  smooth     PW     G-vecs:    dense   smooth      PW
     Min          32      32     12                  272      272      66
     Max          33      33     13                  273      273      67
     Sum         163     163     61                 1363     1363     331



     bravais-lattice index     =            2
     lattice parameter (alat)  =       6.8300  a.u.
     unit-cell volume          =      79.6530 (a.u.)^3
     number of atoms/cell      =            1
     number of atomic types    =            1
     number of electrons       =        11.00
     number of Kohn-Sham states=           10
     kinetic-energy cutoff     =      25.0000  Ry
     charge density cutoff     =     100.0000  Ry
     convergence threshold     =      1.0E-08
     mixing beta               =       0.7000
     number of iterations used =            8  plain     mixing
     Exchange-correlation      = SLA PW PSX PSC ( 1  4 10  8 0 0)

     celldm(1)=   6.830000  celldm(2)=   0.000000  celldm(3)=   0.000000
     celldm(4)=   0.000000  celldm(5)=   0.000000  celldm(6)=   0.000000

     crystal axes: (cart. coord. in units of alat)
               a(1) = (  -0.500000   0.000000   0.500000 )  
               a(2) = (   0.000000   0.500000   0.500000 )  
               a(3) = (  -0.500000   0.500000   0.000000 )  

     reciprocal axes: (cart. coord. in units 2 pi/alat)
               b(1) = ( -1.000000 -1.000000  1.000000 )  
               b(2) = (  1.000000  1.000000  1.000000 )  
               b(3) = ( -1.000000  1.000000 -1.000000 )  


     PseudoPot. # 1 for Cu read from file:
     /home/lorenzo/pseudos/Cu/Cu.pbesol-dn-kjpaw_psl.1.0.0.UPF
     MD5 check sum: 1e9735a74797514c934643dbd229f231
     Pseudo is Projector augmented-wave + core cor, Zval = 11.0
     Generated using "atomic" code by A. Dal Corso v.6.3
     Shape of augmentation charge: PSQ
     Using radial grid of 1199 points,  6 beta functions with: 
                l(1) =   0
                l(2) =   0
                l(3) =   1
                l(4) =   1
                l(5) =   2
                l(6) =   2
     Q(r) pseudized with 0 coefficients 


     atomic species   valence    mass     pseudopotential
        Cu            11.00    63.54600     Cu( 1.00)

     48 Sym. Ops., with inversion, found



   Cartesian axes

     site n.     atom                  positions (alat units)
         1           Cu  tau(   1) = (   0.0000000   0.0000000   0.0000000  )

     number of k points=    16  gaussian smearing, width (Ry)=  0.0100
                       cart. coord. in units 2pi/alat
        k(    1) = (   0.0000000   0.0000000   0.0000000), wk =   0.0092593
        k(    2) = (  -0.1666667   0.1666667  -0.1666667), wk =   0.0740741
        k(    3) = (  -0.3333333   0.3333333  -0.3333333), wk =   0.0740741
        k(    4) = (   0.5000000  -0.5000000   0.5000000), wk =   0.0370370
        k(    5) = (   0.0000000   0.3333333   0.0000000), wk =   0.0555556
        k(    6) = (  -0.1666667   0.5000000  -0.1666667), wk =   0.2222222
        k(    7) = (   0.6666667  -0.3333333   0.6666667), wk =   0.2222222
        k(    8) = (   0.5000000  -0.1666667   0.5000000), wk =   0.2222222
        k(    9) = (   0.3333333   0.0000000   0.3333333), wk =   0.1111111
        k(   10) = (   0.0000000   0.6666667   0.0000000), wk =   0.0555556
        k(   11) = (   0.8333333  -0.1666667   0.8333333), wk =   0.2222222
        k(   12) = (   0.6666667  -0.0000000   0.6666667), wk =   0.1111111
        k(   13) = (   0.0000000  -1.0000000   0.0000000), wk =   0.0277778
        k(   14) = (   0.6666667  -0.3333333   1.0000000), wk =   0.2222222
        k(   15) = (   0.5000000  -0.1666667   0.8333333), wk =   0.2222222
        k(   16) = (  -0.3333333  -1.0000000   0.0000000), wk =   0.1111111

     Dense  grid:     1363 G-vectors     FFT dimensions: (  15,  15,  15)

     Estimated max dynamical RAM per process >       1.96 MB

     Estimated total dynamical RAM >       9.81 MB

     Check: negative/imaginary core charge=   -0.000132    0.000000

     Initial potential from superposition of free atoms

     starting charge   10.99979, renormalised to   11.00000
     Starting wfcs are    9 randomized atomic wfcs +    1 random wfcs
     Checking if some PAW data can be deallocated... 

     total cpu time spent up to now is        1.0 secs

     Self-consistent Calculation

     iteration #  1     ecut=    25.00 Ry     beta= 0.70
     Davidson diagonalization with overlap
     ethr =  1.00E-02,  avg # of iterations =  3.8

     total cpu time spent up to now is        1.2 secs

     total energy              =    -210.18549447 Ry
     Harris-Foulkes estimate   =    -210.32626148 Ry
     estimated scf accuracy    <       0.17276174 Ry

     iteration #  2     ecut=    25.00 Ry     beta= 0.70
     Davidson diagonalization with overlap
     ethr =  1.57E-03,  avg # of iterations =  2.0

     total cpu time spent up to now is        1.3 secs

     total energy              =    -210.22103267 Ry
     Harris-Foulkes estimate   =    -210.40959989 Ry
     estimated scf accuracy    <       0.44527577 Ry

     iteration #  3     ecut=    25.00 Ry     beta= 0.70
     Davidson diagonalization with overlap
     ethr =  1.57E-03,  avg # of iterations =  2.0

     total cpu time spent up to now is        1.5 secs

     total energy              =    -210.28901760 Ry
     Harris-Foulkes estimate   =    -210.28997086 Ry
     estimated scf accuracy    <       0.00157898 Ry

     iteration #  4     ecut=    25.00 Ry     beta= 0.70
     Davidson diagonalization with overlap
     ethr =  1.44E-05,  avg # of iterations =  2.4

     total cpu time spent up to now is        1.7 secs

     total energy              =    -210.28969057 Ry
     Harris-Foulkes estimate   =    -210.29007434 Ry
     estimated scf accuracy    <       0.00110441 Ry

     iteration #  5     ecut=    25.00 Ry     beta= 0.70
     Davidson diagonalization with overlap
     ethr =  1.00E-05,  avg # of iterations =  1.0

     total cpu time spent up to now is        1.8 secs

     total energy              =    -210.28981723 Ry
     Harris-Foulkes estimate   =    -210.28982610 Ry
     estimated scf accuracy    <       0.00002646 Ry

     iteration #  6     ecut=    25.00 Ry     beta= 0.70
     Davidson diagonalization with overlap
     ethr =  2.41E-07,  avg # of iterations =  1.9

     total cpu time spent up to now is        1.9 secs

     total energy              =    -210.28982133 Ry
     Harris-Foulkes estimate   =    -210.28982148 Ry
     estimated scf accuracy    <       0.00000059 Ry

     iteration #  7     ecut=    25.00 Ry     beta= 0.70
     Davidson diagonalization with overlap
     ethr =  5.36E-09,  avg # of iterations =  1.7

     total cpu time spent up to now is        2.1 secs

     End of self-consistent calculation

          k = 0.0000 0.0000 0.0000 (   169 PWs)   bands (ev):

     3.0953   9.0926   9.0926   9.0926   9.8755   9.8755  35.4598  37.7650
    37.7650  37.7650

          k =-0.1667 0.1667-0.1667 (   171 PWs)   bands (ev):

     4.0806   8.9593   9.2279   9.2279   9.8578   9.8578  29.3356  35.8271
    36.2355  36.2355

          k =-0.3333 0.3333-0.3333 (   165 PWs)   bands (ev):

     6.3985   9.2092   9.2092   9.2700  10.2869  10.2869  21.1968  34.5964
    34.9456  34.9456

          k = 0.5000-0.5000 0.5000 (   168 PWs)   bands (ev):

     7.1478   9.1199   9.1199  10.5055  10.5055  11.4441  16.1734  33.8442
    34.5227  34.5227

          k = 0.0000 0.3333 0.0000 (   169 PWs)   bands (ev):

     4.4015   8.7433   9.4087   9.4087   9.6875  10.0047  32.3864  32.3864
    33.1237  34.6065

          k =-0.1667 0.5000-0.1667 (   161 PWs)   bands (ev):

     6.3252   8.5700   9.2417   9.6005  10.3567  10.4395  24.4269  30.4584
    31.7053  33.4447

          k = 0.6667-0.3333 0.6667 (   168 PWs)   bands (ev):

     7.5743   8.7706   9.2572   9.4614  10.5570  12.8299  17.4825  28.4078
    30.7158  33.0682

          k = 0.5000-0.1667 0.5000 (   166 PWs)   bands (ev):

     7.4655   8.9270   9.0626   9.4739  10.1820  11.9177  19.5320  26.8417
    33.4150  34.3437

          k = 0.3333 0.0000 0.3333 (   160 PWs)   bands (ev):

     5.5848   8.7671   9.2455   9.5703   9.7714  10.4965  26.9740  27.5092
    37.4141  38.1515

          k = 0.0000 0.6667 0.0000 (   170 PWs)   bands (ev):

     7.0351   8.0903  10.2180  10.2180  10.2202  10.3088  26.2965  27.4849
    27.4849  31.2856

          k = 0.8333-0.1667 0.8333 (   172 PWs)   bands (ev):

     7.6320   8.0354   9.7265  10.1124  10.5446  13.6018  21.5029  22.4360
    26.9844  31.9359

          k = 0.6667-0.0000 0.6667 (   172 PWs)   bands (ev):

     8.1335   8.3256   9.0367   9.8769  10.2956  15.6622  18.4081  21.0185
    29.1814  32.6557

          k = 0.0000-1.0000 0.0000 (   174 PWs)   bands (ev):

     7.3108   7.7485  10.6162  10.6319  10.6319  13.9495  19.5993  25.5561
    25.5561  30.6567

          k = 0.6667-0.3333 1.0000 (   163 PWs)   bands (ev):

     7.7631   8.4139   8.9243  10.0807  10.2621  12.2346  22.8914  23.8283
    27.3986  37.7695

          k = 0.5000-0.1667 0.8333 (   168 PWs)   bands (ev):

     8.2852   8.3122   8.8642   9.8419  10.5250  15.9921  17.2674  24.3965
    24.4958  37.7096

          k =-0.3333-1.0000 0.0000 (   172 PWs)   bands (ev):

     7.8263   8.1882   9.3535  10.0676  10.6557  16.4750  20.1739  21.2568
    22.5015  36.7688

     the Fermi energy is    12.2653 ev

!    total energy              =    -210.28982143 Ry
     Harris-Foulkes estimate   =    -210.28982143 Ry
     estimated scf accuracy    <          3.4E-09 Ry

     total all-electron energy =     -3307.168883 Ry

     The total energy is the sum of the following terms:

     one-electron contribution =     -27.66489463 Ry
     hartree contribution      =      30.14066611 Ry
     xc contribution           =     -43.97909592 Ry
     ewald contribution        =     -81.22522862 Ry
     one-center paw contrib.   =     -87.56067170 Ry
     smearing contrib. (-TS)   =      -0.00059669 Ry

     convergence has been achieved in   7 iterations

     Forces acting on atoms (cartesian axes, Ry/au):

     atom    1 type  1   force =     0.00000000    0.00000000    0.00000000

     Total force =     0.000000     Total SCF correction =     0.000000


     Computing stress (Cartesian axis) and pressure

          total   stress  (Ry/bohr**3)                   (kbar)     P=-1489.58
  -0.01012598  -0.00000000   0.00000000      -1489.58     -0.00      0.00
  -0.00000000  -0.01012598   0.00000000         -0.00  -1489.58      0.00
   0.00000000   0.00000000  -0.01012598          0.00      0.00  -1489.58


     Writing output data file Cu.save/

     init_run     :      0.24s CPU      0.24s WALL (       1 calls)
     electrons    :      0.96s CPU      1.08s WALL (       1 calls)
     forces       :      0.01s CPU      0.01s WALL (       1 calls)
     stress       :      0.02s CPU      0.02s WALL (       1 calls)

     Called by init_run:
     wfcinit      :      0.02s CPU      0.02s WALL (       1 calls)
     potinit      :      0.12s CPU      0.12s WALL (       1 calls)
     hinit0       :      0.08s CPU      0.08s WALL (       1 calls)

     Called by electrons:
     c_bands      :      0.26s CPU      0.29s WALL (       7 calls)
     sum_band     :      0.05s CPU      0.06s WALL (       7 calls)
     v_of_rho     :      0.01s CPU      0.01s WALL (       8 calls)
     newd         :      0.01s CPU      0.01s WALL (       8 calls)
     PAW_pot      :      0.74s CPU      0.82s WALL (       8 calls)
     mix_rho      :      0.00s CPU      0.00s WALL (       7 calls)

     Called by c_bands:
     init_us_2    :      0.01s CPU      0.01s WALL (     272 calls)
     cegterg      :      0.25s CPU      0.28s WALL (     112 calls)

     Called by sum_band:
     sum_band:bec :      0.00s CPU      0.00s WALL (     112 calls)
     addusdens    :      0.01s CPU      0.01s WALL (       7 calls)

     Called by *egterg:
     h_psi        :      0.16s CPU      0.18s WALL (     364 calls)
     s_psi        :      0.01s CPU      0.01s WALL (     364 calls)
     g_psi        :      0.00s CPU      0.00s WALL (     236 calls)
     cdiaghg      :      0.06s CPU      0.06s WALL (     348 calls)

     Called by h_psi:
     h_psi:pot    :      0.16s CPU      0.18s WALL (     364 calls)
     h_psi:calbec :      0.01s CPU      0.01s WALL (     364 calls)
     vloc_psi     :      0.14s CPU      0.16s WALL (     364 calls)
     add_vuspsi   :      0.01s CPU      0.01s WALL (     364 calls)

     General routines
     calbec       :      0.01s CPU      0.02s WALL (     556 calls)
     fft          :      0.00s CPU      0.00s WALL (     114 calls)
     ffts         :      0.00s CPU      0.00s WALL (       7 calls)
     fftw         :      0.16s CPU      0.17s WALL (    6814 calls)

     Parallel routines
     fft_scatt_xy :      0.02s CPU      0.02s WALL (    6935 calls)
     fft_scatt_yz :      0.07s CPU      0.07s WALL (    6935 calls)

     PWSCF        :     2.00s CPU         2.18s WALL


   This run was terminated on:  23:15: 3  25Mar2024            

=------------------------------------------------------------------------------=
   JOB DONE.
=------------------------------------------------------------------------------=
