
     Program PWSCF v.6.3MaX starts on 25Mar2024 at 23:40:26 

     This program is part of the open-source Quantum ESPRESSO suite
     for quantum simulation of materials; please cite
         "P. Giannozzi et al., J. Phys.:Condens. Matter 21 395502 (2009);
         "P. Giannozzi et al., J. Phys.:Condens. Matter 29 465901 (2017);
          URL http://www.quantum-espresso.org", 
     in publications or presentations arising from this work. More details at
     http://www.quantum-espresso.org/quote

     Parallel version (MPI), running on     5 processors

     MPI processes distributed on     1 nodes
     R & G space division:  proc/nbgrp/npool/nimage =       5
     Waiting for input...
     Reading input from standard input

     Current dimensions of program PWSCF are:
     Max number of different atomic species (ntypx) = 10
     Max number of k-points (npk) =  40000
     Max angular momentum in pseudopotentials (lmaxx) =  3
               file Cu.pbesol-dn-rrkjus_psl.1.0.0.UPF: wavefunction(s)  3D renormalized

     Subspace diagonalization in iterative solution of the eigenvalue problem:
     a serial algorithm will be used


     Parallelization info
     --------------------
     sticks:   dense  smooth     PW     G-vecs:    dense   smooth      PW
     Min         109     109     33                 1677     1677     294
     Max         110     110     35                 1680     1680     295
     Sum         547     547    169                 8393     8393    1471



     bravais-lattice index     =            2
     lattice parameter (alat)  =       6.8300  a.u.
     unit-cell volume          =      79.6530 (a.u.)^3
     number of atoms/cell      =            1
     number of atomic types    =            1
     number of electrons       =        11.00
     number of Kohn-Sham states=           10
     kinetic-energy cutoff     =      85.0000  Ry
     charge density cutoff     =     340.0000  Ry
     convergence threshold     =      1.0E-08
     mixing beta               =       0.7000
     number of iterations used =            8  plain     mixing
     Exchange-correlation      = PBESOL ( 1  4 10  8 0 0)

     celldm(1)=   6.830000  celldm(2)=   0.000000  celldm(3)=   0.000000
     celldm(4)=   0.000000  celldm(5)=   0.000000  celldm(6)=   0.000000

     crystal axes: (cart. coord. in units of alat)
               a(1) = (  -0.500000   0.000000   0.500000 )  
               a(2) = (   0.000000   0.500000   0.500000 )  
               a(3) = (  -0.500000   0.500000   0.000000 )  

     reciprocal axes: (cart. coord. in units 2 pi/alat)
               b(1) = ( -1.000000 -1.000000  1.000000 )  
               b(2) = (  1.000000  1.000000  1.000000 )  
               b(3) = ( -1.000000  1.000000 -1.000000 )  


     PseudoPot. # 1 for Cu read from file:
     /home/lorenzo/pseudos/Cu/Cu.pbesol-dn-rrkjus_psl.1.0.0.UPF
     MD5 check sum: bfa4c7aafbc42e028d5f4ccf7ceed93d
     Pseudo is Ultrasoft + core correction, Zval = 11.0
     Generated using "atomic" code by A. Dal Corso v.6.3
     Using radial grid of 1199 points,  6 beta functions with: 
                l(1) =   0
                l(2) =   0
                l(3) =   1
                l(4) =   1
                l(5) =   2
                l(6) =   2
     Q(r) pseudized with 0 coefficients 


     atomic species   valence    mass     pseudopotential
        Cu            11.00    63.54600     Cu( 1.00)

     48 Sym. Ops., with inversion, found



   Cartesian axes

     site n.     atom                  positions (alat units)
         1           Cu  tau(   1) = (   0.0000000   0.0000000   0.0000000  )

     number of k points=    47  gaussian smearing, width (Ry)=  0.0100
                       cart. coord. in units 2pi/alat
        k(    1) = (   0.0000000   0.0000000   0.0000000), wk =   0.0020000
        k(    2) = (  -0.1000000   0.1000000  -0.1000000), wk =   0.0160000
        k(    3) = (  -0.2000000   0.2000000  -0.2000000), wk =   0.0160000
        k(    4) = (  -0.3000000   0.3000000  -0.3000000), wk =   0.0160000
        k(    5) = (  -0.4000000   0.4000000  -0.4000000), wk =   0.0160000
        k(    6) = (   0.5000000  -0.5000000   0.5000000), wk =   0.0080000
        k(    7) = (   0.0000000   0.2000000   0.0000000), wk =   0.0120000
        k(    8) = (  -0.1000000   0.3000000  -0.1000000), wk =   0.0480000
        k(    9) = (  -0.2000000   0.4000000  -0.2000000), wk =   0.0480000
        k(   10) = (  -0.3000000   0.5000000  -0.3000000), wk =   0.0480000
        k(   11) = (   0.6000000  -0.4000000   0.6000000), wk =   0.0480000
        k(   12) = (   0.5000000  -0.3000000   0.5000000), wk =   0.0480000
        k(   13) = (   0.4000000  -0.2000000   0.4000000), wk =   0.0480000
        k(   14) = (   0.3000000  -0.1000000   0.3000000), wk =   0.0480000
        k(   15) = (   0.2000000   0.0000000   0.2000000), wk =   0.0240000
        k(   16) = (   0.0000000   0.4000000   0.0000000), wk =   0.0120000
        k(   17) = (  -0.1000000   0.5000000  -0.1000000), wk =   0.0480000
        k(   18) = (  -0.2000000   0.6000000  -0.2000000), wk =   0.0480000
        k(   19) = (   0.7000000  -0.3000000   0.7000000), wk =   0.0480000
        k(   20) = (   0.6000000  -0.2000000   0.6000000), wk =   0.0480000
        k(   21) = (   0.5000000  -0.1000000   0.5000000), wk =   0.0480000
        k(   22) = (   0.4000000   0.0000000   0.4000000), wk =   0.0240000
        k(   23) = (   0.0000000   0.6000000   0.0000000), wk =   0.0120000
        k(   24) = (  -0.1000000   0.7000000  -0.1000000), wk =   0.0480000
        k(   25) = (   0.8000000  -0.2000000   0.8000000), wk =   0.0480000
        k(   26) = (   0.7000000  -0.1000000   0.7000000), wk =   0.0480000
        k(   27) = (   0.6000000  -0.0000000   0.6000000), wk =   0.0240000
        k(   28) = (   0.0000000   0.8000000   0.0000000), wk =   0.0120000
        k(   29) = (   0.9000000  -0.1000000   0.9000000), wk =   0.0480000
        k(   30) = (   0.8000000   0.0000000   0.8000000), wk =   0.0240000
        k(   31) = (   0.0000000  -1.0000000   0.0000000), wk =   0.0060000
        k(   32) = (  -0.2000000   0.4000000   0.0000000), wk =   0.0480000
        k(   33) = (  -0.3000000   0.5000000  -0.1000000), wk =   0.0960000
        k(   34) = (   0.6000000  -0.4000000   0.8000000), wk =   0.0960000
        k(   35) = (   0.5000000  -0.3000000   0.7000000), wk =   0.0480000
        k(   36) = (  -0.2000000   0.6000000   0.0000000), wk =   0.0480000
        k(   37) = (   0.7000000  -0.3000000   0.9000000), wk =   0.0960000
        k(   38) = (   0.6000000  -0.2000000   0.8000000), wk =   0.0960000
        k(   39) = (   0.5000000  -0.1000000   0.7000000), wk =   0.0960000
        k(   40) = (   0.4000000   0.0000000   0.6000000), wk =   0.0480000
        k(   41) = (   0.8000000  -0.2000000   1.0000000), wk =   0.0480000
        k(   42) = (   0.7000000  -0.1000000   0.9000000), wk =   0.0960000
        k(   43) = (   0.6000000   0.0000000   0.8000000), wk =   0.0480000
        k(   44) = (  -0.2000000  -1.0000000   0.0000000), wk =   0.0240000
        k(   45) = (   0.6000000  -0.2000000   1.0000000), wk =   0.0480000
        k(   46) = (   0.5000000  -0.1000000   0.9000000), wk =   0.0480000
        k(   47) = (  -0.4000000  -1.0000000   0.0000000), wk =   0.0240000

     Dense  grid:     8393 G-vectors     FFT dimensions: (  30,  30,  30)

     Estimated max dynamical RAM per process >       9.43 MB

     Estimated total dynamical RAM >      47.13 MB

     Initial potential from superposition of free atoms

     starting charge   10.99979, renormalised to   11.00000
     Starting wfcs are    9 randomized atomic wfcs +    1 random wfcs

     total cpu time spent up to now is        1.0 secs

     Self-consistent Calculation

     iteration #  1     ecut=    85.00 Ry     beta= 0.70
     Davidson diagonalization with overlap
     ethr =  1.00E-02,  avg # of iterations =  3.7

     Threshold (ethr) on eigenvalues was too large:
     Diagonalizing with lowered threshold

     Davidson diagonalization with overlap
     ethr =  6.94E-04,  avg # of iterations =  1.0

     total cpu time spent up to now is        2.1 secs

     total energy              =    -122.36387781 Ry
     Harris-Foulkes estimate   =    -122.42427389 Ry
     estimated scf accuracy    <       0.07597055 Ry

     iteration #  2     ecut=    85.00 Ry     beta= 0.70
     Davidson diagonalization with overlap
     ethr =  6.91E-04,  avg # of iterations =  2.1

     total cpu time spent up to now is        2.7 secs

     total energy              =    -122.36560829 Ry
     Harris-Foulkes estimate   =    -122.47293448 Ry
     estimated scf accuracy    <       0.27996462 Ry

     iteration #  3     ecut=    85.00 Ry     beta= 0.70
     Davidson diagonalization with overlap
     ethr =  6.91E-04,  avg # of iterations =  2.0

     total cpu time spent up to now is        3.3 secs

     total energy              =    -122.40917719 Ry
     Harris-Foulkes estimate   =    -122.40921952 Ry
     estimated scf accuracy    <       0.00010993 Ry

     iteration #  4     ecut=    85.00 Ry     beta= 0.70
     Davidson diagonalization with overlap
     ethr =  9.99E-07,  avg # of iterations =  2.5

     total cpu time spent up to now is        3.9 secs

     total energy              =    -122.40925624 Ry
     Harris-Foulkes estimate   =    -122.40926149 Ry
     estimated scf accuracy    <       0.00001529 Ry

     iteration #  5     ecut=    85.00 Ry     beta= 0.70
     Davidson diagonalization with overlap
     ethr =  1.39E-07,  avg # of iterations =  1.1

     total cpu time spent up to now is        4.4 secs

     total energy              =    -122.40925913 Ry
     Harris-Foulkes estimate   =    -122.40925935 Ry
     estimated scf accuracy    <       0.00000068 Ry

     iteration #  6     ecut=    85.00 Ry     beta= 0.70
     Davidson diagonalization with overlap
     ethr =  6.15E-09,  avg # of iterations =  1.4

     total cpu time spent up to now is        5.0 secs

     End of self-consistent calculation

          k = 0.0000 0.0000 0.0000 (  1067 PWs)   bands (ev):

     3.0491   9.4800   9.4800   9.4800  10.3144  10.3144  35.3873  37.7543
    37.7543  37.7543

          k =-0.1000 0.1000-0.1000 (  1040 PWs)   bands (ev):

     3.4112   9.4051   9.5453   9.5453  10.2914  10.2914  32.6010  36.0287
    36.7958  36.7958

          k =-0.2000 0.2000-0.2000 (  1046 PWs)   bands (ev):

     4.4525   9.2525   9.6425   9.6425  10.3137  10.3137  27.3917  35.5335
    35.6550  35.6550

          k =-0.3000 0.3000-0.3000 (  1056 PWs)   bands (ev):

     5.9474   9.2871   9.5973   9.5973  10.5260  10.5260  22.5374  34.7659
    34.9203  34.9203

          k =-0.4000 0.4000-0.4000 (  1050 PWs)   bands (ev):

     7.1072   9.4921   9.4921  10.1963  10.7831  10.7831  18.4062  34.0670
    34.5814  34.5814

          k = 0.5000-0.5000 0.5000 (  1056 PWs)   bands (ev):

     7.3811   9.4456   9.4456  10.8920  10.8920  11.4097  16.2209  33.7957
    34.5076  34.5076

          k = 0.0000 0.2000 0.0000 (  1038 PWs)   bands (ev):

     3.5312   9.3379   9.5958   9.5958  10.1875  10.3667  33.9805  34.6335
    34.6335  36.1683

          k =-0.1000 0.3000-0.1000 (  1035 PWs)   bands (ev):

     4.3455   9.1750   9.7005   9.7213  10.1244  10.4292  29.3531  33.0542
    34.0166  37.2708

          k =-0.2000 0.4000-0.2000 (  1054 PWs)   bands (ev):

     5.7103   9.0655   9.5942   9.7403  10.4188  10.6038  24.3422  32.1119
    33.3090  35.4883

          k =-0.3000 0.5000-0.3000 (  1059 PWs)   bands (ev):

     7.0618   9.3236   9.4690   9.6485  10.8229  11.0847  19.8988  31.8665
    32.3416  33.7977

          k = 0.6000-0.4000 0.6000 (  1056 PWs)   bands (ev):

     7.5525   9.3169   9.5684  10.0200  10.8994  12.3442  16.6440  30.9728
    32.3932  33.5529

          k = 0.5000-0.3000 0.5000 (  1052 PWs)   bands (ev):

     7.4809   9.3568   9.5691   9.9176  10.7550  11.9617  17.4965  30.0656
    33.7326  34.1187

          k = 0.4000-0.2000 0.4000 (  1050 PWs)   bands (ev):

     6.6880   9.2445   9.4912   9.6587  10.4471  11.0615  21.3065  29.8286
    35.3578  35.8449

          k = 0.3000-0.1000 0.3000 (  1048 PWs)   bands (ev):

     5.2154   9.1228   9.6279   9.7558  10.1556  10.6248  25.9700  30.2419
    37.0858  38.5135

          k = 0.2000 0.0000 0.2000 (  1037 PWs)   bands (ev):

     4.0010   9.2766   9.6360   9.6470  10.1669  10.3882  30.7992  31.5797
    37.5000  39.0824

          k = 0.0000 0.4000 0.0000 (  1054 PWs)   bands (ev):

     4.9023   8.9729   9.9100   9.9249   9.9249  10.5045  31.0799  31.0799
    32.1823  33.2619

          k =-0.1000 0.5000-0.1000 (  1051 PWs)   bands (ev):

     6.0114   8.7824   9.6567  10.0532  10.3983  10.6467  26.6389  29.8070
    31.0652  32.7669

          k =-0.2000 0.6000-0.2000 (  1046 PWs)   bands (ev):

     7.2766   8.7399   9.4339  10.0037  10.8540  11.3559  22.0088  28.7690
    29.3243  32.4844

          k = 0.7000-0.3000 0.7000 (  1061 PWs)   bands (ev):

     7.9368   8.8823   9.4456   9.9056  10.9196  13.1610  18.0630  26.8921
    29.7078  32.5394

          k = 0.6000-0.2000 0.6000 (  1073 PWs)   bands (ev):

     8.0440   8.9879   9.4694   9.8509  10.7569  13.9233  17.0866  25.6420
    30.9633  33.0825

          k = 0.5000-0.1000 0.5000 (  1053 PWs)   bands (ev):

     7.6890   9.0828   9.2060   9.8780  10.4243  12.1710  20.6321  25.1022
    33.0025  34.2170

          k = 0.4000 0.0000 0.4000 (  1057 PWs)   bands (ev):

     6.4844   8.9734   9.4590   9.9706  10.0676  11.1856  24.7819  25.5920
    35.6772  35.9387

          k = 0.0000 0.6000 0.0000 (  1042 PWs)   bands (ev):

     6.7060   8.5359  10.0093  10.3955  10.3955  10.6770  27.9984  28.1803
    28.1803  30.9475

          k =-0.1000 0.7000-0.1000 (  1049 PWs)   bands (ev):

     7.4514   8.3964   9.9941  10.4546  10.8592  11.4337  24.5780  25.4030
    27.3771  31.5124

          k = 0.8000-0.2000 0.8000 (  1054 PWs)   bands (ev):

     7.9725   8.4231   9.7600  10.3580  10.9481  13.5781  20.4550  23.3206
    27.5109  31.7253

          k = 0.7000-0.1000 0.7000 (  1056 PWs)   bands (ev):

     8.3215   8.5569   9.4699  10.2423  10.8040  16.1866  17.2372  21.9225
    28.5855  32.1397

          k = 0.6000-0.0000 0.6000 (  1059 PWs)   bands (ev):

     8.3821   8.8235   9.1229  10.1059  10.5512  14.0171  19.7945  21.7133
    30.4775  32.9668

          k = 0.0000 0.8000 0.0000 (  1042 PWs)   bands (ev):

     7.5379   8.1933  10.8183  10.8448  10.8448  11.8621  22.6194  26.2272
    26.2272  30.2620

          k = 0.9000-0.1000 0.9000 (  1061 PWs)   bands (ev):

     7.7048   8.1627  10.5916  10.7469  10.9880  13.8036  20.6479  23.4454
    26.0463  31.0186

          k = 0.8000 0.0000 0.8000 (  1057 PWs)   bands (ev):

     8.0003   8.3093  10.0249  10.5772  10.9092  15.9186  19.6728  20.1725
    26.8760  31.5108

          k = 0.0000-1.0000 0.0000 (  1034 PWs)   bands (ev):

     7.5928   8.0649  10.8727  11.0375  11.0375  13.9090  19.5717  25.5254
    25.5254  30.0445

          k =-0.2000 0.4000 0.0000 (  1054 PWs)   bands (ev):

     5.3284   8.9925   9.6375   9.9363  10.1026  10.6432  27.8528  28.4812
    34.6013  36.0917

          k =-0.3000 0.5000-0.1000 (  1057 PWs)   bands (ev):

     6.7070   8.9078   9.4147   9.9386  10.3980  11.1580  23.2833  27.5873
    32.0679  36.1827

          k = 0.6000-0.4000 0.8000 (  1054 PWs)   bands (ev):

     7.7099   9.0902   9.3319   9.8334  10.7373  12.2864  19.0617  27.6407
    29.9729  35.6650

          k = 0.5000-0.3000 0.7000 (  1060 PWs)   bands (ev):

     7.9180   9.0592   9.5981   9.7725  10.8485  13.7670  16.5077  28.2279
    28.6872  35.4460

          k =-0.2000 0.6000 0.0000 (  1052 PWs)   bands (ev):

     7.0443   8.6170   9.5235  10.3945  10.4432  11.1799  25.4814  26.0691
    28.4759  34.3207

          k = 0.7000-0.3000 0.9000 (  1053 PWs)   bands (ev):

     7.9224   8.6113   9.3398  10.2829  10.7749  12.5842  21.3331  25.6295
    26.1969  34.8928

          k = 0.6000-0.2000 0.8000 (  1060 PWs)   bands (ev):

     8.3154   8.6694   9.3015  10.1354  10.8604  14.9488  17.6433  24.4256
    26.3018  35.2509

          k = 0.5000-0.1000 0.7000 (  1064 PWs)   bands (ev):

     8.3749   8.7783   9.1297  10.1021  10.7080  14.2214  18.7251  23.4037
    27.6370  36.1298

          k = 0.4000 0.0000 0.6000 (  1049 PWs)   bands (ev):

     7.8325   8.8419   9.1151  10.1571  10.4180  12.2666  22.3560  23.4908
    29.5974  37.5390

          k = 0.8000-0.2000 1.0000 (  1055 PWs)   bands (ev):

     7.7886   8.3164  10.0063  10.6980  10.8429  12.9344  22.9508  23.8535
    24.5215  33.2718

          k = 0.7000-0.1000 0.9000 (  1058 PWs)   bands (ev):

     8.0914   8.4148   9.7177  10.4916  10.9552  15.3712  20.2280  21.2496
    24.6507  34.2762

          k = 0.6000 0.0000 0.8000 (  1064 PWs)   bands (ev):

     8.4225   8.5742   9.3093  10.2938  10.8463  16.8735  17.9890  20.7462
    25.8234  35.0666

          k =-0.2000-1.0000 0.0000 (  1058 PWs)   bands (ev):

     7.8102   8.2029  10.3487  10.7069  11.0378  15.0298  19.7539  23.2572
    23.9427  32.9320

          k = 0.6000-0.2000 1.0000 (  1052 PWs)   bands (ev):

     8.3298   8.6916   9.1209  10.3537  10.8396  14.6595  20.7094  22.2181
    24.0459  38.3461

          k = 0.5000-0.1000 0.9000 (  1058 PWs)   bands (ev):

     8.4314   8.7991   9.0316  10.2565  10.9451  17.2561  17.8658  22.4497
    22.6744  38.8935

          k =-0.4000-1.0000 0.0000 (  1056 PWs)   bands (ev):

     8.2489   8.6290   9.3614  10.3503  11.0382  17.2970  20.1047  20.3854
    21.8254  37.9608

     the Fermi energy is    12.3864 ev

!    total energy              =    -122.40925925 Ry
     Harris-Foulkes estimate   =    -122.40925926 Ry
     estimated scf accuracy    <          1.1E-09 Ry

     The total energy is the sum of the following terms:

     one-electron contribution =     -27.59498482 Ry
     hartree contribution      =      30.52153955 Ry
     xc contribution           =     -44.11019862 Ry
     ewald contribution        =     -81.22522855 Ry
     smearing contrib. (-TS)   =      -0.00038682 Ry

     convergence has been achieved in   6 iterations

     Forces acting on atoms (cartesian axes, Ry/au):

     atom    1 type  1   force =     0.00000000    0.00000000    0.00000000

     Total force =     0.000000     Total SCF correction =     0.000000


     Computing stress (Cartesian axis) and pressure

          total   stress  (Ry/bohr**3)                   (kbar)     P=  -54.83
  -0.00037271   0.00000000   0.00000000        -54.83      0.00      0.00
   0.00000000  -0.00037271  -0.00000000          0.00    -54.83     -0.00
   0.00000000  -0.00000000  -0.00037271          0.00     -0.00    -54.83


     Writing output data file Cu.save/

     init_run     :      0.34s CPU      0.35s WALL (       1 calls)
     electrons    :      3.81s CPU      3.98s WALL (       1 calls)
     forces       :      0.08s CPU      0.08s WALL (       1 calls)
     stress       :      0.22s CPU      0.22s WALL (       1 calls)

     Called by init_run:
     wfcinit      :      0.15s CPU      0.16s WALL (       1 calls)
     potinit      :      0.01s CPU      0.01s WALL (       1 calls)
     hinit0       :      0.17s CPU      0.17s WALL (       1 calls)

     Called by electrons:
     c_bands      :      3.05s CPU      3.18s WALL (       7 calls)
     sum_band     :      0.65s CPU      0.68s WALL (       7 calls)
     v_of_rho     :      0.04s CPU      0.04s WALL (       7 calls)
     newd         :      0.06s CPU      0.07s WALL (       7 calls)
     mix_rho      :      0.00s CPU      0.00s WALL (       7 calls)

     Called by c_bands:
     init_us_2    :      0.11s CPU      0.11s WALL (     799 calls)
     cegterg      :      2.91s CPU      3.04s WALL (     329 calls)

     Called by sum_band:
     sum_band:bec :      0.00s CPU      0.00s WALL (     329 calls)
     addusdens    :      0.06s CPU      0.06s WALL (       7 calls)

     Called by *egterg:
     h_psi        :      2.40s CPU      2.51s WALL (    1025 calls)
     s_psi        :      0.07s CPU      0.07s WALL (    1025 calls)
     g_psi        :      0.01s CPU      0.01s WALL (     649 calls)
     cdiaghg      :      0.21s CPU      0.22s WALL (     931 calls)

     Called by h_psi:
     h_psi:pot    :      2.38s CPU      2.50s WALL (    1025 calls)
     h_psi:calbec :      0.11s CPU      0.12s WALL (    1025 calls)
     vloc_psi     :      2.19s CPU      2.30s WALL (    1025 calls)
     add_vuspsi   :      0.07s CPU      0.07s WALL (    1025 calls)

     General routines
     calbec       :      0.20s CPU      0.21s WALL (    1589 calls)
     fft          :      0.03s CPU      0.03s WALL (     104 calls)
     ffts         :      0.00s CPU      0.00s WALL (       7 calls)
     fftw         :      2.52s CPU      2.64s WALL (   19944 calls)

     Parallel routines
     fft_scatt_xy :      0.21s CPU      0.22s WALL (   20055 calls)
     fft_scatt_yz :      0.76s CPU      0.79s WALL (   20055 calls)

     PWSCF        :     5.20s CPU         5.48s WALL


   This run was terminated on:  23:40:31  25Mar2024            

=------------------------------------------------------------------------------=
   JOB DONE.
=------------------------------------------------------------------------------=
