
     Program PWSCF v.6.3MaX starts on 25Mar2024 at 23:15:43 

     This program is part of the open-source Quantum ESPRESSO suite
     for quantum simulation of materials; please cite
         "P. Giannozzi et al., J. Phys.:Condens. Matter 21 395502 (2009);
         "P. Giannozzi et al., J. Phys.:Condens. Matter 29 465901 (2017);
          URL http://www.quantum-espresso.org", 
     in publications or presentations arising from this work. More details at
     http://www.quantum-espresso.org/quote

     Parallel version (MPI), running on     5 processors

     MPI processes distributed on     1 nodes
     R & G space division:  proc/nbgrp/npool/nimage =       5
     Waiting for input...
     Reading input from standard input

     Current dimensions of program PWSCF are:
     Max number of different atomic species (ntypx) = 10
     Max number of k-points (npk) =  40000
     Max angular momentum in pseudopotentials (lmaxx) =  3
               file Cu.pbesol-dn-kjpaw_psl.1.0.0.UPF: wavefunction(s)  4S 3D renormalized

     Subspace diagonalization in iterative solution of the eigenvalue problem:
     a serial algorithm will be used


     Parallelization info
     --------------------
     sticks:   dense  smooth     PW     G-vecs:    dense   smooth      PW
     Min          39      39     14                  361      361      82
     Max          40      40     15                  363      363      83
     Sum         199     199     73                 1807     1807     411



     bravais-lattice index     =            2
     lattice parameter (alat)  =       6.8300  a.u.
     unit-cell volume          =      79.6530 (a.u.)^3
     number of atoms/cell      =            1
     number of atomic types    =            1
     number of electrons       =        11.00
     number of Kohn-Sham states=           10
     kinetic-energy cutoff     =      30.0000  Ry
     charge density cutoff     =     120.0000  Ry
     convergence threshold     =      1.0E-08
     mixing beta               =       0.7000
     number of iterations used =            8  plain     mixing
     Exchange-correlation      = SLA PW PSX PSC ( 1  4 10  8 0 0)

     celldm(1)=   6.830000  celldm(2)=   0.000000  celldm(3)=   0.000000
     celldm(4)=   0.000000  celldm(5)=   0.000000  celldm(6)=   0.000000

     crystal axes: (cart. coord. in units of alat)
               a(1) = (  -0.500000   0.000000   0.500000 )  
               a(2) = (   0.000000   0.500000   0.500000 )  
               a(3) = (  -0.500000   0.500000   0.000000 )  

     reciprocal axes: (cart. coord. in units 2 pi/alat)
               b(1) = ( -1.000000 -1.000000  1.000000 )  
               b(2) = (  1.000000  1.000000  1.000000 )  
               b(3) = ( -1.000000  1.000000 -1.000000 )  


     PseudoPot. # 1 for Cu read from file:
     /home/lorenzo/pseudos/Cu/Cu.pbesol-dn-kjpaw_psl.1.0.0.UPF
     MD5 check sum: 1e9735a74797514c934643dbd229f231
     Pseudo is Projector augmented-wave + core cor, Zval = 11.0
     Generated using "atomic" code by A. Dal Corso v.6.3
     Shape of augmentation charge: PSQ
     Using radial grid of 1199 points,  6 beta functions with: 
                l(1) =   0
                l(2) =   0
                l(3) =   1
                l(4) =   1
                l(5) =   2
                l(6) =   2
     Q(r) pseudized with 0 coefficients 


     atomic species   valence    mass     pseudopotential
        Cu            11.00    63.54600     Cu( 1.00)

     48 Sym. Ops., with inversion, found



   Cartesian axes

     site n.     atom                  positions (alat units)
         1           Cu  tau(   1) = (   0.0000000   0.0000000   0.0000000  )

     number of k points=    47  gaussian smearing, width (Ry)=  0.0100
                       cart. coord. in units 2pi/alat
        k(    1) = (   0.0000000   0.0000000   0.0000000), wk =   0.0020000
        k(    2) = (  -0.1000000   0.1000000  -0.1000000), wk =   0.0160000
        k(    3) = (  -0.2000000   0.2000000  -0.2000000), wk =   0.0160000
        k(    4) = (  -0.3000000   0.3000000  -0.3000000), wk =   0.0160000
        k(    5) = (  -0.4000000   0.4000000  -0.4000000), wk =   0.0160000
        k(    6) = (   0.5000000  -0.5000000   0.5000000), wk =   0.0080000
        k(    7) = (   0.0000000   0.2000000   0.0000000), wk =   0.0120000
        k(    8) = (  -0.1000000   0.3000000  -0.1000000), wk =   0.0480000
        k(    9) = (  -0.2000000   0.4000000  -0.2000000), wk =   0.0480000
        k(   10) = (  -0.3000000   0.5000000  -0.3000000), wk =   0.0480000
        k(   11) = (   0.6000000  -0.4000000   0.6000000), wk =   0.0480000
        k(   12) = (   0.5000000  -0.3000000   0.5000000), wk =   0.0480000
        k(   13) = (   0.4000000  -0.2000000   0.4000000), wk =   0.0480000
        k(   14) = (   0.3000000  -0.1000000   0.3000000), wk =   0.0480000
        k(   15) = (   0.2000000   0.0000000   0.2000000), wk =   0.0240000
        k(   16) = (   0.0000000   0.4000000   0.0000000), wk =   0.0120000
        k(   17) = (  -0.1000000   0.5000000  -0.1000000), wk =   0.0480000
        k(   18) = (  -0.2000000   0.6000000  -0.2000000), wk =   0.0480000
        k(   19) = (   0.7000000  -0.3000000   0.7000000), wk =   0.0480000
        k(   20) = (   0.6000000  -0.2000000   0.6000000), wk =   0.0480000
        k(   21) = (   0.5000000  -0.1000000   0.5000000), wk =   0.0480000
        k(   22) = (   0.4000000   0.0000000   0.4000000), wk =   0.0240000
        k(   23) = (   0.0000000   0.6000000   0.0000000), wk =   0.0120000
        k(   24) = (  -0.1000000   0.7000000  -0.1000000), wk =   0.0480000
        k(   25) = (   0.8000000  -0.2000000   0.8000000), wk =   0.0480000
        k(   26) = (   0.7000000  -0.1000000   0.7000000), wk =   0.0480000
        k(   27) = (   0.6000000  -0.0000000   0.6000000), wk =   0.0240000
        k(   28) = (   0.0000000   0.8000000   0.0000000), wk =   0.0120000
        k(   29) = (   0.9000000  -0.1000000   0.9000000), wk =   0.0480000
        k(   30) = (   0.8000000   0.0000000   0.8000000), wk =   0.0240000
        k(   31) = (   0.0000000  -1.0000000   0.0000000), wk =   0.0060000
        k(   32) = (  -0.2000000   0.4000000   0.0000000), wk =   0.0480000
        k(   33) = (  -0.3000000   0.5000000  -0.1000000), wk =   0.0960000
        k(   34) = (   0.6000000  -0.4000000   0.8000000), wk =   0.0960000
        k(   35) = (   0.5000000  -0.3000000   0.7000000), wk =   0.0480000
        k(   36) = (  -0.2000000   0.6000000   0.0000000), wk =   0.0480000
        k(   37) = (   0.7000000  -0.3000000   0.9000000), wk =   0.0960000
        k(   38) = (   0.6000000  -0.2000000   0.8000000), wk =   0.0960000
        k(   39) = (   0.5000000  -0.1000000   0.7000000), wk =   0.0960000
        k(   40) = (   0.4000000   0.0000000   0.6000000), wk =   0.0480000
        k(   41) = (   0.8000000  -0.2000000   1.0000000), wk =   0.0480000
        k(   42) = (   0.7000000  -0.1000000   0.9000000), wk =   0.0960000
        k(   43) = (   0.6000000   0.0000000   0.8000000), wk =   0.0480000
        k(   44) = (  -0.2000000  -1.0000000   0.0000000), wk =   0.0240000
        k(   45) = (   0.6000000  -0.2000000   1.0000000), wk =   0.0480000
        k(   46) = (   0.5000000  -0.1000000   0.9000000), wk =   0.0480000
        k(   47) = (  -0.4000000  -1.0000000   0.0000000), wk =   0.0240000

     Dense  grid:     1807 G-vectors     FFT dimensions: (  18,  18,  18)

     Estimated max dynamical RAM per process >       2.64 MB

     Estimated total dynamical RAM >      13.22 MB

     Check: negative/imaginary core charge=   -0.000038    0.000000

     Initial potential from superposition of free atoms

     starting charge   10.99979, renormalised to   11.00000
     Starting wfcs are    9 randomized atomic wfcs +    1 random wfcs
     Checking if some PAW data can be deallocated... 

     total cpu time spent up to now is        1.0 secs

     Self-consistent Calculation

     iteration #  1     ecut=    30.00 Ry     beta= 0.70
     Davidson diagonalization with overlap
     ethr =  1.00E-02,  avg # of iterations =  3.6

     Threshold (ethr) on eigenvalues was too large:
     Diagonalizing with lowered threshold

     Davidson diagonalization with overlap
     ethr =  7.79E-04,  avg # of iterations =  1.2

     total cpu time spent up to now is        1.6 secs

     total energy              =    -210.35201046 Ry
     Harris-Foulkes estimate   =    -210.42086228 Ry
     estimated scf accuracy    <       0.08547600 Ry

     iteration #  2     ecut=    30.00 Ry     beta= 0.70
     Davidson diagonalization with overlap
     ethr =  7.77E-04,  avg # of iterations =  2.0

     total cpu time spent up to now is        1.8 secs

     total energy              =    -210.35878468 Ry
     Harris-Foulkes estimate   =    -210.47233365 Ry
     estimated scf accuracy    <       0.28780680 Ry

     iteration #  3     ecut=    30.00 Ry     beta= 0.70
     Davidson diagonalization with overlap
     ethr =  7.77E-04,  avg # of iterations =  2.0

     total cpu time spent up to now is        2.2 secs

     total energy              =    -210.40352457 Ry
     Harris-Foulkes estimate   =    -210.40364705 Ry
     estimated scf accuracy    <       0.00025472 Ry

     iteration #  4     ecut=    30.00 Ry     beta= 0.70
     Davidson diagonalization with overlap
     ethr =  2.32E-06,  avg # of iterations =  2.4

     total cpu time spent up to now is        2.5 secs

     total energy              =    -210.40363660 Ry
     Harris-Foulkes estimate   =    -210.40364778 Ry
     estimated scf accuracy    <       0.00003192 Ry

     iteration #  5     ecut=    30.00 Ry     beta= 0.70
     Davidson diagonalization with overlap
     ethr =  2.90E-07,  avg # of iterations =  1.0

     total cpu time spent up to now is        2.7 secs

     total energy              =    -210.40364194 Ry
     Harris-Foulkes estimate   =    -210.40364197 Ry
     estimated scf accuracy    <       0.00000008 Ry

     iteration #  6     ecut=    30.00 Ry     beta= 0.70
     Davidson diagonalization with overlap
     ethr =  7.56E-10,  avg # of iterations =  3.0

     total cpu time spent up to now is        3.1 secs

     End of self-consistent calculation

          k = 0.0000 0.0000 0.0000 (   229 PWs)   bands (ev):

     3.0542   9.4295   9.4295   9.4295  10.2643  10.2643  35.3918  37.7565
    37.7565  37.7565

          k =-0.1000 0.1000-0.1000 (   220 PWs)   bands (ev):

     3.4163   9.3529   9.4994   9.4994  10.2442  10.2442  32.7031  36.0330
    36.8964  36.8964

          k =-0.2000 0.2000-0.2000 (   220 PWs)   bands (ev):

     4.4570   9.1977   9.5909   9.5909  10.2644  10.2644  27.4662  35.5607
    35.7702  35.7702

          k =-0.3000 0.3000-0.3000 (   217 PWs)   bands (ev):

     5.9463   9.2429   9.5471   9.5471  10.4768  10.4768  22.5889  34.7884
    35.0102  35.0102

          k =-0.4000 0.4000-0.4000 (   226 PWs)   bands (ev):

     7.0826   9.4384   9.4384  10.1774  10.7168  10.7168  18.4187  34.0722
    34.6180  34.6180

          k = 0.5000-0.5000 0.5000 (   228 PWs)   bands (ev):

     7.3446   9.3908   9.3908  10.8205  10.8205  11.4129  16.2196  33.7965
    34.5134  34.5134

          k = 0.0000 0.2000 0.0000 (   226 PWs)   bands (ev):

     3.5362   9.2741   9.5410   9.5410  10.1375  10.3232  34.0529  34.7292
    34.7292  36.1908

          k =-0.1000 0.3000-0.1000 (   221 PWs)   bands (ev):

     4.3501   9.1189   9.6472   9.6649  10.0768  10.3779  29.4369  33.1413
    34.1057  37.3875

          k =-0.2000 0.4000-0.2000 (   224 PWs)   bands (ev):

     5.7117   9.0112   9.5401   9.6819  10.3592  10.5495  24.3967  32.1804
    33.3936  35.5667

          k =-0.3000 0.5000-0.3000 (   220 PWs)   bands (ev):

     7.0457   9.2852   9.4217   9.5981  10.7605  11.0405  19.9342  31.9327
    32.4342  33.8504

          k = 0.6000-0.4000 0.6000 (   226 PWs)   bands (ev):

     7.5163   9.2631   9.5147   9.9750  10.8328  12.3226  16.6519  31.0361
    32.4463  33.5847

          k = 0.5000-0.3000 0.5000 (   226 PWs)   bands (ev):

     7.4476   9.3030   9.5196   9.8770  10.6872  11.9267  17.5042  30.1264
    33.7889  34.1376

          k = 0.4000-0.2000 0.4000 (   217 PWs)   bands (ev):

     6.6807   9.2020   9.4437   9.6117  10.3901  11.0104  21.3569  29.9047
    35.3739  35.9170

          k = 0.3000-0.1000 0.3000 (   219 PWs)   bands (ev):

     5.2187   9.0675   9.5805   9.7057  10.1034  10.5675  26.0416  30.3235
    37.1073  38.5960

          k = 0.2000 0.0000 0.2000 (   217 PWs)   bands (ev):

     4.0059   9.2217   9.5885   9.5963  10.1213  10.3433  30.9174  31.6534
    37.5050  39.1210

          k = 0.0000 0.4000 0.0000 (   222 PWs)   bands (ev):

     4.9064   8.9197   9.8564   9.8630   9.8630  10.4609  31.1417  31.1417
    32.3597  33.3541

          k =-0.1000 0.5000-0.1000 (   219 PWs)   bands (ev):

     6.0120   8.7302   9.6037   9.9977  10.3446  10.5929  26.7064  29.8617
    31.1659  32.8989

          k =-0.2000 0.6000-0.2000 (   219 PWs)   bands (ev):

     7.2626   8.6932   9.3833   9.9514  10.7971  11.3133  22.0536  28.8462
    29.3712  32.5983

          k = 0.7000-0.3000 0.7000 (   221 PWs)   bands (ev):

     7.9009   8.8384   9.3958   9.8563  10.8559  13.1413  18.0855  26.9565
    29.7562  32.6413

          k = 0.6000-0.2000 0.6000 (   223 PWs)   bands (ev):

     8.0041   8.9432   9.4197   9.7999  10.6916  13.9102  17.1002  25.6956
    31.0162  33.1670

          k = 0.5000-0.1000 0.5000 (   221 PWs)   bands (ev):

     7.6682   9.0373   9.1579   9.8256  10.3619  12.1316  20.6703  25.1585
    33.0804  34.2851

          k = 0.4000 0.0000 0.4000 (   214 PWs)   bands (ev):

     6.4831   8.9244   9.4145   9.9274  10.0149  11.1334  24.8742  25.6421
    35.8158  35.9953

          k = 0.0000 0.6000 0.0000 (   218 PWs)   bands (ev):

     6.6991   8.4815   9.9701  10.3347  10.3347  10.6311  28.0784  28.2150
    28.2150  31.1449

          k =-0.1000 0.7000-0.1000 (   222 PWs)   bands (ev):

     7.4276   8.3437   9.9465  10.3972  10.8022  11.3913  24.6221  25.4536
    27.4023  31.6676

          k = 0.8000-0.2000 0.8000 (   221 PWs)   bands (ev):

     7.9340   8.3775   9.7083  10.2994  10.8833  13.5642  20.4891  23.3720
    27.5344  31.8652

          k = 0.7000-0.1000 0.7000 (   223 PWs)   bands (ev):

     8.2734   8.5146   9.4172  10.1831  10.7330  16.1928  17.2475  21.9653
    28.6165  32.2560

          k = 0.6000-0.0000 0.6000 (   226 PWs)   bands (ev):

     8.3427   8.7799   9.0675  10.0436  10.4832  13.9967  19.8156  21.7535
    30.5183  33.0729

          k = 0.0000 0.8000 0.0000 (   218 PWs)   bands (ev):

     7.5068   8.1397  10.7695  10.7809  10.7809  11.8594  22.6819  26.2395
    26.2395  30.4670

          k = 0.9000-0.1000 0.9000 (   219 PWs)   bands (ev):

     7.6671   8.1119  10.5305  10.6982  10.9173  13.8012  20.6993  23.4735
    26.0573  31.1990

          k = 0.8000 0.0000 0.8000 (   224 PWs)   bands (ev):

     7.9566   8.2596   9.9666  10.5145  10.8345  15.9189  19.7092  20.1949
    26.8922  31.6517

          k = 0.0000-1.0000 0.0000 (   222 PWs)   bands (ev):

     7.5529   8.0099  10.8229  10.9615  10.9615  13.9143  19.6129  25.5311
    25.5311  30.2300

          k =-0.2000 0.4000 0.0000 (   219 PWs)   bands (ev):

     5.3317   8.9398   9.5863   9.8781  10.0508  10.5936  27.9482  28.5350
    34.7057  36.2337

          k =-0.3000 0.5000-0.1000 (   219 PWs)   bands (ev):

     6.7031   8.8592   9.3628   9.8878  10.3437  11.1050  23.3421  27.6522
    32.1532  36.2748

          k = 0.6000-0.4000 0.8000 (   222 PWs)   bands (ev):

     7.6811   9.0455   9.2826   9.7852  10.6760  12.2515  19.0885  27.7021
    30.0331  35.7043

          k = 0.5000-0.3000 0.7000 (   222 PWs)   bands (ev):

     7.8784   9.0097   9.5527   9.7264  10.7829  13.7574  16.5181  28.3037
    28.7253  35.4667

          k =-0.2000 0.6000 0.0000 (   219 PWs)   bands (ev):

     7.0355   8.5648   9.4736  10.3340  10.3964  11.1326  25.5508  26.1086
    28.5435  34.4861

          k = 0.7000-0.3000 0.9000 (   223 PWs)   bands (ev):

     7.8918   8.5634   9.2908  10.2250  10.7121  12.5513  21.3713  25.6809
    26.2398  35.0142

          k = 0.6000-0.2000 0.8000 (   225 PWs)   bands (ev):

     8.2701   8.6245   9.2485  10.0768  10.7928  14.9415  17.6577  24.4751
    26.3410  35.3360

          k = 0.5000-0.1000 0.7000 (   222 PWs)   bands (ev):

     8.3367   8.7338   9.0788  10.0474  10.6423  14.2128  18.7506  23.4498
    27.6914  36.2023

          k = 0.4000 0.0000 0.6000 (   219 PWs)   bands (ev):

     7.8147   8.7943   9.0632  10.1103  10.3589  12.2317  22.4166  23.5250
    29.6675  37.5921

          k = 0.8000-0.2000 1.0000 (   222 PWs)   bands (ev):

     7.7540   8.2637   9.9543  10.6439  10.7757  12.9172  23.0055  23.8924
    24.5404  33.4446

          k = 0.7000-0.1000 0.9000 (   219 PWs)   bands (ev):

     8.0514   8.3668   9.6656  10.4370  10.8872  15.3714  20.2637  21.2967
    24.6858  34.4237

          k = 0.6000 0.0000 0.8000 (   223 PWs)   bands (ev):

     8.3774   8.5266   9.2578  10.2375  10.7731  16.8837  18.0052  20.7829
    25.8639  35.1721

          k =-0.2000-1.0000 0.0000 (   222 PWs)   bands (ev):

     7.7697   8.1522  10.2856  10.6533  10.9634  15.0282  19.7964  23.2942
    23.9599  33.1185

          k = 0.6000-0.2000 1.0000 (   220 PWs)   bands (ev):

     8.2911   8.6434   9.0729  10.2998  10.7711  14.6528  20.7479  22.2555
    24.0952  38.5432

          k = 0.5000-0.1000 0.9000 (   216 PWs)   bands (ev):

     8.3921   8.7531   8.9846  10.2056  10.8807  17.2725  17.8869  22.5330
    22.6915  38.9959

          k =-0.4000-1.0000 0.0000 (   216 PWs)   bands (ev):

     8.2086   8.5847   9.3086  10.2983  10.9716  17.3071  20.1474  20.4369
    21.8534  38.1836

     the Fermi energy is    12.3559 ev

!    total energy              =    -210.40364201 Ry
     Harris-Foulkes estimate   =    -210.40364201 Ry
     estimated scf accuracy    <          2.1E-09 Ry

     total all-electron energy =     -3307.282703 Ry

     The total energy is the sum of the following terms:

     one-electron contribution =     -27.96376027 Ry
     hartree contribution      =      30.47223471 Ry
     xc contribution           =     -44.09241759 Ry
     ewald contribution        =     -81.22522858 Ry
     one-center paw contrib.   =     -87.59409031 Ry
     smearing contrib. (-TS)   =      -0.00037997 Ry

     convergence has been achieved in   6 iterations

     Forces acting on atoms (cartesian axes, Ry/au):

     atom    1 type  1   force =     0.00000000    0.00000000    0.00000000

     Total force =     0.000000     Total SCF correction =     0.000000


     Computing stress (Cartesian axis) and pressure

          total   stress  (Ry/bohr**3)                   (kbar)     P= -305.84
  -0.00207903  -0.00000000   0.00000000       -305.84     -0.00      0.00
  -0.00000000  -0.00207903   0.00000000         -0.00   -305.84      0.00
   0.00000000   0.00000000  -0.00207903          0.00      0.00   -305.84


     Writing output data file Cu.save/

     init_run     :      0.28s CPU      0.30s WALL (       1 calls)
     electrons    :      1.87s CPU      2.09s WALL (       1 calls)
     forces       :      0.02s CPU      0.02s WALL (       1 calls)
     stress       :      0.06s CPU      0.07s WALL (       1 calls)

     Called by init_run:
     wfcinit      :      0.05s CPU      0.06s WALL (       1 calls)
     potinit      :      0.11s CPU      0.12s WALL (       1 calls)
     hinit0       :      0.10s CPU      0.10s WALL (       1 calls)

     Called by electrons:
     c_bands      :      1.08s CPU      1.19s WALL (       7 calls)
     sum_band     :      0.18s CPU      0.20s WALL (       7 calls)
     v_of_rho     :      0.01s CPU      0.01s WALL (       7 calls)
     newd         :      0.02s CPU      0.02s WALL (       7 calls)
     PAW_pot      :      0.67s CPU      0.77s WALL (       7 calls)
     mix_rho      :      0.00s CPU      0.00s WALL (       7 calls)

     Called by c_bands:
     init_us_2    :      0.03s CPU      0.03s WALL (     799 calls)
     cegterg      :      1.04s CPU      1.14s WALL (     329 calls)

     Called by sum_band:
     sum_band:bec :      0.00s CPU      0.00s WALL (     329 calls)
     addusdens    :      0.01s CPU      0.01s WALL (       7 calls)

     Called by *egterg:
     h_psi        :      0.76s CPU      0.84s WALL (    1093 calls)
     s_psi        :      0.02s CPU      0.02s WALL (    1093 calls)
     g_psi        :      0.00s CPU      0.00s WALL (     717 calls)
     cdiaghg      :      0.18s CPU      0.20s WALL (     999 calls)

     Called by h_psi:
     h_psi:pot    :      0.76s CPU      0.83s WALL (    1093 calls)
     h_psi:calbec :      0.04s CPU      0.04s WALL (    1093 calls)
     vloc_psi     :      0.69s CPU      0.76s WALL (    1093 calls)
     add_vuspsi   :      0.02s CPU      0.02s WALL (    1093 calls)

     General routines
     calbec       :      0.07s CPU      0.07s WALL (    1657 calls)
     fft          :      0.01s CPU      0.01s WALL (     104 calls)
     ffts         :      0.00s CPU      0.00s WALL (       7 calls)
     fftw         :      0.76s CPU      0.84s WALL (   20332 calls)

     Parallel routines
     fft_scatt_xy :      0.07s CPU      0.08s WALL (   20443 calls)
     fft_scatt_yz :      0.26s CPU      0.28s WALL (   20443 calls)

     PWSCF        :     3.02s CPU         3.36s WALL


   This run was terminated on:  23:15:46  25Mar2024            

=------------------------------------------------------------------------------=
   JOB DONE.
=------------------------------------------------------------------------------=
