
     Program PWSCF v.6.3MaX starts on 25Mar2024 at 23:14:47 

     This program is part of the open-source Quantum ESPRESSO suite
     for quantum simulation of materials; please cite
         "P. Giannozzi et al., J. Phys.:Condens. Matter 21 395502 (2009);
         "P. Giannozzi et al., J. Phys.:Condens. Matter 29 465901 (2017);
          URL http://www.quantum-espresso.org", 
     in publications or presentations arising from this work. More details at
     http://www.quantum-espresso.org/quote

     Parallel version (MPI), running on     5 processors

     MPI processes distributed on     1 nodes
     R & G space division:  proc/nbgrp/npool/nimage =       5
     Waiting for input...
     Reading input from standard input

     Current dimensions of program PWSCF are:
     Max number of different atomic species (ntypx) = 10
     Max number of k-points (npk) =  40000
     Max angular momentum in pseudopotentials (lmaxx) =  3
               file Cu.pbe-dn-kjpaw_psl.1.0.0.UPF: wavefunction(s)  4S 3D renormalized

     Subspace diagonalization in iterative solution of the eigenvalue problem:
     a serial algorithm will be used


     Parallelization info
     --------------------
     sticks:   dense  smooth     PW     G-vecs:    dense   smooth      PW
     Min          32      32     12                  272      272      61
     Max          33      33     13                  273      273      62
     Sum         163     163     61                 1363     1363     307



     bravais-lattice index     =            2
     lattice parameter (alat)  =       6.8300  a.u.
     unit-cell volume          =      79.6530 (a.u.)^3
     number of atoms/cell      =            1
     number of atomic types    =            1
     number of electrons       =        11.00
     number of Kohn-Sham states=           10
     kinetic-energy cutoff     =      25.0000  Ry
     charge density cutoff     =     100.0000  Ry
     convergence threshold     =      1.0E-08
     mixing beta               =       0.7000
     number of iterations used =            8  plain     mixing
     Exchange-correlation      = SLA PW PBX PBC ( 1  4  3  4 0 0)

     celldm(1)=   6.830000  celldm(2)=   0.000000  celldm(3)=   0.000000
     celldm(4)=   0.000000  celldm(5)=   0.000000  celldm(6)=   0.000000

     crystal axes: (cart. coord. in units of alat)
               a(1) = (  -0.500000   0.000000   0.500000 )  
               a(2) = (   0.000000   0.500000   0.500000 )  
               a(3) = (  -0.500000   0.500000   0.000000 )  

     reciprocal axes: (cart. coord. in units 2 pi/alat)
               b(1) = ( -1.000000 -1.000000  1.000000 )  
               b(2) = (  1.000000  1.000000  1.000000 )  
               b(3) = ( -1.000000  1.000000 -1.000000 )  


     PseudoPot. # 1 for Cu read from file:
     /home/lorenzo/pseudos/Cu/Cu.pbe-dn-kjpaw_psl.1.0.0.UPF
     MD5 check sum: cfffd1f38ee05704b3e17f46f1730a6f
     Pseudo is Projector augmented-wave + core cor, Zval = 11.0
     Generated using "atomic" code by A. Dal Corso v.6.3
     Shape of augmentation charge: PSQ
     Using radial grid of 1199 points,  6 beta functions with: 
                l(1) =   0
                l(2) =   0
                l(3) =   1
                l(4) =   1
                l(5) =   2
                l(6) =   2
     Q(r) pseudized with 0 coefficients 


     atomic species   valence    mass     pseudopotential
        Cu            11.00    63.54600     Cu( 1.00)

     48 Sym. Ops., with inversion, found



   Cartesian axes

     site n.     atom                  positions (alat units)
         1           Cu  tau(   1) = (   0.0000000   0.0000000   0.0000000  )

     number of k points=    10  gaussian smearing, width (Ry)=  0.0100
                       cart. coord. in units 2pi/alat
        k(    1) = (   0.0000000   0.0000000   0.0000000), wk =   0.0160000
        k(    2) = (  -0.2000000   0.2000000  -0.2000000), wk =   0.1280000
        k(    3) = (  -0.4000000   0.4000000  -0.4000000), wk =   0.1280000
        k(    4) = (   0.0000000   0.4000000   0.0000000), wk =   0.0960000
        k(    5) = (  -0.2000000   0.6000000  -0.2000000), wk =   0.3840000
        k(    6) = (   0.6000000  -0.2000000   0.6000000), wk =   0.3840000
        k(    7) = (   0.4000000   0.0000000   0.4000000), wk =   0.1920000
        k(    8) = (   0.0000000   0.8000000   0.0000000), wk =   0.0960000
        k(    9) = (   0.8000000   0.0000000   0.8000000), wk =   0.1920000
        k(   10) = (   0.6000000  -0.2000000   1.0000000), wk =   0.3840000

     Dense  grid:     1363 G-vectors     FFT dimensions: (  15,  15,  15)

     Estimated max dynamical RAM per process >       1.93 MB

     Estimated total dynamical RAM >       9.66 MB

     Check: negative/imaginary core charge=   -0.000134    0.000000

     Initial potential from superposition of free atoms

     starting charge   10.99977, renormalised to   11.00000
     Starting wfcs are    9 randomized atomic wfcs +    1 random wfcs
     Checking if some PAW data can be deallocated... 

     total cpu time spent up to now is        0.9 secs

     Self-consistent Calculation

     iteration #  1     ecut=    25.00 Ry     beta= 0.70
     Davidson diagonalization with overlap
     ethr =  1.00E-02,  avg # of iterations =  3.4

     total cpu time spent up to now is        1.1 secs

     total energy              =    -212.88578415 Ry
     Harris-Foulkes estimate   =    -213.01077347 Ry
     estimated scf accuracy    <       0.15495782 Ry

     iteration #  2     ecut=    25.00 Ry     beta= 0.70
     Davidson diagonalization with overlap
     ethr =  1.41E-03,  avg # of iterations =  2.0

     total cpu time spent up to now is        1.2 secs

     total energy              =    -212.92099524 Ry
     Harris-Foulkes estimate   =    -213.08730609 Ry
     estimated scf accuracy    <       0.39210653 Ry

     iteration #  3     ecut=    25.00 Ry     beta= 0.70
     Davidson diagonalization with overlap
     ethr =  1.41E-03,  avg # of iterations =  2.0

     total cpu time spent up to now is        1.4 secs

     total energy              =    -212.97952144 Ry
     Harris-Foulkes estimate   =    -212.98088452 Ry
     estimated scf accuracy    <       0.00218597 Ry

     iteration #  4     ecut=    25.00 Ry     beta= 0.70
     Davidson diagonalization with overlap
     ethr =  1.99E-05,  avg # of iterations =  2.6

     total cpu time spent up to now is        1.5 secs

     total energy              =    -212.98027842 Ry
     Harris-Foulkes estimate   =    -212.98091982 Ry
     estimated scf accuracy    <       0.00175846 Ry

     iteration #  5     ecut=    25.00 Ry     beta= 0.70
     Davidson diagonalization with overlap
     ethr =  1.60E-05,  avg # of iterations =  1.0

     total cpu time spent up to now is        1.6 secs

     total energy              =    -212.98051179 Ry
     Harris-Foulkes estimate   =    -212.98051736 Ry
     estimated scf accuracy    <       0.00002248 Ry

     iteration #  6     ecut=    25.00 Ry     beta= 0.70
     Davidson diagonalization with overlap
     ethr =  2.04E-07,  avg # of iterations =  2.4

     total cpu time spent up to now is        1.8 secs

     total energy              =    -212.98051377 Ry
     Harris-Foulkes estimate   =    -212.98051493 Ry
     estimated scf accuracy    <       0.00000288 Ry

     iteration #  7     ecut=    25.00 Ry     beta= 0.70
     Davidson diagonalization with overlap
     ethr =  2.62E-08,  avg # of iterations =  1.6

     total cpu time spent up to now is        1.9 secs

     End of self-consistent calculation

          k = 0.0000 0.0000 0.0000 (   169 PWs)   bands (ev):

     3.3351   9.3362   9.3362   9.3362  10.1152  10.1152  35.6798  38.0182
    38.0182  38.0182

          k =-0.2000 0.2000-0.2000 (   168 PWs)   bands (ev):

     4.7326   9.1821   9.4960   9.4960  10.1712  10.1712  27.8555  35.8743
    36.1650  36.1650

          k =-0.4000 0.4000-0.4000 (   162 PWs)   bands (ev):

     7.1942   9.4277   9.4277  10.3460  10.7328  10.7328  18.6808  34.3453
    34.9573  34.9573

          k = 0.0000 0.4000 0.0000 (   165 PWs)   bands (ev):

     5.1788   8.8861   9.8400   9.8400   9.8400  10.3024  31.5301  31.5301
    32.9237  33.7936

          k =-0.2000 0.6000-0.2000 (   171 PWs)   bands (ev):

     7.4181   8.6821   9.3627   9.8732  10.7481  11.3041  22.3471  29.2343
    29.6971  33.0213

          k = 0.6000-0.2000 0.6000 (   166 PWs)   bands (ev):

     8.0350   8.9507   9.4323   9.8133  10.6512  14.0918  17.3415  26.0509
    31.4163  33.5388

          k = 0.4000 0.0000 0.4000 (   168 PWs)   bands (ev):

     6.7217   8.9113   9.3543   9.9185   9.9212  11.0609  25.2375  25.9368
    36.2926  36.3045

          k = 0.0000 0.8000 0.0000 (   170 PWs)   bands (ev):

     7.5523   8.1328  10.6591  10.7499  10.7499  12.0739  22.9878  26.5343
    26.5343  31.1647

          k = 0.8000 0.0000 0.8000 (   170 PWs)   bands (ev):

     7.9670   8.2811   9.9674  10.4258  10.7838  16.1725  20.0098  20.4851
    27.1902  32.1922

          k = 0.6000-0.2000 1.0000 (   163 PWs)   bands (ev):

     8.3335   8.6943   9.1216  10.2903  10.7577  14.8569  21.1046  22.5731
    24.4652  39.2015

     the Fermi energy is    12.0942 ev

!    total energy              =    -212.98051435 Ry
     Harris-Foulkes estimate   =    -212.98051435 Ry
     estimated scf accuracy    <          6.1E-09 Ry

     total all-electron energy =     -3309.860280 Ry

     The total energy is the sum of the following terms:

     one-electron contribution =     -27.70904957 Ry
     hartree contribution      =      30.26210407 Ry
     xc contribution           =     -44.50150773 Ry
     ewald contribution        =     -81.22522862 Ry
     one-center paw contrib.   =     -89.80656762 Ry
     smearing contrib. (-TS)   =      -0.00026488 Ry

     convergence has been achieved in   7 iterations

     Forces acting on atoms (cartesian axes, Ry/au):

     atom    1 type  1   force =     0.00000000    0.00000000    0.00000000

     Total force =     0.000000     Total SCF correction =     0.000000


     Computing stress (Cartesian axis) and pressure

          total   stress  (Ry/bohr**3)                   (kbar)     P=-1404.90
  -0.00955034   0.00000000   0.00000000      -1404.90      0.00      0.00
   0.00000000  -0.00955034  -0.00000000          0.00  -1404.90     -0.00
   0.00000000  -0.00000000  -0.00955034          0.00     -0.00  -1404.90


     Writing output data file Cu.save/

     init_run     :      0.19s CPU      0.21s WALL (       1 calls)
     electrons    :      0.90s CPU      1.02s WALL (       1 calls)
     forces       :      0.01s CPU      0.01s WALL (       1 calls)
     stress       :      0.02s CPU      0.02s WALL (       1 calls)

     Called by init_run:
     wfcinit      :      0.01s CPU      0.01s WALL (       1 calls)
     potinit      :      0.08s CPU      0.10s WALL (       1 calls)
     hinit0       :      0.08s CPU      0.08s WALL (       1 calls)

     Called by electrons:
     c_bands      :      0.17s CPU      0.20s WALL (       7 calls)
     sum_band     :      0.04s CPU      0.05s WALL (       7 calls)
     v_of_rho     :      0.01s CPU      0.01s WALL (       8 calls)
     newd         :      0.01s CPU      0.01s WALL (       8 calls)
     PAW_pot      :      0.74s CPU      0.83s WALL (       8 calls)
     mix_rho      :      0.00s CPU      0.00s WALL (       7 calls)

     Called by c_bands:
     init_us_2    :      0.01s CPU      0.01s WALL (     170 calls)
     cegterg      :      0.17s CPU      0.19s WALL (      70 calls)

     Called by sum_band:
     sum_band:bec :      0.00s CPU      0.00s WALL (      70 calls)
     addusdens    :      0.01s CPU      0.01s WALL (       7 calls)

     Called by *egterg:
     h_psi        :      0.11s CPU      0.12s WALL (     230 calls)
     s_psi        :      0.00s CPU      0.00s WALL (     230 calls)
     g_psi        :      0.00s CPU      0.00s WALL (     150 calls)
     cdiaghg      :      0.04s CPU      0.04s WALL (     220 calls)

     Called by h_psi:
     h_psi:pot    :      0.10s CPU      0.12s WALL (     230 calls)
     h_psi:calbec :      0.01s CPU      0.01s WALL (     230 calls)
     vloc_psi     :      0.09s CPU      0.11s WALL (     230 calls)
     add_vuspsi   :      0.00s CPU      0.00s WALL (     230 calls)

     General routines
     calbec       :      0.01s CPU      0.01s WALL (     350 calls)
     fft          :      0.00s CPU      0.00s WALL (     114 calls)
     ffts         :      0.00s CPU      0.00s WALL (       7 calls)
     fftw         :      0.10s CPU      0.12s WALL (    4268 calls)

     Parallel routines
     fft_scatt_xy :      0.01s CPU      0.01s WALL (    4389 calls)
     fft_scatt_yz :      0.05s CPU      0.05s WALL (    4389 calls)

     PWSCF        :     1.85s CPU         2.05s WALL


   This run was terminated on:  23:14:50  25Mar2024            

=------------------------------------------------------------------------------=
   JOB DONE.
=------------------------------------------------------------------------------=
