
     Program PWSCF v.6.3MaX starts on 25Mar2024 at 23:22:56 

     This program is part of the open-source Quantum ESPRESSO suite
     for quantum simulation of materials; please cite
         "P. Giannozzi et al., J. Phys.:Condens. Matter 21 395502 (2009);
         "P. Giannozzi et al., J. Phys.:Condens. Matter 29 465901 (2017);
          URL http://www.quantum-espresso.org", 
     in publications or presentations arising from this work. More details at
     http://www.quantum-espresso.org/quote

     Parallel version (MPI), running on     5 processors

     MPI processes distributed on     1 nodes
     R & G space division:  proc/nbgrp/npool/nimage =       5
     Waiting for input...
     Reading input from standard input

     Current dimensions of program PWSCF are:
     Max number of different atomic species (ntypx) = 10
     Max number of k-points (npk) =  40000
     Max angular momentum in pseudopotentials (lmaxx) =  3
               file Cu.pbesol-dn-rrkjus_psl.1.0.0.UPF: wavefunction(s)  3D renormalized

     Subspace diagonalization in iterative solution of the eigenvalue problem:
     a serial algorithm will be used


     Parallelization info
     --------------------
     sticks:   dense  smooth     PW     G-vecs:    dense   smooth      PW
     Min          59      59     19                  657      657     128
     Max          59      59     20                  658      658     130
     Sum         295     295     97                 3287     3287     645



     bravais-lattice index     =            2
     lattice parameter (alat)  =       6.8300  a.u.
     unit-cell volume          =      79.6530 (a.u.)^3
     number of atoms/cell      =            1
     number of atomic types    =            1
     number of electrons       =        11.00
     number of Kohn-Sham states=           10
     kinetic-energy cutoff     =      45.0000  Ry
     charge density cutoff     =     180.0000  Ry
     convergence threshold     =      1.0E-08
     mixing beta               =       0.7000
     number of iterations used =            8  plain     mixing
     Exchange-correlation      = PBESOL ( 1  4 10  8 0 0)

     celldm(1)=   6.830000  celldm(2)=   0.000000  celldm(3)=   0.000000
     celldm(4)=   0.000000  celldm(5)=   0.000000  celldm(6)=   0.000000

     crystal axes: (cart. coord. in units of alat)
               a(1) = (  -0.500000   0.000000   0.500000 )  
               a(2) = (   0.000000   0.500000   0.500000 )  
               a(3) = (  -0.500000   0.500000   0.000000 )  

     reciprocal axes: (cart. coord. in units 2 pi/alat)
               b(1) = ( -1.000000 -1.000000  1.000000 )  
               b(2) = (  1.000000  1.000000  1.000000 )  
               b(3) = ( -1.000000  1.000000 -1.000000 )  


     PseudoPot. # 1 for Cu read from file:
     /home/lorenzo/pseudos/Cu/Cu.pbesol-dn-rrkjus_psl.1.0.0.UPF
     MD5 check sum: bfa4c7aafbc42e028d5f4ccf7ceed93d
     Pseudo is Ultrasoft + core correction, Zval = 11.0
     Generated using "atomic" code by A. Dal Corso v.6.3
     Using radial grid of 1199 points,  6 beta functions with: 
                l(1) =   0
                l(2) =   0
                l(3) =   1
                l(4) =   1
                l(5) =   2
                l(6) =   2
     Q(r) pseudized with 0 coefficients 


     atomic species   valence    mass     pseudopotential
        Cu            11.00    63.54600     Cu( 1.00)

     48 Sym. Ops., with inversion, found



   Cartesian axes

     site n.     atom                  positions (alat units)
         1           Cu  tau(   1) = (   0.0000000   0.0000000   0.0000000  )

     number of k points=    29  gaussian smearing, width (Ry)=  0.0100
                       cart. coord. in units 2pi/alat
        k(    1) = (   0.0000000   0.0000000   0.0000000), wk =   0.0039062
        k(    2) = (  -0.1250000   0.1250000  -0.1250000), wk =   0.0312500
        k(    3) = (  -0.2500000   0.2500000  -0.2500000), wk =   0.0312500
        k(    4) = (  -0.3750000   0.3750000  -0.3750000), wk =   0.0312500
        k(    5) = (   0.5000000  -0.5000000   0.5000000), wk =   0.0156250
        k(    6) = (   0.0000000   0.2500000   0.0000000), wk =   0.0234375
        k(    7) = (  -0.1250000   0.3750000  -0.1250000), wk =   0.0937500
        k(    8) = (  -0.2500000   0.5000000  -0.2500000), wk =   0.0937500
        k(    9) = (   0.6250000  -0.3750000   0.6250000), wk =   0.0937500
        k(   10) = (   0.5000000  -0.2500000   0.5000000), wk =   0.0937500
        k(   11) = (   0.3750000  -0.1250000   0.3750000), wk =   0.0937500
        k(   12) = (   0.2500000   0.0000000   0.2500000), wk =   0.0468750
        k(   13) = (   0.0000000   0.5000000   0.0000000), wk =   0.0234375
        k(   14) = (  -0.1250000   0.6250000  -0.1250000), wk =   0.0937500
        k(   15) = (   0.7500000  -0.2500000   0.7500000), wk =   0.0937500
        k(   16) = (   0.6250000  -0.1250000   0.6250000), wk =   0.0937500
        k(   17) = (   0.5000000   0.0000000   0.5000000), wk =   0.0468750
        k(   18) = (   0.0000000   0.7500000   0.0000000), wk =   0.0234375
        k(   19) = (   0.8750000  -0.1250000   0.8750000), wk =   0.0937500
        k(   20) = (   0.7500000   0.0000000   0.7500000), wk =   0.0468750
        k(   21) = (   0.0000000  -1.0000000   0.0000000), wk =   0.0117188
        k(   22) = (  -0.2500000   0.5000000   0.0000000), wk =   0.0937500
        k(   23) = (   0.6250000  -0.3750000   0.8750000), wk =   0.1875000
        k(   24) = (   0.5000000  -0.2500000   0.7500000), wk =   0.0937500
        k(   25) = (   0.7500000  -0.2500000   1.0000000), wk =   0.0937500
        k(   26) = (   0.6250000  -0.1250000   0.8750000), wk =   0.1875000
        k(   27) = (   0.5000000   0.0000000   0.7500000), wk =   0.0937500
        k(   28) = (  -0.2500000  -1.0000000   0.0000000), wk =   0.0468750
        k(   29) = (  -0.5000000  -1.0000000   0.0000000), wk =   0.0234375

     Dense  grid:     3287 G-vectors     FFT dimensions: (  24,  24,  24)

     Estimated max dynamical RAM per process >       4.05 MB

     Estimated total dynamical RAM >      20.25 MB

     Check: negative/imaginary core charge=   -0.000008    0.000000

     Initial potential from superposition of free atoms

     starting charge   10.99979, renormalised to   11.00000
     Starting wfcs are    9 randomized atomic wfcs +    1 random wfcs

     total cpu time spent up to now is        0.9 secs

     Self-consistent Calculation

     iteration #  1     ecut=    45.00 Ry     beta= 0.70
     Davidson diagonalization with overlap
     ethr =  1.00E-02,  avg # of iterations =  3.6

     Threshold (ethr) on eigenvalues was too large:
     Diagonalizing with lowered threshold

     Davidson diagonalization with overlap
     ethr =  6.84E-04,  avg # of iterations =  1.0

     total cpu time spent up to now is        1.3 secs

     total energy              =    -122.36010635 Ry
     Harris-Foulkes estimate   =    -122.41964544 Ry
     estimated scf accuracy    <       0.07502045 Ry

     iteration #  2     ecut=    45.00 Ry     beta= 0.70
     Davidson diagonalization with overlap
     ethr =  6.82E-04,  avg # of iterations =  2.1

     total cpu time spent up to now is        1.4 secs

     total energy              =    -122.36156558 Ry
     Harris-Foulkes estimate   =    -122.46816636 Ry
     estimated scf accuracy    <       0.27886385 Ry

     iteration #  3     ecut=    45.00 Ry     beta= 0.70
     Davidson diagonalization with overlap
     ethr =  6.82E-04,  avg # of iterations =  2.1

     total cpu time spent up to now is        1.6 secs

     total energy              =    -122.40498821 Ry
     Harris-Foulkes estimate   =    -122.40505143 Ry
     estimated scf accuracy    <       0.00015579 Ry

     iteration #  4     ecut=    45.00 Ry     beta= 0.70
     Davidson diagonalization with overlap
     ethr =  1.42E-06,  avg # of iterations =  2.4

     total cpu time spent up to now is        1.8 secs

     total energy              =    -122.40505966 Ry
     Harris-Foulkes estimate   =    -122.40506511 Ry
     estimated scf accuracy    <       0.00001497 Ry

     iteration #  5     ecut=    45.00 Ry     beta= 0.70
     Davidson diagonalization with overlap
     ethr =  1.36E-07,  avg # of iterations =  1.2

     total cpu time spent up to now is        2.0 secs

     total energy              =    -122.40506262 Ry
     Harris-Foulkes estimate   =    -122.40506282 Ry
     estimated scf accuracy    <       0.00000054 Ry

     iteration #  6     ecut=    45.00 Ry     beta= 0.70
     Davidson diagonalization with overlap
     ethr =  4.91E-09,  avg # of iterations =  1.6

     total cpu time spent up to now is        2.2 secs

     End of self-consistent calculation

          k = 0.0000 0.0000 0.0000 (   411 PWs)   bands (ev):

     3.0516   9.5048   9.5048   9.5048  10.3396  10.3396  35.3888  37.7570
    37.7570  37.7570

          k =-0.1250 0.1250-0.1250 (   402 PWs)   bands (ev):

     3.6146   9.3924   9.6001   9.6001  10.3107  10.3107  31.3090  35.9200
    36.4877  36.4877

          k =-0.2500 0.2500-0.2500 (   395 PWs)   bands (ev):

     5.1765   9.2387   9.6633   9.6633  10.4252  10.4252  24.9053  35.1734
    35.2430  35.2430

          k =-0.3750 0.3750-0.3750 (   407 PWs)   bands (ev):

     6.9200   9.5406   9.5406   9.8613  10.7530  10.7530  19.3518  34.2124
    34.6411  34.6411

          k = 0.5000-0.5000 0.5000 (   410 PWs)   bands (ev):

     7.3975   9.4698   9.4698  10.9181  10.9181  11.4127  16.2349  33.7963
    34.5125  34.5125

          k = 0.0000 0.2500 0.0000 (   399 PWs)   bands (ev):

     3.8003   9.2868   9.6851   9.6851  10.1483  10.4204  33.4992  33.7095
    33.7095  35.5443

          k =-0.1250 0.3750-0.1250 (   400 PWs)   bands (ev):

     5.0308   9.0689   9.7173   9.8323  10.2168  10.5438  27.3556  31.9111
    33.3074  35.7268

          k =-0.2500 0.5000-0.2500 (   397 PWs)   bands (ev):

     6.8194   9.0922   9.4764   9.7724  10.8123  10.9537  21.4403  31.1956
    31.9267  33.5658

          k = 0.6250-0.3750 0.6250 (   405 PWs)   bands (ev):

     7.6579   9.2638   9.6599   9.8256  10.9297  12.6035  16.9099  29.9402
    31.7016  33.3006

          k = 0.5000-0.2500 0.5000 (   406 PWs)   bands (ev):

     7.5452   9.3377   9.6593   9.6736  10.7095  12.0653  18.1612  28.7819
    33.5013  34.1483

          k = 0.3750-0.1250 0.3750 (   402 PWs)   bands (ev):

     6.2476   9.0982   9.5480   9.7901  10.2825  10.9987  23.3281  28.6987
    36.0657  36.4907

          k = 0.2500 0.0000 0.2500 (   399 PWs)   bands (ev):

     4.5175   9.2116   9.6791   9.7602  10.1308  10.5123  29.2201  29.9287
    38.0877  39.0995

          k = 0.0000 0.5000 0.0000 (   415 PWs)   bands (ev):

     5.8211   8.7753   9.8632  10.1753  10.1753  10.6160  29.5373  29.5373
    30.8490  31.5037

          k =-0.1250 0.6250-0.1250 (   410 PWs)   bands (ev):

     7.1487   8.5792   9.6790  10.2694  10.8390  11.0932  24.3895  27.6102
    28.3463  32.0133

          k = 0.7500-0.2500 0.7500 (   404 PWs)   bands (ev):

     8.0526   8.6404   9.5106  10.1519  10.9595  13.4214  19.1653  25.0262
    28.5381  32.1095

          k = 0.6250-0.1250 0.6250 (   408 PWs)   bands (ev):

     8.3039   8.8251   9.3383  10.0528  10.7305  14.6047  17.7136  23.4334
    30.1351  32.7742

          k = 0.5000 0.0000 0.5000 (   407 PWs)   bands (ev):

     7.7448   8.9848   9.1967  10.0086  10.3408  12.2092  22.1651  23.3638
    32.9131  34.2390

          k = 0.0000 0.7500 0.0000 (   416 PWs)   bands (ev):

     7.4712   8.2840  10.7731  10.7731  10.8151  11.2287  23.8761  26.6145
    26.6145  30.4022

          k = 0.8750-0.1250 0.8750 (   413 PWs)   bands (ev):

     7.7820   8.2362  10.4076  10.6940  11.0020  13.7664  21.2050  22.6910
    26.3362  31.2288

          k = 0.7500 0.0000 0.7500 (   409 PWs)   bands (ev):

     8.2021   8.4365   9.7525  10.4741  10.8653  16.7819  18.1903  20.2957
    27.6010  31.7860

          k = 0.0000-1.0000 0.0000 (   412 PWs)   bands (ev):

     7.6101   8.0859  10.8992  11.0644  11.0644  13.9130  19.5831  25.5294
    25.5294  30.0605

          k =-0.2500 0.5000 0.0000 (   407 PWs)   bands (ev):

     6.4153   8.8537   9.4938  10.1851  10.2214  11.0286  25.7711  26.4451
    31.7397  36.3488

          k = 0.6250-0.3750 0.8750 (   408 PWs)   bands (ev):

     7.8378   8.8969   9.2209  10.0581  10.6828  12.3582  20.4550  25.9196
    28.8364  36.4086

          k = 0.5000-0.2500 0.7500 (   414 PWs)   bands (ev):

     8.1779   8.8903   9.4191   9.9554  10.8619  14.5740  16.7220  26.6580
    27.0127  36.1299

          k = 0.7500-0.2500 1.0000 (   410 PWs)   bands (ev):

     7.8788   8.4639   9.6463  10.6144  10.7698  12.7135  23.3724  24.1063
    24.5256  34.6525

          k = 0.6250-0.1250 0.8750 (   406 PWs)   bands (ev):

     8.3170   8.5871   9.3877  10.3642  10.9433  15.7985  18.8325  22.2264
    24.4578  35.7752

          k = 0.5000 0.0000 0.7500 (   405 PWs)   bands (ev):

     8.5507   8.7606   9.0015  10.2502  10.7744  14.9157  19.6340  21.5901
    26.1784  36.9303

          k =-0.2500-1.0000 0.0000 (   412 PWs)   bands (ev):

     7.9363   8.3028  10.1120  10.6477  11.0645  15.5389  19.8739  22.4639
    23.3667  34.0946

          k =-0.5000-1.0000 0.0000 (   396 PWs)   bands (ev):

     8.3622   8.9785   8.9785  10.2957  11.0654  18.6542  18.6542  20.7842
    21.2347  40.8534

     the Fermi energy is    12.4490 ev

!    total energy              =    -122.40506273 Ry
     Harris-Foulkes estimate   =    -122.40506273 Ry
     estimated scf accuracy    <          1.4E-09 Ry

     The total energy is the sum of the following terms:

     one-electron contribution =     -27.60077694 Ry
     hartree contribution      =      30.53553628 Ry
     xc contribution           =     -44.11416962 Ry
     ewald contribution        =     -81.22522862 Ry
     smearing contrib. (-TS)   =      -0.00042383 Ry

     convergence has been achieved in   6 iterations

     Forces acting on atoms (cartesian axes, Ry/au):

     atom    1 type  1   force =     0.00000000    0.00000000    0.00000000

     Total force =     0.000000     Total SCF correction =     0.000000


     Computing stress (Cartesian axis) and pressure

          total   stress  (Ry/bohr**3)                   (kbar)     P=  -67.95
  -0.00046194   0.00000000   0.00000000        -67.95      0.00      0.00
   0.00000000  -0.00046194  -0.00000000          0.00    -67.95     -0.00
   0.00000000  -0.00000000  -0.00046194          0.00     -0.00    -67.95


     Writing output data file Cu.save/

     init_run     :      0.20s CPU      0.21s WALL (       1 calls)
     electrons    :      1.17s CPU      1.27s WALL (       1 calls)
     forces       :      0.02s CPU      0.02s WALL (       1 calls)
     stress       :      0.07s CPU      0.07s WALL (       1 calls)

     Called by init_run:
     wfcinit      :      0.07s CPU      0.07s WALL (       1 calls)
     potinit      :      0.01s CPU      0.01s WALL (       1 calls)
     hinit0       :      0.12s CPU      0.12s WALL (       1 calls)

     Called by electrons:
     c_bands      :      0.93s CPU      1.01s WALL (       7 calls)
     sum_band     :      0.19s CPU      0.20s WALL (       7 calls)
     v_of_rho     :      0.02s CPU      0.02s WALL (       7 calls)
     newd         :      0.02s CPU      0.03s WALL (       7 calls)
     mix_rho      :      0.00s CPU      0.00s WALL (       7 calls)

     Called by c_bands:
     init_us_2    :      0.03s CPU      0.03s WALL (     493 calls)
     cegterg      :      0.90s CPU      0.97s WALL (     203 calls)

     Called by sum_band:
     sum_band:bec :      0.00s CPU      0.00s WALL (     203 calls)
     addusdens    :      0.02s CPU      0.02s WALL (       7 calls)

     Called by *egterg:
     h_psi        :      0.73s CPU      0.79s WALL (     640 calls)
     s_psi        :      0.02s CPU      0.02s WALL (     640 calls)
     g_psi        :      0.00s CPU      0.00s WALL (     408 calls)
     cdiaghg      :      0.11s CPU      0.11s WALL (     582 calls)

     Called by h_psi:
     h_psi:pot    :      0.73s CPU      0.79s WALL (     640 calls)
     h_psi:calbec :      0.03s CPU      0.03s WALL (     640 calls)
     vloc_psi     :      0.68s CPU      0.73s WALL (     640 calls)
     add_vuspsi   :      0.02s CPU      0.02s WALL (     640 calls)

     General routines
     calbec       :      0.05s CPU      0.05s WALL (     988 calls)
     fft          :      0.01s CPU      0.02s WALL (     104 calls)
     ffts         :      0.00s CPU      0.00s WALL (       7 calls)
     fftw         :      0.76s CPU      0.81s WALL (   12248 calls)

     Parallel routines
     fft_scatt_xy :      0.07s CPU      0.07s WALL (   12359 calls)
     fft_scatt_yz :      0.25s CPU      0.26s WALL (   12359 calls)

     PWSCF        :     2.18s CPU         2.33s WALL


   This run was terminated on:  23:22:59  25Mar2024            

=------------------------------------------------------------------------------=
   JOB DONE.
=------------------------------------------------------------------------------=
