
     Program PWSCF v.6.3MaX starts on 25Mar2024 at 23:13:16 

     This program is part of the open-source Quantum ESPRESSO suite
     for quantum simulation of materials; please cite
         "P. Giannozzi et al., J. Phys.:Condens. Matter 21 395502 (2009);
         "P. Giannozzi et al., J. Phys.:Condens. Matter 29 465901 (2017);
          URL http://www.quantum-espresso.org", 
     in publications or presentations arising from this work. More details at
     http://www.quantum-espresso.org/quote

     Parallel version (MPI), running on     5 processors

     MPI processes distributed on     1 nodes
     R & G space division:  proc/nbgrp/npool/nimage =       5
     Waiting for input...
     Reading input from standard input

     Current dimensions of program PWSCF are:
     Max number of different atomic species (ntypx) = 10
     Max number of k-points (npk) =  40000
     Max angular momentum in pseudopotentials (lmaxx) =  3
               file Cu.pbesol-dn-rrkjus_psl.1.0.0.UPF: wavefunction(s)  3D renormalized

     Subspace diagonalization in iterative solution of the eigenvalue problem:
     a serial algorithm will be used


     Parallelization info
     --------------------
     sticks:   dense  smooth     PW     G-vecs:    dense   smooth      PW
     Min          24      24     11                  187      187      51
     Max          25      25     11                  191      191      52
     Sum         121     121     55                  941      941     259



     bravais-lattice index     =            2
     lattice parameter (alat)  =       6.8300  a.u.
     unit-cell volume          =      79.6530 (a.u.)^3
     number of atoms/cell      =            1
     number of atomic types    =            1
     number of electrons       =        11.00
     number of Kohn-Sham states=           10
     kinetic-energy cutoff     =      20.0000  Ry
     charge density cutoff     =      80.0000  Ry
     convergence threshold     =      1.0E-08
     mixing beta               =       0.7000
     number of iterations used =            8  plain     mixing
     Exchange-correlation      = PBESOL ( 1  4 10  8 0 0)

     celldm(1)=   6.830000  celldm(2)=   0.000000  celldm(3)=   0.000000
     celldm(4)=   0.000000  celldm(5)=   0.000000  celldm(6)=   0.000000

     crystal axes: (cart. coord. in units of alat)
               a(1) = (  -0.500000   0.000000   0.500000 )  
               a(2) = (   0.000000   0.500000   0.500000 )  
               a(3) = (  -0.500000   0.500000   0.000000 )  

     reciprocal axes: (cart. coord. in units 2 pi/alat)
               b(1) = ( -1.000000 -1.000000  1.000000 )  
               b(2) = (  1.000000  1.000000  1.000000 )  
               b(3) = ( -1.000000  1.000000 -1.000000 )  


     PseudoPot. # 1 for Cu read from file:
     /home/lorenzo/pseudos/Cu/Cu.pbesol-dn-rrkjus_psl.1.0.0.UPF
     MD5 check sum: bfa4c7aafbc42e028d5f4ccf7ceed93d
     Pseudo is Ultrasoft + core correction, Zval = 11.0
     Generated using "atomic" code by A. Dal Corso v.6.3
     Using radial grid of 1199 points,  6 beta functions with: 
                l(1) =   0
                l(2) =   0
                l(3) =   1
                l(4) =   1
                l(5) =   2
                l(6) =   2
     Q(r) pseudized with 0 coefficients 


     atomic species   valence    mass     pseudopotential
        Cu            11.00    63.54600     Cu( 1.00)

     48 Sym. Ops., with inversion, found



   Cartesian axes

     site n.     atom                  positions (alat units)
         1           Cu  tau(   1) = (   0.0000000   0.0000000   0.0000000  )

     number of k points=    16  gaussian smearing, width (Ry)=  0.0100
                       cart. coord. in units 2pi/alat
        k(    1) = (   0.0000000   0.0000000   0.0000000), wk =   0.0092593
        k(    2) = (  -0.1666667   0.1666667  -0.1666667), wk =   0.0740741
        k(    3) = (  -0.3333333   0.3333333  -0.3333333), wk =   0.0740741
        k(    4) = (   0.5000000  -0.5000000   0.5000000), wk =   0.0370370
        k(    5) = (   0.0000000   0.3333333   0.0000000), wk =   0.0555556
        k(    6) = (  -0.1666667   0.5000000  -0.1666667), wk =   0.2222222
        k(    7) = (   0.6666667  -0.3333333   0.6666667), wk =   0.2222222
        k(    8) = (   0.5000000  -0.1666667   0.5000000), wk =   0.2222222
        k(    9) = (   0.3333333   0.0000000   0.3333333), wk =   0.1111111
        k(   10) = (   0.0000000   0.6666667   0.0000000), wk =   0.0555556
        k(   11) = (   0.8333333  -0.1666667   0.8333333), wk =   0.2222222
        k(   12) = (   0.6666667  -0.0000000   0.6666667), wk =   0.1111111
        k(   13) = (   0.0000000  -1.0000000   0.0000000), wk =   0.0277778
        k(   14) = (   0.6666667  -0.3333333   1.0000000), wk =   0.2222222
        k(   15) = (   0.5000000  -0.1666667   0.8333333), wk =   0.2222222
        k(   16) = (  -0.3333333  -1.0000000   0.0000000), wk =   0.1111111

     Dense  grid:      941 G-vectors     FFT dimensions: (  15,  15,  15)

     Estimated max dynamical RAM per process >       1.55 MB

     Estimated total dynamical RAM >       7.76 MB

     Check: negative/imaginary core charge=   -0.000088    0.000000

     Initial potential from superposition of free atoms

     starting charge   10.99979, renormalised to   11.00000
     Starting wfcs are    9 randomized atomic wfcs +    1 random wfcs

     total cpu time spent up to now is        0.8 secs

     Self-consistent Calculation

     iteration #  1     ecut=    20.00 Ry     beta= 0.70
     Davidson diagonalization with overlap
     ethr =  1.00E-02,  avg # of iterations =  3.7

     total cpu time spent up to now is        0.9 secs

     total energy              =    -121.26641717 Ry
     Harris-Foulkes estimate   =    -121.87251701 Ry
     estimated scf accuracy    <       0.73049091 Ry

     iteration #  2     ecut=    20.00 Ry     beta= 0.70
     Davidson diagonalization with overlap
     ethr =  6.64E-03,  avg # of iterations =  2.1

     total cpu time spent up to now is        0.9 secs

     total energy              =    -121.56461801 Ry
     Harris-Foulkes estimate   =    -122.04058853 Ry
     estimated scf accuracy    <       0.98860827 Ry

     iteration #  3     ecut=    20.00 Ry     beta= 0.70
     Davidson diagonalization with overlap
     ethr =  6.64E-03,  avg # of iterations =  1.6

     total cpu time spent up to now is        0.9 secs

     total energy              =    -121.67614571 Ry
     Harris-Foulkes estimate   =    -121.69666338 Ry
     estimated scf accuracy    <       0.02821399 Ry

     iteration #  4     ecut=    20.00 Ry     beta= 0.70
     Davidson diagonalization with overlap
     ethr =  2.56E-04,  avg # of iterations =  2.2

     total cpu time spent up to now is        1.0 secs

     total energy              =    -121.68161630 Ry
     Harris-Foulkes estimate   =    -121.70731170 Ry
     estimated scf accuracy    <       0.06502321 Ry

     iteration #  5     ecut=    20.00 Ry     beta= 0.70
     Davidson diagonalization with overlap
     ethr =  2.56E-04,  avg # of iterations =  2.0

     total cpu time spent up to now is        1.0 secs

     total energy              =    -121.69131622 Ry
     Harris-Foulkes estimate   =    -121.69122426 Ry
     estimated scf accuracy    <       0.00049028 Ry

     iteration #  6     ecut=    20.00 Ry     beta= 0.70
     Davidson diagonalization with overlap
     ethr =  4.46E-06,  avg # of iterations =  2.2

     total cpu time spent up to now is        1.1 secs

     total energy              =    -121.69101624 Ry
     Harris-Foulkes estimate   =    -121.69136877 Ry
     estimated scf accuracy    <       0.00080202 Ry

     iteration #  7     ecut=    20.00 Ry     beta= 0.70
     Davidson diagonalization with overlap
     ethr =  4.46E-06,  avg # of iterations =  1.6

     total cpu time spent up to now is        1.1 secs

     total energy              =    -121.69115723 Ry
     Harris-Foulkes estimate   =    -121.69115727 Ry
     estimated scf accuracy    <       0.00000032 Ry

     iteration #  8     ecut=    20.00 Ry     beta= 0.70
     Davidson diagonalization with overlap
     ethr =  2.93E-09,  avg # of iterations =  3.2

     total cpu time spent up to now is        1.2 secs

     total energy              =    -121.69115835 Ry
     Harris-Foulkes estimate   =    -121.69115838 Ry
     estimated scf accuracy    <       0.00000012 Ry

     iteration #  9     ecut=    20.00 Ry     beta= 0.70
     Davidson diagonalization with overlap
     ethr =  1.08E-09,  avg # of iterations =  1.0

     total cpu time spent up to now is        1.2 secs

     End of self-consistent calculation

          k = 0.0000 0.0000 0.0000 (   113 PWs)   bands (ev):

     3.1430   8.6198   8.6198   8.6198   9.3220   9.3220  35.7165  37.6422
    37.6422  37.6422

          k =-0.1667 0.1667-0.1667 (   122 PWs)   bands (ev):

     4.1163   8.0384   8.3669   8.3669   9.0649   9.0649  29.4742  36.0495
    36.3713  36.3713

          k =-0.3333 0.3333-0.3333 (   117 PWs)   bands (ev):

     6.2247   8.4321   8.4321   8.8557   9.5819   9.5819  21.2776  34.8345
    34.9548  34.9548

          k = 0.5000-0.5000 0.5000 (   120 PWs)   bands (ev):

     6.6593   8.0171   8.0171   9.8154   9.8154  11.4860  16.1188  34.0328
    34.3425  34.3425

          k = 0.0000 0.3333 0.0000 (   125 PWs)   bands (ev):

     4.4334   7.6893   8.3983   8.3983   8.8106   9.1175  32.4547  32.4547
    33.5687  34.7781

          k =-0.1667 0.5000-0.1667 (   120 PWs)   bands (ev):

     6.2149   7.5764   8.2557   8.6844   9.8091   9.8237  24.3963  30.4794
    31.9525  33.5169

          k = 0.6667-0.3333 0.6667 (   119 PWs)   bands (ev):

     7.0098   7.7936   8.4673   8.5925  10.0295  12.6523  17.4335  28.4752
    30.7060  33.2813

          k = 0.5000-0.1667 0.5000 (   121 PWs)   bands (ev):

     7.0191   7.7883   8.4660   8.5844   9.2300  11.6517  19.5489  26.8222
    33.4262  34.4917

          k = 0.3333 0.0000 0.3333 (   127 PWs)   bands (ev):

     5.5651   7.4521   8.2118   8.5160   8.6697   9.6655  26.8479  27.4755
    37.5705  38.0748

          k = 0.0000 0.6667 0.0000 (   129 PWs)   bands (ev):

     6.4935   6.8071   8.9848   8.9848   9.4098   9.7336  26.3431  27.4425
    27.4425  31.3182

          k = 0.8333-0.1667 0.8333 (   120 PWs)   bands (ev):

     6.7406   6.9936   9.0602   9.3164  10.0929  13.4906  21.3871  22.3799
    26.9727  32.0316

          k = 0.6667-0.0000 0.6667 (   122 PWs)   bands (ev):

     7.0398   7.7574   8.2823   8.7884   9.4708  15.6212  18.4124  20.8791
    29.1786  32.7815

          k = 0.0000-1.0000 0.0000 (   116 PWs)   bands (ev):

     6.5273   6.6495   9.9200  10.1772  10.1772  13.9780  19.6167  25.5056
    25.5056  30.7102

          k = 0.6667-0.3333 1.0000 (   122 PWs)   bands (ev):

     7.2436   7.2997   8.0363   9.0824   9.3570  12.0099  22.7864  23.7614
    27.3822  38.0765

          k = 0.5000-0.1667 0.8333 (   114 PWs)   bands (ev):

     7.5828   7.6819   8.3193   9.0631   9.9853  16.0997  17.2462  24.4413
    24.5520  37.8455

          k =-0.3333-1.0000 0.0000 (   112 PWs)   bands (ev):

     7.2103   7.4137   8.9159   9.4657  10.3870  16.5574  20.2648  21.2786
    22.5092  37.3089

     the Fermi energy is    12.0406 ev

!    total energy              =    -121.69115836 Ry
     Harris-Foulkes estimate   =    -121.69115836 Ry
     estimated scf accuracy    <          2.2E-09 Ry

     The total energy is the sum of the following terms:

     one-electron contribution =     -25.82805809 Ry
     hartree contribution      =      28.97036849 Ry
     xc contribution           =     -43.60764417 Ry
     ewald contribution        =     -81.22522858 Ry
     smearing contrib. (-TS)   =      -0.00059601 Ry

     convergence has been achieved in   9 iterations

     Forces acting on atoms (cartesian axes, Ry/au):

     atom    1 type  1   force =     0.00000000    0.00000000    0.00000000

     Total force =     0.000000     Total SCF correction =     0.000000


     Computing stress (Cartesian axis) and pressure

          total   stress  (Ry/bohr**3)                   (kbar)     P=-5670.72
  -0.03854876  -0.00000000  -0.00000000      -5670.72     -0.00     -0.00
  -0.00000000  -0.03854876   0.00000000         -0.00  -5670.72      0.00
  -0.00000000   0.00000000  -0.03854876         -0.00      0.00  -5670.72


     Writing output data file Cu.save/

     init_run     :      0.08s CPU      0.09s WALL (       1 calls)
     electrons    :      0.38s CPU      0.44s WALL (       1 calls)
     forces       :      0.01s CPU      0.01s WALL (       1 calls)
     stress       :      0.02s CPU      0.02s WALL (       1 calls)

     Called by init_run:
     wfcinit      :      0.01s CPU      0.01s WALL (       1 calls)
     potinit      :      0.00s CPU      0.00s WALL (       1 calls)
     hinit0       :      0.07s CPU      0.07s WALL (       1 calls)

     Called by electrons:
     c_bands      :      0.30s CPU      0.35s WALL (       9 calls)
     sum_band     :      0.05s CPU      0.06s WALL (       9 calls)
     v_of_rho     :      0.01s CPU      0.01s WALL (      10 calls)
     newd         :      0.01s CPU      0.01s WALL (      10 calls)
     mix_rho      :      0.00s CPU      0.00s WALL (       9 calls)

     Called by c_bands:
     init_us_2    :      0.01s CPU      0.01s WALL (     336 calls)
     cegterg      :      0.29s CPU      0.34s WALL (     144 calls)

     Called by sum_band:
     sum_band:bec :      0.00s CPU      0.00s WALL (     144 calls)
     addusdens    :      0.01s CPU      0.01s WALL (       9 calls)

     Called by *egterg:
     h_psi        :      0.18s CPU      0.22s WALL (     474 calls)
     s_psi        :      0.01s CPU      0.01s WALL (     474 calls)
     g_psi        :      0.00s CPU      0.00s WALL (     314 calls)
     cdiaghg      :      0.07s CPU      0.08s WALL (     458 calls)

     Called by h_psi:
     h_psi:pot    :      0.18s CPU      0.22s WALL (     474 calls)
     h_psi:calbec :      0.01s CPU      0.01s WALL (     474 calls)
     vloc_psi     :      0.16s CPU      0.19s WALL (     474 calls)
     add_vuspsi   :      0.01s CPU      0.01s WALL (     474 calls)

     General routines
     calbec       :      0.01s CPU      0.02s WALL (     698 calls)
     fft          :      0.00s CPU      0.00s WALL (     136 calls)
     ffts         :      0.00s CPU      0.00s WALL (       9 calls)
     fftw         :      0.18s CPU      0.21s WALL (    8574 calls)

     Parallel routines
     fft_scatt_xy :      0.02s CPU      0.02s WALL (    8719 calls)
     fft_scatt_yz :      0.08s CPU      0.09s WALL (    8719 calls)

     PWSCF        :     1.20s CPU         1.30s WALL


   This run was terminated on:  23:13:17  25Mar2024            

=------------------------------------------------------------------------------=
   JOB DONE.
=------------------------------------------------------------------------------=
