
     Program PWSCF v.6.3MaX starts on 25Mar2024 at 23:19: 1 

     This program is part of the open-source Quantum ESPRESSO suite
     for quantum simulation of materials; please cite
         "P. Giannozzi et al., J. Phys.:Condens. Matter 21 395502 (2009);
         "P. Giannozzi et al., J. Phys.:Condens. Matter 29 465901 (2017);
          URL http://www.quantum-espresso.org", 
     in publications or presentations arising from this work. More details at
     http://www.quantum-espresso.org/quote

     Parallel version (MPI), running on     5 processors

     MPI processes distributed on     1 nodes
     R & G space division:  proc/nbgrp/npool/nimage =       5
     Waiting for input...
     Reading input from standard input

     Current dimensions of program PWSCF are:
     Max number of different atomic species (ntypx) = 10
     Max number of k-points (npk) =  40000
     Max angular momentum in pseudopotentials (lmaxx) =  3
               file Cu.pbe-dn-kjpaw_psl.1.0.0.UPF: wavefunction(s)  4S 3D renormalized

     Subspace diagonalization in iterative solution of the eigenvalue problem:
     a serial algorithm will be used


     Parallelization info
     --------------------
     sticks:   dense  smooth     PW     G-vecs:    dense   smooth      PW
     Min          43      43     17                  445      445     106
     Max          45      45     17                  446      446     107
     Sum         223     223     85                 2229     2229     531



     bravais-lattice index     =            2
     lattice parameter (alat)  =       6.8300  a.u.
     unit-cell volume          =      79.6530 (a.u.)^3
     number of atoms/cell      =            1
     number of atomic types    =            1
     number of electrons       =        11.00
     number of Kohn-Sham states=           10
     kinetic-energy cutoff     =      35.0000  Ry
     charge density cutoff     =     140.0000  Ry
     convergence threshold     =      1.0E-08
     mixing beta               =       0.7000
     number of iterations used =            8  plain     mixing
     Exchange-correlation      = SLA PW PBX PBC ( 1  4  3  4 0 0)

     celldm(1)=   6.830000  celldm(2)=   0.000000  celldm(3)=   0.000000
     celldm(4)=   0.000000  celldm(5)=   0.000000  celldm(6)=   0.000000

     crystal axes: (cart. coord. in units of alat)
               a(1) = (  -0.500000   0.000000   0.500000 )  
               a(2) = (   0.000000   0.500000   0.500000 )  
               a(3) = (  -0.500000   0.500000   0.000000 )  

     reciprocal axes: (cart. coord. in units 2 pi/alat)
               b(1) = ( -1.000000 -1.000000  1.000000 )  
               b(2) = (  1.000000  1.000000  1.000000 )  
               b(3) = ( -1.000000  1.000000 -1.000000 )  


     PseudoPot. # 1 for Cu read from file:
     /home/lorenzo/pseudos/Cu/Cu.pbe-dn-kjpaw_psl.1.0.0.UPF
     MD5 check sum: cfffd1f38ee05704b3e17f46f1730a6f
     Pseudo is Projector augmented-wave + core cor, Zval = 11.0
     Generated using "atomic" code by A. Dal Corso v.6.3
     Shape of augmentation charge: PSQ
     Using radial grid of 1199 points,  6 beta functions with: 
                l(1) =   0
                l(2) =   0
                l(3) =   1
                l(4) =   1
                l(5) =   2
                l(6) =   2
     Q(r) pseudized with 0 coefficients 


     atomic species   valence    mass     pseudopotential
        Cu            11.00    63.54600     Cu( 1.00)

     48 Sym. Ops., with inversion, found



   Cartesian axes

     site n.     atom                  positions (alat units)
         1           Cu  tau(   1) = (   0.0000000   0.0000000   0.0000000  )

     number of k points=    35  gaussian smearing, width (Ry)=  0.0100
                       cart. coord. in units 2pi/alat
        k(    1) = (   0.0000000   0.0000000   0.0000000), wk =   0.0027435
        k(    2) = (  -0.1111111   0.1111111  -0.1111111), wk =   0.0219479
        k(    3) = (  -0.2222222   0.2222222  -0.2222222), wk =   0.0219479
        k(    4) = (  -0.3333333   0.3333333  -0.3333333), wk =   0.0219479
        k(    5) = (  -0.4444444   0.4444444  -0.4444444), wk =   0.0219479
        k(    6) = (   0.0000000   0.2222222   0.0000000), wk =   0.0164609
        k(    7) = (  -0.1111111   0.3333333  -0.1111111), wk =   0.0658436
        k(    8) = (  -0.2222222   0.4444444  -0.2222222), wk =   0.0658436
        k(    9) = (  -0.3333333   0.5555556  -0.3333333), wk =   0.0658436
        k(   10) = (   0.5555556  -0.3333333   0.5555556), wk =   0.0658436
        k(   11) = (   0.4444444  -0.2222222   0.4444444), wk =   0.0658436
        k(   12) = (   0.3333333  -0.1111111   0.3333333), wk =   0.0658436
        k(   13) = (   0.2222222  -0.0000000   0.2222222), wk =   0.0329218
        k(   14) = (   0.0000000   0.4444444   0.0000000), wk =   0.0164609
        k(   15) = (  -0.1111111   0.5555556  -0.1111111), wk =   0.0658436
        k(   16) = (  -0.2222222   0.6666667  -0.2222222), wk =   0.0658436
        k(   17) = (   0.6666667  -0.2222222   0.6666667), wk =   0.0658436
        k(   18) = (   0.5555556  -0.1111111   0.5555556), wk =   0.0658436
        k(   19) = (   0.4444444   0.0000000   0.4444444), wk =   0.0329218
        k(   20) = (   0.0000000   0.6666667   0.0000000), wk =   0.0164609
        k(   21) = (  -0.1111111   0.7777778  -0.1111111), wk =   0.0658436
        k(   22) = (   0.7777778  -0.1111111   0.7777778), wk =   0.0658436
        k(   23) = (   0.6666667  -0.0000000   0.6666667), wk =   0.0329218
        k(   24) = (   0.0000000   0.8888889   0.0000000), wk =   0.0164609
        k(   25) = (   0.8888889   0.0000000   0.8888889), wk =   0.0329218
        k(   26) = (  -0.2222222   0.4444444   0.0000000), wk =   0.0658436
        k(   27) = (  -0.3333333   0.5555556  -0.1111111), wk =   0.1316872
        k(   28) = (   0.5555556  -0.3333333   0.7777778), wk =   0.1316872
        k(   29) = (  -0.2222222   0.6666667   0.0000000), wk =   0.0658436
        k(   30) = (   0.6666667  -0.2222222   0.8888889), wk =   0.1316872
        k(   31) = (   0.5555556  -0.1111111   0.7777778), wk =   0.1316872
        k(   32) = (   0.4444444   0.0000000   0.6666667), wk =   0.0658436
        k(   33) = (   0.7777778  -0.1111111   1.0000000), wk =   0.0658436
        k(   34) = (   0.6666667  -0.0000000   0.8888889), wk =   0.0658436
        k(   35) = (   0.5555556  -0.1111111   1.0000000), wk =   0.0658436

     Dense  grid:     2229 G-vectors     FFT dimensions: (  20,  20,  20)

     Estimated max dynamical RAM per process >       3.01 MB

     Estimated total dynamical RAM >      15.05 MB

     Check: negative/imaginary core charge=   -0.000002    0.000000

     Initial potential from superposition of free atoms

     starting charge   10.99977, renormalised to   11.00000
     Starting wfcs are    9 randomized atomic wfcs +    1 random wfcs
     Checking if some PAW data can be deallocated... 

     total cpu time spent up to now is        1.1 secs

     Self-consistent Calculation

     iteration #  1     ecut=    35.00 Ry     beta= 0.70
     Davidson diagonalization with overlap
     ethr =  1.00E-02,  avg # of iterations =  3.7

     Threshold (ethr) on eigenvalues was too large:
     Diagonalizing with lowered threshold

     Davidson diagonalization with overlap
     ethr =  5.29E-04,  avg # of iterations =  1.0

     total cpu time spent up to now is        1.5 secs

     total energy              =    -213.05925120 Ry
     Harris-Foulkes estimate   =    -213.10461749 Ry
     estimated scf accuracy    <       0.05786018 Ry

     iteration #  2     ecut=    35.00 Ry     beta= 0.70
     Davidson diagonalization with overlap
     ethr =  5.26E-04,  avg # of iterations =  2.1

     total cpu time spent up to now is        1.8 secs

     total energy              =    -213.06123632 Ry
     Harris-Foulkes estimate   =    -213.13950261 Ry
     estimated scf accuracy    <       0.20109756 Ry

     iteration #  3     ecut=    35.00 Ry     beta= 0.70
     Davidson diagonalization with overlap
     ethr =  5.26E-04,  avg # of iterations =  2.0

     total cpu time spent up to now is        2.1 secs

     total energy              =    -213.09323188 Ry
     Harris-Foulkes estimate   =    -213.09326299 Ry
     estimated scf accuracy    <       0.00008148 Ry

     iteration #  4     ecut=    35.00 Ry     beta= 0.70
     Davidson diagonalization with overlap
     ethr =  7.41E-07,  avg # of iterations =  2.4

     total cpu time spent up to now is        2.4 secs

     total energy              =    -213.09327812 Ry
     Harris-Foulkes estimate   =    -213.09328612 Ry
     estimated scf accuracy    <       0.00002199 Ry

     iteration #  5     ecut=    35.00 Ry     beta= 0.70
     Davidson diagonalization with overlap
     ethr =  2.00E-07,  avg # of iterations =  1.1

     total cpu time spent up to now is        2.6 secs

     total energy              =    -213.09328217 Ry
     Harris-Foulkes estimate   =    -213.09328234 Ry
     estimated scf accuracy    <       0.00000045 Ry

     iteration #  6     ecut=    35.00 Ry     beta= 0.70
     Davidson diagonalization with overlap
     ethr =  4.10E-09,  avg # of iterations =  2.0

     total cpu time spent up to now is        2.9 secs

     End of self-consistent calculation

          k = 0.0000 0.0000 0.0000 (   283 PWs)   bands (ev):

     3.2715   9.6949   9.6949   9.6949  10.5266  10.5266  35.5903  37.9912
    37.9912  37.9912

          k =-0.1111 0.1111-0.1111 (   280 PWs)   bands (ev):

     3.7178   9.6044   9.7730   9.7730  10.5009  10.5009  32.2790  36.1889
    36.9251  36.9251

          k =-0.2222 0.2222-0.2222 (   283 PWs)   bands (ev):

     4.9837   9.4441   9.8606   9.8606  10.5570  10.5570  26.5098  35.5915
    35.7298  35.7298

          k =-0.3333 0.3333-0.3333 (   287 PWs)   bands (ev):

     6.6544   9.6659   9.7752   9.7752  10.8290  10.8290  21.2919  34.7083
    35.0323  35.0323

          k =-0.4444 0.4444-0.4444 (   269 PWs)   bands (ev):

     7.5302   9.6749   9.6749  11.0684  11.0684  11.1265  17.2444  34.0832
    34.7826  34.7826

          k = 0.0000 0.2222 0.0000 (   283 PWs)   bands (ev):

     3.8654   9.5215   9.8371   9.8371  10.3729  10.5906  34.0087  34.4848
    34.4848  36.1199

          k =-0.1111 0.3333-0.1111 (   289 PWs)   bands (ev):

     4.8578   9.3333   9.9247   9.9745  10.3470  10.6767  28.6950  32.7884
    33.9391  36.9842

          k =-0.2222 0.4444-0.2222 (   283 PWs)   bands (ev):

     6.4423   9.2663   9.7436   9.9590  10.8160  10.8987  23.2494  31.9151
    33.0713  34.6966

          k =-0.3333 0.5556-0.3333 (   271 PWs)   bands (ev):

     7.6342   9.5224   9.8437   9.8501  11.0968  11.8676  18.6267  31.5436
    31.9541  33.6636

          k = 0.5556-0.3333 0.5556 (   274 PWs)   bands (ev):

     7.8338   9.5080   9.7959  10.2123  11.0567  12.8887  16.6697  30.1453
    32.9914  33.9088

          k = 0.4444-0.2222 0.4444 (   279 PWs)   bands (ev):

     7.3804   9.6232   9.6358   9.8540  10.7662  11.6126  20.0484  29.5401
    35.0151  35.0328

          k = 0.3333-0.1111 0.3333 (   287 PWs)   bands (ev):

     5.8896   9.3061   9.8044   9.9807  10.3996  10.9723  25.0058  29.7667
    36.9164  37.9562

          k = 0.2222-0.0000 0.2222 (   285 PWs)   bands (ev):

     4.4401   9.4529   9.8636   9.8983  10.3520  10.6365  30.3371  31.0786
    37.9619  39.6344

          k = 0.0000 0.4444 0.0000 (   290 PWs)   bands (ev):

     5.5222   9.0921  10.0772  10.2343  10.2343  10.7540  30.6226  30.6226
    32.1080  32.5284

          k =-0.1111 0.5556-0.1111 (   288 PWs)   bands (ev):

     6.7740   8.8935   9.8421  10.3531  10.8558  10.9325  25.8393  29.3551
    29.7982  32.6032

          k =-0.2222 0.6667-0.2222 (   281 PWs)   bands (ev):

     7.9376   8.9005   9.6520  10.2695  11.1254  12.3286  20.8960  27.2886
    29.1210  32.4972

          k = 0.6667-0.2222 0.6667 (   275 PWs)   bands (ev):

     8.3456   9.0399   9.6699  10.1688  11.0734  14.7185  17.1315  25.4714
    29.9982  32.7991

          k = 0.5556-0.1111 0.5556 (   275 PWs)   bands (ev):

     8.2846   9.2370   9.4169  10.1391  10.7659  13.3097  19.4616  24.4988
    31.9173  33.7298

          k = 0.4444 0.0000 0.4444 (   277 PWs)   bands (ev):

     7.3099   9.1669   9.5583  10.1760  10.3898  11.7655  23.8263  24.7635
    34.6830  35.3613

          k = 0.0000 0.6667 0.0000 (   274 PWs)   bands (ev):

     7.3716   8.6211  10.6046  10.7709  10.7709  10.9423  26.3646  27.6590
    27.6590  30.9297

          k =-0.1111 0.7778-0.1111 (   276 PWs)   bands (ev):

     7.8873   8.5120  10.4265  10.7765  11.1408  12.5583  23.5840  23.9192
    27.0358  31.5913

          k = 0.7778-0.1111 0.7778 (   278 PWs)   bands (ev):

     8.2978   8.6075  10.0260  10.6470  11.1223  15.4181  19.5537  21.6971
    27.6211  31.9368

          k = 0.6667-0.0000 0.6667 (   284 PWs)   bands (ev):

     8.6506   8.8143   9.5533  10.4531  10.9020  15.9270  18.6045  21.1673
    29.3265  32.5869

          k = 0.0000 0.8889 0.0000 (   286 PWs)   bands (ev):

     7.8043   8.3231  11.0657  11.1856  11.1856  13.2947  20.9429  25.9882
    25.9882  30.3680

          k = 0.8889 0.0000 0.8889 (   280 PWs)   bands (ev):

     7.9480   8.3645  10.8121  10.9819  11.2075  14.8837  19.9095  23.1582
    26.1971  31.2948

          k =-0.2222 0.4444 0.0000 (   285 PWs)   bands (ev):

     6.0259   9.1330   9.7843  10.2454  10.3514  10.9896  27.1502  27.7777
    33.5896  36.4425

          k =-0.3333 0.5556-0.1111 (   280 PWs)   bands (ev):

     7.5006   9.1015   9.5201  10.1930  10.7347  11.7823  22.2024  27.0222
    30.8398  36.4892

          k = 0.5556-0.3333 0.7778 (   276 PWs)   bands (ev):

     8.1927   9.2105   9.6228  10.0796  11.0195  13.5754  17.8917  27.3984
    28.7595  36.0355

          k =-0.2222 0.6667 0.0000 (   277 PWs)   bands (ev):

     7.7442   8.7415   9.7554  10.7462  10.7678  11.9140  24.7251  25.3729
    26.8838  34.6817

          k = 0.6667-0.2222 0.8889 (   277 PWs)   bands (ev):

     8.3802   8.7871   9.5780  10.5478  11.0660  14.0790  20.3455  24.4971
    25.2792  35.4560

          k = 0.5556-0.1111 0.7778 (   274 PWs)   bands (ev):

     8.7302   8.8109   9.4230  10.3940  11.0341  16.1346  17.7319  22.9781
    26.3415  36.1513

          k = 0.4444 0.0000 0.6667 (   273 PWs)   bands (ev):

     8.4936   9.0888   9.1513  10.4056  10.7826  13.4793  21.3176  22.7628
    28.2519  37.4486

          k = 0.7778-0.1111 1.0000 (   276 PWs)   bands (ev):

     8.0798   8.4877  10.3302  10.8915  11.1852  14.5439  21.2890  23.3296
    24.0950  33.8120

          k = 0.6667-0.0000 0.8889 (   278 PWs)   bands (ev):

     8.3832   8.6774   9.8498  10.6511  11.1823  16.9394  19.5727  20.5028
    24.6320  35.0984

          k = 0.5556-0.1111 1.0000 (   274 PWs)   bands (ev):

     8.5714   8.9958   9.3122  10.5142  11.1830  16.7975  19.8741  21.7472
    22.5155  39.6202

     the Fermi energy is    12.7553 ev

!    total energy              =    -213.09328227 Ry
     Harris-Foulkes estimate   =    -213.09328227 Ry
     estimated scf accuracy    <          3.7E-10 Ry

     total all-electron energy =     -3309.973048 Ry

     The total energy is the sum of the following terms:

     one-electron contribution =     -28.01848755 Ry
     hartree contribution      =      30.63347848 Ry
     xc contribution           =     -44.63426196 Ry
     ewald contribution        =     -81.22522863 Ry
     one-center paw contrib.   =     -89.84868870 Ry
     smearing contrib. (-TS)   =      -0.00009392 Ry

     convergence has been achieved in   6 iterations

     Forces acting on atoms (cartesian axes, Ry/au):

     atom    1 type  1   force =     0.00000000    0.00000000    0.00000000

     Total force =     0.000000     Total SCF correction =     0.000000


     Computing stress (Cartesian axis) and pressure

          total   stress  (Ry/bohr**3)                   (kbar)     P=    6.63
   0.00004505  -0.00000000  -0.00000000          6.63     -0.00     -0.00
  -0.00000000   0.00004505   0.00000000         -0.00      6.63      0.00
  -0.00000000   0.00000000   0.00004505         -0.00      0.00      6.63


     Writing output data file Cu.save/

     init_run     :      0.29s CPU      0.31s WALL (       1 calls)
     electrons    :      1.64s CPU      1.84s WALL (       1 calls)
     forces       :      0.02s CPU      0.02s WALL (       1 calls)
     stress       :      0.05s CPU      0.05s WALL (       1 calls)

     Called by init_run:
     wfcinit      :      0.04s CPU      0.05s WALL (       1 calls)
     potinit      :      0.11s CPU      0.12s WALL (       1 calls)
     hinit0       :      0.11s CPU      0.12s WALL (       1 calls)

     Called by electrons:
     c_bands      :      0.88s CPU      0.97s WALL (       7 calls)
     sum_band     :      0.17s CPU      0.18s WALL (       7 calls)
     v_of_rho     :      0.01s CPU      0.01s WALL (       7 calls)
     newd         :      0.02s CPU      0.02s WALL (       7 calls)
     PAW_pot      :      0.67s CPU      0.76s WALL (       7 calls)
     mix_rho      :      0.00s CPU      0.00s WALL (       7 calls)

     Called by c_bands:
     init_us_2    :      0.02s CPU      0.02s WALL (     595 calls)
     cegterg      :      0.84s CPU      0.93s WALL (     245 calls)

     Called by sum_band:
     sum_band:bec :      0.00s CPU      0.00s WALL (     245 calls)
     addusdens    :      0.02s CPU      0.02s WALL (       7 calls)

     Called by *egterg:
     h_psi        :      0.64s CPU      0.71s WALL (     780 calls)
     s_psi        :      0.02s CPU      0.02s WALL (     780 calls)
     g_psi        :      0.00s CPU      0.00s WALL (     500 calls)
     cdiaghg      :      0.13s CPU      0.14s WALL (     710 calls)

     Called by h_psi:
     h_psi:pot    :      0.64s CPU      0.70s WALL (     780 calls)
     h_psi:calbec :      0.03s CPU      0.03s WALL (     780 calls)
     vloc_psi     :      0.59s CPU      0.65s WALL (     780 calls)
     add_vuspsi   :      0.02s CPU      0.02s WALL (     780 calls)

     General routines
     calbec       :      0.05s CPU      0.05s WALL (    1200 calls)
     fft          :      0.01s CPU      0.01s WALL (     104 calls)
     ffts         :      0.00s CPU      0.00s WALL (       7 calls)
     fftw         :      0.66s CPU      0.72s WALL (   14802 calls)

     Parallel routines
     fft_scatt_xy :      0.06s CPU      0.06s WALL (   14913 calls)
     fft_scatt_yz :      0.24s CPU      0.26s WALL (   14913 calls)

     PWSCF        :     2.76s CPU         3.04s WALL


   This run was terminated on:  23:19: 4  25Mar2024            

=------------------------------------------------------------------------------=
   JOB DONE.
=------------------------------------------------------------------------------=
