
     Program PWSCF v.6.3MaX starts on 25Mar2024 at 23:39:50 

     This program is part of the open-source Quantum ESPRESSO suite
     for quantum simulation of materials; please cite
         "P. Giannozzi et al., J. Phys.:Condens. Matter 21 395502 (2009);
         "P. Giannozzi et al., J. Phys.:Condens. Matter 29 465901 (2017);
          URL http://www.quantum-espresso.org", 
     in publications or presentations arising from this work. More details at
     http://www.quantum-espresso.org/quote

     Parallel version (MPI), running on     5 processors

     MPI processes distributed on     1 nodes
     R & G space division:  proc/nbgrp/npool/nimage =       5
     Waiting for input...
     Reading input from standard input

     Current dimensions of program PWSCF are:
     Max number of different atomic species (ntypx) = 10
     Max number of k-points (npk) =  40000
     Max angular momentum in pseudopotentials (lmaxx) =  3
               file Cu.pbe-dn-rrkjus_psl.1.0.0.UPF: wavefunction(s)  3D renormalized

     Subspace diagonalization in iterative solution of the eigenvalue problem:
     a serial algorithm will be used


     Parallelization info
     --------------------
     sticks:   dense  smooth     PW     G-vecs:    dense   smooth      PW
     Min         102     102     32                 1545     1545     280
     Max         103     103     33                 1546     1546     283
     Sum         511     511    163                 7727     7727    1411



     bravais-lattice index     =            2
     lattice parameter (alat)  =       6.8300  a.u.
     unit-cell volume          =      79.6530 (a.u.)^3
     number of atoms/cell      =            1
     number of atomic types    =            1
     number of electrons       =        11.00
     number of Kohn-Sham states=           10
     kinetic-energy cutoff     =      80.0000  Ry
     charge density cutoff     =     320.0000  Ry
     convergence threshold     =      1.0E-08
     mixing beta               =       0.7000
     number of iterations used =            8  plain     mixing
     Exchange-correlation      = PBE ( 1  4  3  4 0 0)

     celldm(1)=   6.830000  celldm(2)=   0.000000  celldm(3)=   0.000000
     celldm(4)=   0.000000  celldm(5)=   0.000000  celldm(6)=   0.000000

     crystal axes: (cart. coord. in units of alat)
               a(1) = (  -0.500000   0.000000   0.500000 )  
               a(2) = (   0.000000   0.500000   0.500000 )  
               a(3) = (  -0.500000   0.500000   0.000000 )  

     reciprocal axes: (cart. coord. in units 2 pi/alat)
               b(1) = ( -1.000000 -1.000000  1.000000 )  
               b(2) = (  1.000000  1.000000  1.000000 )  
               b(3) = ( -1.000000  1.000000 -1.000000 )  


     PseudoPot. # 1 for Cu read from file:
     /home/lorenzo/pseudos/Cu/Cu.pbe-dn-rrkjus_psl.1.0.0.UPF
     MD5 check sum: ba3d6c84e19846e79d48cdc68ff7152b
     Pseudo is Ultrasoft + core correction, Zval = 11.0
     Generated using "atomic" code by A. Dal Corso v.6.3
     Using radial grid of 1199 points,  6 beta functions with: 
                l(1) =   0
                l(2) =   0
                l(3) =   1
                l(4) =   1
                l(5) =   2
                l(6) =   2
     Q(r) pseudized with 0 coefficients 


     atomic species   valence    mass     pseudopotential
        Cu            11.00    63.54600     Cu( 1.00)

     48 Sym. Ops., with inversion, found



   Cartesian axes

     site n.     atom                  positions (alat units)
         1           Cu  tau(   1) = (   0.0000000   0.0000000   0.0000000  )

     number of k points=    35  gaussian smearing, width (Ry)=  0.0100
                       cart. coord. in units 2pi/alat
        k(    1) = (   0.0000000   0.0000000   0.0000000), wk =   0.0027435
        k(    2) = (  -0.1111111   0.1111111  -0.1111111), wk =   0.0219479
        k(    3) = (  -0.2222222   0.2222222  -0.2222222), wk =   0.0219479
        k(    4) = (  -0.3333333   0.3333333  -0.3333333), wk =   0.0219479
        k(    5) = (  -0.4444444   0.4444444  -0.4444444), wk =   0.0219479
        k(    6) = (   0.0000000   0.2222222   0.0000000), wk =   0.0164609
        k(    7) = (  -0.1111111   0.3333333  -0.1111111), wk =   0.0658436
        k(    8) = (  -0.2222222   0.4444444  -0.2222222), wk =   0.0658436
        k(    9) = (  -0.3333333   0.5555556  -0.3333333), wk =   0.0658436
        k(   10) = (   0.5555556  -0.3333333   0.5555556), wk =   0.0658436
        k(   11) = (   0.4444444  -0.2222222   0.4444444), wk =   0.0658436
        k(   12) = (   0.3333333  -0.1111111   0.3333333), wk =   0.0658436
        k(   13) = (   0.2222222  -0.0000000   0.2222222), wk =   0.0329218
        k(   14) = (   0.0000000   0.4444444   0.0000000), wk =   0.0164609
        k(   15) = (  -0.1111111   0.5555556  -0.1111111), wk =   0.0658436
        k(   16) = (  -0.2222222   0.6666667  -0.2222222), wk =   0.0658436
        k(   17) = (   0.6666667  -0.2222222   0.6666667), wk =   0.0658436
        k(   18) = (   0.5555556  -0.1111111   0.5555556), wk =   0.0658436
        k(   19) = (   0.4444444   0.0000000   0.4444444), wk =   0.0329218
        k(   20) = (   0.0000000   0.6666667   0.0000000), wk =   0.0164609
        k(   21) = (  -0.1111111   0.7777778  -0.1111111), wk =   0.0658436
        k(   22) = (   0.7777778  -0.1111111   0.7777778), wk =   0.0658436
        k(   23) = (   0.6666667  -0.0000000   0.6666667), wk =   0.0329218
        k(   24) = (   0.0000000   0.8888889   0.0000000), wk =   0.0164609
        k(   25) = (   0.8888889   0.0000000   0.8888889), wk =   0.0329218
        k(   26) = (  -0.2222222   0.4444444   0.0000000), wk =   0.0658436
        k(   27) = (  -0.3333333   0.5555556  -0.1111111), wk =   0.1316872
        k(   28) = (   0.5555556  -0.3333333   0.7777778), wk =   0.1316872
        k(   29) = (  -0.2222222   0.6666667   0.0000000), wk =   0.0658436
        k(   30) = (   0.6666667  -0.2222222   0.8888889), wk =   0.1316872
        k(   31) = (   0.5555556  -0.1111111   0.7777778), wk =   0.1316872
        k(   32) = (   0.4444444   0.0000000   0.6666667), wk =   0.0658436
        k(   33) = (   0.7777778  -0.1111111   1.0000000), wk =   0.0658436
        k(   34) = (   0.6666667  -0.0000000   0.8888889), wk =   0.0658436
        k(   35) = (   0.5555556  -0.1111111   1.0000000), wk =   0.0658436

     Dense  grid:     7727 G-vectors     FFT dimensions: (  27,  27,  27)

     Estimated max dynamical RAM per process >       8.35 MB

     Estimated total dynamical RAM >      41.76 MB

     Initial potential from superposition of free atoms

     starting charge   10.99977, renormalised to   11.00000
     Starting wfcs are    9 randomized atomic wfcs +    1 random wfcs

     total cpu time spent up to now is        1.0 secs

     Self-consistent Calculation

     iteration #  1     ecut=    80.00 Ry     beta= 0.70
     Davidson diagonalization with overlap
     ethr =  1.00E-02,  avg # of iterations =  3.7

     Threshold (ethr) on eigenvalues was too large:
     Diagonalizing with lowered threshold

     Davidson diagonalization with overlap
     ethr =  5.55E-04,  avg # of iterations =  1.0

     total cpu time spent up to now is        1.7 secs

     total energy              =    -122.71214988 Ry
     Harris-Foulkes estimate   =    -122.75975168 Ry
     estimated scf accuracy    <       0.06072999 Ry

     iteration #  2     ecut=    80.00 Ry     beta= 0.70
     Davidson diagonalization with overlap
     ethr =  5.52E-04,  avg # of iterations =  2.0

     total cpu time spent up to now is        2.1 secs

     total energy              =    -122.71353083 Ry
     Harris-Foulkes estimate   =    -122.79715810 Ry
     estimated scf accuracy    <       0.21635419 Ry

     iteration #  3     ecut=    80.00 Ry     beta= 0.70
     Davidson diagonalization with overlap
     ethr =  5.52E-04,  avg # of iterations =  2.1

     total cpu time spent up to now is        2.4 secs

     total energy              =    -122.74793064 Ry
     Harris-Foulkes estimate   =    -122.74794585 Ry
     estimated scf accuracy    <       0.00006597 Ry

     iteration #  4     ecut=    80.00 Ry     beta= 0.70
     Davidson diagonalization with overlap
     ethr =  6.00E-07,  avg # of iterations =  2.6

     total cpu time spent up to now is        2.8 secs

     total energy              =    -122.74797752 Ry
     Harris-Foulkes estimate   =    -122.74798115 Ry
     estimated scf accuracy    <       0.00001236 Ry

     iteration #  5     ecut=    80.00 Ry     beta= 0.70
     Davidson diagonalization with overlap
     ethr =  1.12E-07,  avg # of iterations =  1.1

     total cpu time spent up to now is        3.1 secs

     total energy              =    -122.74797973 Ry
     Harris-Foulkes estimate   =    -122.74797984 Ry
     estimated scf accuracy    <       0.00000032 Ry

     iteration #  6     ecut=    80.00 Ry     beta= 0.70
     Davidson diagonalization with overlap
     ethr =  2.88E-09,  avg # of iterations =  1.8

     total cpu time spent up to now is        3.4 secs

     End of self-consistent calculation

          k = 0.0000 0.0000 0.0000 (   941 PWs)   bands (ev):

     3.2768   9.6899   9.6899   9.6899  10.5166  10.5166  35.5983  37.9945
    37.9945  37.9945

          k =-0.1111 0.1111-0.1111 (   950 PWs)   bands (ev):

     3.7230   9.5993   9.7678   9.7678  10.4905  10.4905  32.2577  36.1946
    36.8965  36.8965

          k =-0.2222 0.2222-0.2222 (   953 PWs)   bands (ev):

     4.9884   9.4397   9.8544   9.8544  10.5479  10.5479  26.4971  35.5922
    35.6996  35.6996

          k =-0.3333 0.3333-0.3333 (   956 PWs)   bands (ev):

     6.6568   9.6639   9.7682   9.7682  10.8219  10.8219  21.2834  34.7112
    35.0160  35.0160

          k =-0.4444 0.4444-0.4444 (   969 PWs)   bands (ev):

     7.5285   9.6676   9.6676  11.0600  11.0600  11.1290  17.2360  34.0897
    34.7801  34.7801

          k = 0.0000 0.2222 0.0000 (   945 PWs)   bands (ev):

     3.8705   9.5164   9.8319   9.8319  10.3627  10.5804  33.9794  34.4594
    34.4594  36.1160

          k =-0.1111 0.3333-0.1111 (   959 PWs)   bands (ev):

     4.8626   9.3285   9.9185   9.9691  10.3390  10.6671  28.6812  32.7710
    33.9188  36.9565

          k =-0.2222 0.4444-0.2222 (   966 PWs)   bands (ev):

     6.4456   9.2623   9.7363   9.9522  10.8092  10.8908  23.2379  31.8999
    33.0451  34.6802

          k =-0.3333 0.5556-0.3333 (   958 PWs)   bands (ev):

     7.6333   9.5153   9.8410   9.8427  11.0884  11.8625  18.6182  31.5222
    31.9380  33.6522

          k = 0.5556-0.3333 0.5556 (   962 PWs)   bands (ev):

     7.8316   9.5006   9.7884  10.2093  11.0488  12.8864  16.6624  30.1297
    32.9741  33.9045

          k = 0.4444-0.2222 0.4444 (   955 PWs)   bands (ev):

     7.3811   9.6175   9.6320   9.8465  10.7593  11.6058  20.0401  29.5269
    35.0082  35.0153

          k = 0.3333-0.1111 0.3333 (   956 PWs)   bands (ev):

     5.8937   9.3018   9.7977   9.9740  10.3921  10.9646  24.9938  29.7549
    36.9161  37.9299

          k = 0.2222-0.0000 0.2222 (   951 PWs)   bands (ev):

     4.4451   9.4481   9.8578   9.8932  10.3422  10.6273  30.3182  31.0650
    37.9671  39.6236

          k = 0.0000 0.4444 0.0000 (   966 PWs)   bands (ev):

     5.5265   9.0872  10.0685  10.2295  10.2295  10.7434  30.6116  30.6116
    32.0762  32.5014

          k =-0.1111 0.5556-0.1111 (   965 PWs)   bands (ev):

     6.7765   8.8889   9.8355  10.3471  10.8499  10.9238  25.8278  29.3477
    29.7751  32.5774

          k =-0.2222 0.6667-0.2222 (   968 PWs)   bands (ev):

     7.9361   8.8960   9.6471  10.2623  11.1174  12.3240  20.8895  27.2721
    29.1139  32.4738

          k = 0.6667-0.2222 0.6667 (   965 PWs)   bands (ev):

     8.3425   9.0337   9.6665  10.1609  11.0657  14.7144  17.1261  25.4598
    29.9853  32.7798

          k = 0.5556-0.1111 0.5556 (   965 PWs)   bands (ev):

     8.2834   9.2301   9.4135  10.1308  10.7600  13.3038  19.4543  24.4869
    31.8939  33.7149

          k = 0.4444 0.0000 0.4444 (   961 PWs)   bands (ev):

     7.3124   9.1627   9.5510  10.1670  10.3845  11.7577  23.8103  24.7569
    34.6507  35.3511

          k = 0.0000 0.6667 0.0000 (   962 PWs)   bands (ev):

     7.3708   8.6163  10.6004  10.7650  10.7650  10.9314  26.3360  27.6518
    27.6518  30.8819

          k =-0.1111 0.7778-0.1111 (   977 PWs)   bands (ev):

     7.8828   8.5075  10.4224  10.7682  11.1325  12.5557  23.5676  23.9145
    27.0324  31.5529

          k = 0.7778-0.1111 0.7778 (   959 PWs)   bands (ev):

     8.2917   8.6033  10.0228  10.6381  11.1159  15.4144  19.5492  21.6888
    27.6162  31.9067

          k = 0.6667-0.0000 0.6667 (   961 PWs)   bands (ev):

     8.6463   8.8087   9.5502  10.4443  10.8972  15.9235  18.5987  21.1621
    29.3173  32.5678

          k = 0.0000 0.8889 0.0000 (   974 PWs)   bands (ev):

     7.7983   8.3184  11.0557  11.1798  11.1798  13.2967  20.9344  25.9893
    25.9893  30.3301

          k = 0.8889 0.0000 0.8889 (   964 PWs)   bands (ev):

     7.9414   8.3600  10.8078  10.9715  11.2020  14.8842  19.8990  23.1558
    26.1975  31.2599

          k =-0.2222 0.4444 0.0000 (   961 PWs)   bands (ev):

     6.0299   9.1284   9.7771  10.2404  10.3430  10.9813  27.1322  27.7697
    33.5650  36.4081

          k =-0.3333 0.5556-0.1111 (   963 PWs)   bands (ev):

     7.5020   9.0975   9.5132  10.1857  10.7280  11.7755  22.1934  27.0108
    30.8206  36.4722

          k = 0.5556-0.3333 0.7778 (   964 PWs)   bands (ev):

     8.1905   9.2037   9.6194  10.0721  11.0122  13.5714  17.8849  27.3844
    28.7446  36.0315

          k =-0.2222 0.6667 0.0000 (   963 PWs)   bands (ev):

     7.7431   8.7369   9.7501  10.7367  10.7624  11.9079  24.7099  25.3654
    26.8650  34.6404

          k = 0.6667-0.2222 0.8889 (   964 PWs)   bands (ev):

     8.3756   8.7828   9.5740  10.5393  11.0593  14.0750  20.3391  24.4828
    25.2725  35.4249

          k = 0.5556-0.1111 0.7778 (   964 PWs)   bands (ev):

     8.7262   8.8051   9.4196  10.3853  11.0279  16.1302  17.7258  22.9687
    26.3293  36.1282

          k = 0.4444 0.0000 0.6667 (   955 PWs)   bands (ev):

     8.4922   9.0850   9.1446  10.3964  10.7773  13.4739  21.3056  22.7569
    28.2318  37.4319

          k = 0.7778-0.1111 1.0000 (   969 PWs)   bands (ev):

     8.0736   8.4833  10.3262  10.8816  11.1790  14.5423  21.2779  23.3219
    24.0932  33.7696

          k = 0.6667-0.0000 0.8889 (   971 PWs)   bands (ev):

     8.3765   8.6734   9.8466  10.6419  11.1762  16.9358  19.5662  20.4971
    24.6266  35.0686

          k = 0.5556-0.1111 1.0000 (   963 PWs)   bands (ev):

     8.5648   8.9921   9.3088  10.5051  11.1770  16.7932  19.8670  21.7389
    22.5089  39.5705

     the Fermi energy is    12.7529 ev

!    total energy              =    -122.74797980 Ry
     Harris-Foulkes estimate   =    -122.74797980 Ry
     estimated scf accuracy    <          3.5E-10 Ry

     The total energy is the sum of the following terms:

     one-electron contribution =     -27.51409523 Ry
     hartree contribution      =      30.62015263 Ry
     xc contribution           =     -44.62871496 Ry
     ewald contribution        =     -81.22522855 Ry
     smearing contrib. (-TS)   =      -0.00009369 Ry

     convergence has been achieved in   6 iterations

     Forces acting on atoms (cartesian axes, Ry/au):

     atom    1 type  1   force =     0.00000000    0.00000000    0.00000000

     Total force =     0.000000     Total SCF correction =     0.000000


     Computing stress (Cartesian axis) and pressure

          total   stress  (Ry/bohr**3)                   (kbar)     P=   26.53
   0.00018031   0.00000000   0.00000000         26.53      0.00      0.00
   0.00000000   0.00018031  -0.00000000          0.00     26.53     -0.00
   0.00000000  -0.00000000   0.00018031          0.00     -0.00     26.53


     Writing output data file Cu.save/

     init_run     :      0.30s CPU      0.30s WALL (       1 calls)
     electrons    :      2.28s CPU      2.40s WALL (       1 calls)
     forces       :      0.06s CPU      0.06s WALL (       1 calls)
     stress       :      0.21s CPU      0.21s WALL (       1 calls)

     Called by init_run:
     wfcinit      :      0.11s CPU      0.11s WALL (       1 calls)
     potinit      :      0.01s CPU      0.01s WALL (       1 calls)
     hinit0       :      0.16s CPU      0.16s WALL (       1 calls)

     Called by electrons:
     c_bands      :      1.81s CPU      1.90s WALL (       7 calls)
     sum_band     :      0.40s CPU      0.42s WALL (       7 calls)
     v_of_rho     :      0.03s CPU      0.03s WALL (       7 calls)
     newd         :      0.05s CPU      0.06s WALL (       7 calls)
     mix_rho      :      0.00s CPU      0.00s WALL (       7 calls)

     Called by c_bands:
     init_us_2    :      0.08s CPU      0.08s WALL (     595 calls)
     cegterg      :      1.72s CPU      1.80s WALL (     245 calls)

     Called by sum_band:
     sum_band:bec :      0.00s CPU      0.00s WALL (     245 calls)
     addusdens    :      0.05s CPU      0.06s WALL (       7 calls)

     Called by *egterg:
     h_psi        :      1.41s CPU      1.48s WALL (     782 calls)
     s_psi        :      0.05s CPU      0.05s WALL (     782 calls)
     g_psi        :      0.00s CPU      0.00s WALL (     502 calls)
     cdiaghg      :      0.14s CPU      0.15s WALL (     712 calls)

     Called by h_psi:
     h_psi:pot    :      1.40s CPU      1.47s WALL (     782 calls)
     h_psi:calbec :      0.06s CPU      0.07s WALL (     782 calls)
     vloc_psi     :      1.28s CPU      1.34s WALL (     782 calls)
     add_vuspsi   :      0.05s CPU      0.05s WALL (     782 calls)

     General routines
     calbec       :      0.11s CPU      0.12s WALL (    1202 calls)
     fft          :      0.02s CPU      0.02s WALL (     104 calls)
     ffts         :      0.00s CPU      0.00s WALL (       7 calls)
     fftw         :      1.45s CPU      1.52s WALL (   14870 calls)

     Parallel routines
     fft_scatt_xy :      0.13s CPU      0.14s WALL (   14981 calls)
     fft_scatt_yz :      0.34s CPU      0.35s WALL (   14981 calls)

     PWSCF        :     3.60s CPU         3.77s WALL


   This run was terminated on:  23:39:53  25Mar2024            

=------------------------------------------------------------------------------=
   JOB DONE.
=------------------------------------------------------------------------------=
