
     Program PWSCF v.6.3MaX starts on 25Mar2024 at 23:28: 5 

     This program is part of the open-source Quantum ESPRESSO suite
     for quantum simulation of materials; please cite
         "P. Giannozzi et al., J. Phys.:Condens. Matter 21 395502 (2009);
         "P. Giannozzi et al., J. Phys.:Condens. Matter 29 465901 (2017);
          URL http://www.quantum-espresso.org", 
     in publications or presentations arising from this work. More details at
     http://www.quantum-espresso.org/quote

     Parallel version (MPI), running on     5 processors

     MPI processes distributed on     1 nodes
     R & G space division:  proc/nbgrp/npool/nimage =       5
     Waiting for input...
     Reading input from standard input

     Current dimensions of program PWSCF are:
     Max number of different atomic species (ntypx) = 10
     Max number of k-points (npk) =  40000
     Max angular momentum in pseudopotentials (lmaxx) =  3
               file Cu.pbesol-dn-kjpaw_psl.1.0.0.UPF: wavefunction(s)  4S 3D renormalized

     Subspace diagonalization in iterative solution of the eigenvalue problem:
     a serial algorithm will be used


     Parallelization info
     --------------------
     sticks:   dense  smooth     PW     G-vecs:    dense   smooth      PW
     Min          75      75     24                 1003     1003     187
     Max          76      76     25                 1007     1007     191
     Sum         379     379    121                 5029     5029     941



     bravais-lattice index     =            2
     lattice parameter (alat)  =       6.8300  a.u.
     unit-cell volume          =      79.6530 (a.u.)^3
     number of atoms/cell      =            1
     number of atomic types    =            1
     number of electrons       =        11.00
     number of Kohn-Sham states=           10
     kinetic-energy cutoff     =      60.0000  Ry
     charge density cutoff     =     240.0000  Ry
     convergence threshold     =      1.0E-08
     mixing beta               =       0.7000
     number of iterations used =            8  plain     mixing
     Exchange-correlation      = SLA PW PSX PSC ( 1  4 10  8 0 0)

     celldm(1)=   6.830000  celldm(2)=   0.000000  celldm(3)=   0.000000
     celldm(4)=   0.000000  celldm(5)=   0.000000  celldm(6)=   0.000000

     crystal axes: (cart. coord. in units of alat)
               a(1) = (  -0.500000   0.000000   0.500000 )  
               a(2) = (   0.000000   0.500000   0.500000 )  
               a(3) = (  -0.500000   0.500000   0.000000 )  

     reciprocal axes: (cart. coord. in units 2 pi/alat)
               b(1) = ( -1.000000 -1.000000  1.000000 )  
               b(2) = (  1.000000  1.000000  1.000000 )  
               b(3) = ( -1.000000  1.000000 -1.000000 )  


     PseudoPot. # 1 for Cu read from file:
     /home/lorenzo/pseudos/Cu/Cu.pbesol-dn-kjpaw_psl.1.0.0.UPF
     MD5 check sum: 1e9735a74797514c934643dbd229f231
     Pseudo is Projector augmented-wave + core cor, Zval = 11.0
     Generated using "atomic" code by A. Dal Corso v.6.3
     Shape of augmentation charge: PSQ
     Using radial grid of 1199 points,  6 beta functions with: 
                l(1) =   0
                l(2) =   0
                l(3) =   1
                l(4) =   1
                l(5) =   2
                l(6) =   2
     Q(r) pseudized with 0 coefficients 


     atomic species   valence    mass     pseudopotential
        Cu            11.00    63.54600     Cu( 1.00)

     48 Sym. Ops., with inversion, found



   Cartesian axes

     site n.     atom                  positions (alat units)
         1           Cu  tau(   1) = (   0.0000000   0.0000000   0.0000000  )

     number of k points=    56  gaussian smearing, width (Ry)=  0.0100
                       cart. coord. in units 2pi/alat
        k(    1) = (   0.0000000   0.0000000   0.0000000), wk =   0.0015026
        k(    2) = (  -0.0909091   0.0909091  -0.0909091), wk =   0.0120210
        k(    3) = (  -0.1818182   0.1818182  -0.1818182), wk =   0.0120210
        k(    4) = (  -0.2727273   0.2727273  -0.2727273), wk =   0.0120210
        k(    5) = (  -0.3636364   0.3636364  -0.3636364), wk =   0.0120210
        k(    6) = (  -0.4545455   0.4545455  -0.4545455), wk =   0.0120210
        k(    7) = (   0.0000000   0.1818182   0.0000000), wk =   0.0090158
        k(    8) = (  -0.0909091   0.2727273  -0.0909091), wk =   0.0360631
        k(    9) = (  -0.1818182   0.3636364  -0.1818182), wk =   0.0360631
        k(   10) = (  -0.2727273   0.4545455  -0.2727273), wk =   0.0360631
        k(   11) = (  -0.3636364   0.5454545  -0.3636364), wk =   0.0360631
        k(   12) = (   0.5454545  -0.3636364   0.5454545), wk =   0.0360631
        k(   13) = (   0.4545455  -0.2727273   0.4545455), wk =   0.0360631
        k(   14) = (   0.3636364  -0.1818182   0.3636364), wk =   0.0360631
        k(   15) = (   0.2727273  -0.0909091   0.2727273), wk =   0.0360631
        k(   16) = (   0.1818182  -0.0000000   0.1818182), wk =   0.0180316
        k(   17) = (   0.0000000   0.3636364   0.0000000), wk =   0.0090158
        k(   18) = (  -0.0909091   0.4545455  -0.0909091), wk =   0.0360631
        k(   19) = (  -0.1818182   0.5454545  -0.1818182), wk =   0.0360631
        k(   20) = (  -0.2727273   0.6363636  -0.2727273), wk =   0.0360631
        k(   21) = (   0.6363636  -0.2727273   0.6363636), wk =   0.0360631
        k(   22) = (   0.5454545  -0.1818182   0.5454545), wk =   0.0360631
        k(   23) = (   0.4545455  -0.0909091   0.4545455), wk =   0.0360631
        k(   24) = (   0.3636364   0.0000000   0.3636364), wk =   0.0180316
        k(   25) = (   0.0000000   0.5454545   0.0000000), wk =   0.0090158
        k(   26) = (  -0.0909091   0.6363636  -0.0909091), wk =   0.0360631
        k(   27) = (  -0.1818182   0.7272727  -0.1818182), wk =   0.0360631
        k(   28) = (   0.7272727  -0.1818182   0.7272727), wk =   0.0360631
        k(   29) = (   0.6363636  -0.0909091   0.6363636), wk =   0.0360631
        k(   30) = (   0.5454545   0.0000000   0.5454545), wk =   0.0180316
        k(   31) = (   0.0000000   0.7272727   0.0000000), wk =   0.0090158
        k(   32) = (  -0.0909091   0.8181818  -0.0909091), wk =   0.0360631
        k(   33) = (   0.8181818  -0.0909091   0.8181818), wk =   0.0360631
        k(   34) = (   0.7272727   0.0000000   0.7272727), wk =   0.0180316
        k(   35) = (   0.0000000   0.9090909   0.0000000), wk =   0.0090158
        k(   36) = (   0.9090909  -0.0000000   0.9090909), wk =   0.0180316
        k(   37) = (  -0.1818182   0.3636364   0.0000000), wk =   0.0360631
        k(   38) = (  -0.2727273   0.4545455  -0.0909091), wk =   0.0721262
        k(   39) = (  -0.3636364   0.5454545  -0.1818182), wk =   0.0721262
        k(   40) = (   0.5454545  -0.3636364   0.7272727), wk =   0.0721262
        k(   41) = (  -0.1818182   0.5454545   0.0000000), wk =   0.0360631
        k(   42) = (  -0.2727273   0.6363636  -0.0909091), wk =   0.0721262
        k(   43) = (   0.6363636  -0.2727273   0.8181818), wk =   0.0721262
        k(   44) = (   0.5454545  -0.1818182   0.7272727), wk =   0.0721262
        k(   45) = (   0.4545455  -0.0909091   0.6363636), wk =   0.0721262
        k(   46) = (   0.3636364   0.0000000   0.5454545), wk =   0.0360631
        k(   47) = (  -0.1818182   0.7272727   0.0000000), wk =   0.0360631
        k(   48) = (   0.7272727  -0.1818182   0.9090909), wk =   0.0721262
        k(   49) = (   0.6363636  -0.0909091   0.8181818), wk =   0.0721262
        k(   50) = (   0.5454545   0.0000000   0.7272727), wk =   0.0360631
        k(   51) = (   0.8181818  -0.0909091   1.0000000), wk =   0.0360631
        k(   52) = (   0.7272727   0.0000000   0.9090909), wk =   0.0360631
        k(   53) = (   0.6363636  -0.2727273   1.0000000), wk =   0.0360631
        k(   54) = (   0.5454545  -0.1818182   0.9090909), wk =   0.0721262
        k(   55) = (   0.6363636  -0.0909091   1.0000000), wk =   0.0360631
        k(   56) = (   0.5454545   0.0000000   0.9090909), wk =   0.0360631

     Dense  grid:     5029 G-vectors     FFT dimensions: (  24,  24,  24)

     Estimated max dynamical RAM per process >       6.18 MB

     Estimated total dynamical RAM >      30.89 MB

     Initial potential from superposition of free atoms

     starting charge   10.99979, renormalised to   11.00000
     Starting wfcs are    9 randomized atomic wfcs +    1 random wfcs
     Checking if some PAW data can be deallocated... 

     total cpu time spent up to now is        1.3 secs

     Self-consistent Calculation

     iteration #  1     ecut=    60.00 Ry     beta= 0.70
     Davidson diagonalization with overlap
     ethr =  1.00E-02,  avg # of iterations =  3.8

     Threshold (ethr) on eigenvalues was too large:
     Diagonalizing with lowered threshold

     Davidson diagonalization with overlap
     ethr =  6.83E-04,  avg # of iterations =  1.2

     total cpu time spent up to now is        2.6 secs

     total energy              =    -210.37603817 Ry
     Harris-Foulkes estimate   =    -210.43585077 Ry
     estimated scf accuracy    <       0.07479964 Ry

     iteration #  2     ecut=    60.00 Ry     beta= 0.70
     Davidson diagonalization with overlap
     ethr =  6.80E-04,  avg # of iterations =  2.0

     total cpu time spent up to now is        3.3 secs

     total energy              =    -210.37815887 Ry
     Harris-Foulkes estimate   =    -210.48347690 Ry
     estimated scf accuracy    <       0.27384159 Ry

     iteration #  3     ecut=    60.00 Ry     beta= 0.70
     Davidson diagonalization with overlap
     ethr =  6.80E-04,  avg # of iterations =  2.0

     total cpu time spent up to now is        3.8 secs

     total energy              =    -210.42099705 Ry
     Harris-Foulkes estimate   =    -210.42106688 Ry
     estimated scf accuracy    <       0.00014124 Ry

     iteration #  4     ecut=    60.00 Ry     beta= 0.70
     Davidson diagonalization with overlap
     ethr =  1.28E-06,  avg # of iterations =  2.4

     total cpu time spent up to now is        4.4 secs

     total energy              =    -210.42106509 Ry
     Harris-Foulkes estimate   =    -210.42107472 Ry
     estimated scf accuracy    <       0.00002547 Ry

     iteration #  5     ecut=    60.00 Ry     beta= 0.70
     Davidson diagonalization with overlap
     ethr =  2.32E-07,  avg # of iterations =  1.1

     total cpu time spent up to now is        4.8 secs

     total energy              =    -210.42106975 Ry
     Harris-Foulkes estimate   =    -210.42106993 Ry
     estimated scf accuracy    <       0.00000047 Ry

     iteration #  6     ecut=    60.00 Ry     beta= 0.70
     Davidson diagonalization with overlap
     ethr =  4.31E-09,  avg # of iterations =  2.3

     total cpu time spent up to now is        5.3 secs

     End of self-consistent calculation

          k = 0.0000 0.0000 0.0000 (   609 PWs)   bands (ev):

     3.0427   9.4681   9.4681   9.4681  10.3096  10.3096  35.3784  37.7501
    37.7501  37.7501

          k =-0.0909 0.0909-0.0909 (   621 PWs)   bands (ev):

     3.3425   9.4053   9.5232   9.5232  10.2894  10.2894  33.0547  36.0701
    36.9089  36.9089

          k =-0.1818 0.1818-0.1818 (   619 PWs)   bands (ev):

     4.2122   9.2661   9.6215   9.6215  10.2913  10.2913  28.3208  35.6366
    35.8308  35.8308

          k =-0.2727 0.2727-0.2727 (   613 PWs)   bands (ev):

     5.5180   9.2184   9.6132   9.6132  10.4459  10.4459  23.8001  34.9803
    35.0751  35.0751

          k =-0.3636 0.3636-0.3636 (   613 PWs)   bands (ev):

     6.7893   9.5193   9.5193   9.7063  10.6903  10.6903  19.7867  34.2767
    34.6616  34.6616

          k =-0.4545 0.4545-0.4545 (   619 PWs)   bands (ev):

     7.3239   9.4476   9.4476  10.8595  10.8595  11.0455  16.7638  33.8446
    34.5174  34.5174

          k = 0.0000 0.1818 0.0000 (   613 PWs)   bands (ev):

     3.4420   9.3498   9.5639   9.5639  10.2035  10.3530  34.1523  34.9726
    34.9726  36.3819

          k =-0.0909 0.2727-0.0909 (   615 PWs)   bands (ev):

     4.1211   9.2089   9.6673   9.6767  10.1290  10.3994  30.0974  33.4968
    34.2716  37.4659

          k =-0.1818 0.3636-0.1818 (   620 PWs)   bands (ev):

     5.2911   9.0847   9.6294   9.7214  10.3005  10.5302  25.4678  32.5309
    33.6324  36.4580

          k =-0.2727 0.4545-0.2727 (   615 PWs)   bands (ev):

     6.6321   9.2126   9.4841   9.6542  10.7388  10.7621  21.2503  32.1151
    32.9759  34.4563

          k =-0.3636 0.5455-0.3636 (   624 PWs)   bands (ev):

     7.4002   9.3528   9.5668   9.8598  10.8794  11.6548  17.7368  31.9124
    32.3053  33.6446

          k = 0.5455-0.3636 0.5455 (   623 PWs)   bands (ev):

     7.5288   9.3357   9.5301  10.1527  10.8513  12.3790  16.3571  30.8728
    33.1504  33.7981

          k = 0.4545-0.2727 0.4545 (   614 PWs)   bands (ev):

     7.2443   9.4114   9.5702   9.6817  10.6489  11.4132  18.8002  30.3298
    34.5501  34.6531

          k = 0.3636-0.1818 0.3636 (   618 PWs)   bands (ev):

     6.2108   9.1562   9.5403   9.6696  10.3539  10.8521  22.6042  30.3354
    35.8127  36.7333

          k = 0.2727-0.0909 0.2727 (   620 PWs)   bands (ev):

     4.8585   9.1473   9.6364   9.7239  10.1415  10.5270  26.9795  30.8588
    37.2544  38.6164

          k = 0.1818-0.0000 0.1818 (   616 PWs)   bands (ev):

     3.8329   9.2957   9.6070   9.6092  10.1839  10.3606  31.3796  32.1981
    37.3181  38.8528

          k = 0.0000 0.3636 0.0000 (   613 PWs)   bands (ev):

     4.5911   9.0379   9.8395   9.8395   9.9531  10.4702  31.6818  31.6818
    32.4641  33.9171

          k =-0.0909 0.4545-0.0909 (   618 PWs)   bands (ev):

     5.5550   8.8608   9.6929   9.9684  10.2353  10.5821  27.5308  30.4318
    32.0935  33.3366

          k =-0.1818 0.5455-0.1818 (   619 PWs)   bands (ev):

     6.7824   8.7835   9.4663   9.9515  10.7737  10.9044  23.1911  29.8057
    30.2050  32.7764

          k =-0.2727 0.6364-0.2727 (   623 PWs)   bands (ev):

     7.6781   8.9172   9.3914   9.8648  10.9035  12.1510  19.3369  28.3640
    29.8651  32.6322

          k = 0.6364-0.2727 0.6364 (   625 PWs)   bands (ev):

     7.9339   9.0082   9.5571   9.7946  10.8597  13.8245  16.6261  26.9750
    30.6430  32.8945

          k = 0.5455-0.1818 0.5455 (   624 PWs)   bands (ev):

     7.8636   9.1190   9.3981   9.7859  10.6364  12.8680  18.2528  26.1413
    32.1127  33.6308

          k = 0.4545-0.0909 0.4545 (   622 PWs)   bands (ev):

     7.2142   9.0170   9.3235   9.8523  10.3062  11.6189  21.8752  25.9034
    34.1909  34.9004

          k = 0.3636 0.0000 0.3636 (   620 PWs)   bands (ev):

     5.9686   8.9980   9.5285   9.9682   9.9848  10.9447  25.7972  26.5373
    36.6526  36.7621

          k = 0.0000 0.5455 0.0000 (   632 PWs)   bands (ev):

     6.2329   8.6405   9.8681  10.2485  10.2485  10.6255  28.8855  28.8855
    29.5582  31.2194

          k =-0.0909 0.6364-0.0909 (   625 PWs)   bands (ev):

     7.0976   8.4888   9.8163  10.3404  10.7801  10.9147  25.4665  27.1410
    27.9889  31.7208

          k =-0.1818 0.7273-0.1818 (   632 PWs)   bands (ev):

     7.7931   8.4710   9.6530  10.2726  10.9234  12.4267  21.5290  25.0693
    27.8303  31.8348

          k = 0.7273-0.1818 0.7273 (   631 PWs)   bands (ev):

     8.1776   8.5698   9.5017  10.1772  10.8864  14.6883  18.0896  23.4988
    28.4472  32.0683

          k = 0.6364-0.0909 0.6364 (   628 PWs)   bands (ev):

     8.3559   8.7277   9.2767  10.0978  10.6752  14.8832  18.0122  22.5032
    29.7924  32.6323

          k = 0.5455 0.0000 0.5455 (   628 PWs)   bands (ev):

     8.1116   9.0012   9.0130  10.0209  10.4130  12.8982  21.0424  22.5322
    31.7533  33.5988

          k = 0.0000 0.7273 0.0000 (   628 PWs)   bands (ev):

     7.3927   8.2862  10.6864  10.6864  10.7699  10.9497  24.4578  26.8034
    26.8034  30.4469

          k =-0.0909 0.8182-0.0909 (   631 PWs)   bands (ev):

     7.6528   8.2107  10.4606  10.6685  10.9355  12.6416  22.3195  24.0912
    26.3780  31.0794

          k = 0.8182-0.0909 0.8182 (   628 PWs)   bands (ev):

     7.9344   8.2835  10.0653  10.5622  10.9330  14.9114  20.5177  20.9039
    26.7793  31.4602

          k = 0.7273 0.0000 0.7273 (   626 PWs)   bands (ev):

     8.2574   8.4540   9.5998  10.3855  10.7901  17.1812  17.4681  20.4276
    27.9615  31.9082

          k = 0.0000 0.9091 0.0000 (   628 PWs)   bands (ev):

     7.5834   8.0803  10.8565  10.9834  10.9834  13.3065  20.3653  25.6683
    25.6683  30.0825

          k = 0.9091-0.0000 0.9091 (   634 PWs)   bands (ev):

     7.6802   8.1087  10.7118  10.7988  10.9986  14.4229  19.6413  23.5855
    25.8086  30.8804

          k =-0.1818 0.3636 0.0000 (   616 PWs)   bands (ev):

     4.9534   9.0450   9.6663   9.8506  10.0801  10.5510  28.6507  29.2879
    35.5683  36.0443

          k =-0.2727 0.4545-0.0909 (   624 PWs)   bands (ev):

     6.1868   8.9344   9.4952   9.8959  10.2875  10.9116  24.4188  28.3158
    33.3016  36.1900

          k =-0.3636 0.5455-0.1818 (   624 PWs)   bands (ev):

     7.3457   9.0798   9.3259   9.8039  10.6333  11.6228  20.3737  28.1563
    31.2602  35.6393

          k = 0.5455-0.3636 0.7273 (   627 PWs)   bands (ev):

     7.7888   9.1309   9.5913   9.7318  10.8231  13.0213  17.1369  28.5611
    29.7102  35.2773

          k =-0.1818 0.5455 0.0000 (   622 PWs)   bands (ev):

     6.5369   8.6954   9.5457  10.2489  10.3392  10.9030  26.3656  26.9166
    30.0364  34.3046

          k =-0.2727 0.6364-0.0909 (   621 PWs)   bands (ev):

     7.5549   8.6492   9.3461  10.2051  10.6716  11.7908  22.4474  26.3311
    27.8111  34.7465

          k = 0.6364-0.2727 0.8182 (   627 PWs)   bands (ev):

     8.1129   8.7336   9.2910  10.0855  10.8439  13.5350  18.7843  25.9711
    26.6804  34.8777

          k = 0.5455-0.1818 0.7273 (   630 PWs)   bands (ev):

     8.2692   8.7756   9.3141  10.0074  10.7992  14.9180  16.9759  24.7611
    27.5580  35.3922

          k = 0.4545-0.0909 0.6364 (   625 PWs)   bands (ev):

     8.1113   8.9144   9.0720  10.0471  10.5828  13.0178  19.9387  24.1134
    29.0281  36.4215

          k = 0.3636 0.0000 0.5455 (   626 PWs)   bands (ev):

     7.3168   8.8396   9.2507  10.1164  10.2775  11.6691  23.4689  24.4096
    30.9843  37.8908

          k =-0.1818 0.7273 0.0000 (   631 PWs)   bands (ev):

     7.6257   8.3777   9.8554  10.6620  10.6843  11.9598  24.6331  24.7056
    25.2768  33.1530

          k = 0.7273-0.1818 0.9091 (   630 PWs)   bands (ev):

     8.0094   8.4108   9.6726  10.4887  10.8930  13.8858  21.1412  22.8907
    25.0778  33.9486

          k = 0.6364-0.0909 0.8182 (   628 PWs)   bands (ev):

     8.3167   8.5230   9.4162  10.3134  10.8687  16.4132  17.8986  21.5912
    25.8366  34.4808

          k = 0.5455 0.0000 0.7273 (   629 PWs)   bands (ev):

     8.5421   8.6420   9.0938  10.1988  10.7005  15.0535  19.2014  21.3543
    27.1913  35.3578

          k = 0.8182-0.0909 1.0000 (   630 PWs)   bands (ev):

     7.7709   8.1918  10.3489  10.7378  10.9832  14.2195  20.5747  23.6670
    24.2729  32.5982

          k = 0.7273 0.0000 0.9091 (   628 PWs)   bands (ev):

     8.0025   8.3267   9.9220  10.5535  10.9808  15.9440  19.9266  20.7189
    24.6220  33.6943

          k = 0.6364-0.2727 1.0000 (   632 PWs)   bands (ev):

     8.1788   8.6527   9.1308  10.3689  10.6825  13.3065  21.7391  22.9614
    25.7004  37.6702

          k = 0.5455-0.1818 0.9091 (   633 PWs)   bands (ev):

     8.4527   8.6972   9.0611  10.2428  10.8564  15.5527  18.6590  23.0184
    24.0955  38.1382

          k = 0.6364-0.0909 1.0000 (   635 PWs)   bands (ev):

     8.1919   8.5337   9.4500  10.4127  10.9823  15.9896  20.7800  21.2652
    22.2544  37.0418

          k = 0.5455 0.0000 0.9091 (   625 PWs)   bands (ev):

     8.3547   8.7583   9.1185  10.2786  10.9809  18.1207  18.1517  20.7831
    22.6740  38.3837

     the Fermi energy is    12.5477 ev

!    total energy              =    -210.42106986 Ry
     Harris-Foulkes estimate   =    -210.42106986 Ry
     estimated scf accuracy    <          4.3E-10 Ry

     total all-electron energy =     -3307.300131 Ry

     The total energy is the sum of the following terms:

     one-electron contribution =     -28.01052839 Ry
     hartree contribution      =      30.52703028 Ry
     xc contribution           =     -44.11141728 Ry
     ewald contribution        =     -81.22522856 Ry
     one-center paw contrib.   =     -87.60079425 Ry
     smearing contrib. (-TS)   =      -0.00013166 Ry

     convergence has been achieved in   6 iterations

     Forces acting on atoms (cartesian axes, Ry/au):

     atom    1 type  1   force =     0.00000000    0.00000000    0.00000000

     Total force =     0.000000     Total SCF correction =     0.000000


     Computing stress (Cartesian axis) and pressure

          total   stress  (Ry/bohr**3)                   (kbar)     P=  -65.53
  -0.00044548  -0.00000000  -0.00000000        -65.53     -0.00     -0.00
  -0.00000000  -0.00044548   0.00000000         -0.00    -65.53      0.00
  -0.00000000   0.00000000  -0.00044548         -0.00      0.00    -65.53


     Writing output data file Cu.save/

     init_run     :      0.49s CPU      0.53s WALL (       1 calls)
     electrons    :      3.73s CPU      3.99s WALL (       1 calls)
     forces       :      0.04s CPU      0.04s WALL (       1 calls)
     stress       :      0.13s CPU      0.13s WALL (       1 calls)

     Called by init_run:
     wfcinit      :      0.20s CPU      0.22s WALL (       1 calls)
     potinit      :      0.10s CPU      0.12s WALL (       1 calls)
     hinit0       :      0.16s CPU      0.16s WALL (       1 calls)

     Called by electrons:
     c_bands      :      2.57s CPU      2.72s WALL (       7 calls)
     sum_band     :      0.51s CPU      0.53s WALL (       7 calls)
     v_of_rho     :      0.02s CPU      0.02s WALL (       7 calls)
     newd         :      0.05s CPU      0.05s WALL (       7 calls)
     PAW_pot      :      0.69s CPU      0.78s WALL (       7 calls)
     mix_rho      :      0.00s CPU      0.00s WALL (       7 calls)

     Called by c_bands:
     init_us_2    :      0.08s CPU      0.08s WALL (     952 calls)
     cegterg      :      2.44s CPU      2.59s WALL (     392 calls)

     Called by sum_band:
     sum_band:bec :      0.00s CPU      0.00s WALL (     392 calls)
     addusdens    :      0.04s CPU      0.04s WALL (       7 calls)

     Called by *egterg:
     h_psi        :      1.96s CPU      2.09s WALL (    1277 calls)
     s_psi        :      0.06s CPU      0.06s WALL (    1277 calls)
     g_psi        :      0.01s CPU      0.01s WALL (     829 calls)
     cdiaghg      :      0.26s CPU      0.27s WALL (    1165 calls)

     Called by h_psi:
     h_psi:pot    :      1.95s CPU      2.08s WALL (    1277 calls)
     h_psi:calbec :      0.11s CPU      0.12s WALL (    1277 calls)
     vloc_psi     :      1.77s CPU      1.88s WALL (    1277 calls)
     add_vuspsi   :      0.06s CPU      0.06s WALL (    1277 calls)

     General routines
     calbec       :      0.18s CPU      0.19s WALL (    1949 calls)
     fft          :      0.02s CPU      0.02s WALL (     104 calls)
     ffts         :      0.00s CPU      0.00s WALL (       7 calls)
     fftw         :      2.00s CPU      2.13s WALL (   23862 calls)

     Parallel routines
     fft_scatt_xy :      0.16s CPU      0.17s WALL (   23973 calls)
     fft_scatt_yz :      0.86s CPU      0.91s WALL (   23973 calls)

     PWSCF        :     5.21s CPU         5.58s WALL


   This run was terminated on:  23:28:10  25Mar2024            

=------------------------------------------------------------------------------=
   JOB DONE.
=------------------------------------------------------------------------------=
