
     Program PWSCF v.6.3MaX starts on 25Mar2024 at 23:25:34 

     This program is part of the open-source Quantum ESPRESSO suite
     for quantum simulation of materials; please cite
         "P. Giannozzi et al., J. Phys.:Condens. Matter 21 395502 (2009);
         "P. Giannozzi et al., J. Phys.:Condens. Matter 29 465901 (2017);
          URL http://www.quantum-espresso.org", 
     in publications or presentations arising from this work. More details at
     http://www.quantum-espresso.org/quote

     Parallel version (MPI), running on     5 processors

     MPI processes distributed on     1 nodes
     R & G space division:  proc/nbgrp/npool/nimage =       5
     Waiting for input...
     Reading input from standard input

     Current dimensions of program PWSCF are:
     Max number of different atomic species (ntypx) = 10
     Max number of k-points (npk) =  40000
     Max angular momentum in pseudopotentials (lmaxx) =  3
               file Cu.pbesol-dn-kjpaw_psl.1.0.0.UPF: wavefunction(s)  4S 3D renormalized

     Subspace diagonalization in iterative solution of the eigenvalue problem:
     a serial algorithm will be used


     Parallelization info
     --------------------
     sticks:   dense  smooth     PW     G-vecs:    dense   smooth      PW
     Min          72      72     24                  876      876     173
     Max          73      73     25                  877      877     174
     Sum         361     361    121                 4381     4381     869



     bravais-lattice index     =            2
     lattice parameter (alat)  =       6.8300  a.u.
     unit-cell volume          =      79.6530 (a.u.)^3
     number of atoms/cell      =            1
     number of atomic types    =            1
     number of electrons       =        11.00
     number of Kohn-Sham states=           10
     kinetic-energy cutoff     =      55.0000  Ry
     charge density cutoff     =     220.0000  Ry
     convergence threshold     =      1.0E-08
     mixing beta               =       0.7000
     number of iterations used =            8  plain     mixing
     Exchange-correlation      = SLA PW PSX PSC ( 1  4 10  8 0 0)

     celldm(1)=   6.830000  celldm(2)=   0.000000  celldm(3)=   0.000000
     celldm(4)=   0.000000  celldm(5)=   0.000000  celldm(6)=   0.000000

     crystal axes: (cart. coord. in units of alat)
               a(1) = (  -0.500000   0.000000   0.500000 )  
               a(2) = (   0.000000   0.500000   0.500000 )  
               a(3) = (  -0.500000   0.500000   0.000000 )  

     reciprocal axes: (cart. coord. in units 2 pi/alat)
               b(1) = ( -1.000000 -1.000000  1.000000 )  
               b(2) = (  1.000000  1.000000  1.000000 )  
               b(3) = ( -1.000000  1.000000 -1.000000 )  


     PseudoPot. # 1 for Cu read from file:
     /home/lorenzo/pseudos/Cu/Cu.pbesol-dn-kjpaw_psl.1.0.0.UPF
     MD5 check sum: 1e9735a74797514c934643dbd229f231
     Pseudo is Projector augmented-wave + core cor, Zval = 11.0
     Generated using "atomic" code by A. Dal Corso v.6.3
     Shape of augmentation charge: PSQ
     Using radial grid of 1199 points,  6 beta functions with: 
                l(1) =   0
                l(2) =   0
                l(3) =   1
                l(4) =   1
                l(5) =   2
                l(6) =   2
     Q(r) pseudized with 0 coefficients 


     atomic species   valence    mass     pseudopotential
        Cu            11.00    63.54600     Cu( 1.00)

     48 Sym. Ops., with inversion, found



   Cartesian axes

     site n.     atom                  positions (alat units)
         1           Cu  tau(   1) = (   0.0000000   0.0000000   0.0000000  )

     number of k points=    47  gaussian smearing, width (Ry)=  0.0100
                       cart. coord. in units 2pi/alat
        k(    1) = (   0.0000000   0.0000000   0.0000000), wk =   0.0020000
        k(    2) = (  -0.1000000   0.1000000  -0.1000000), wk =   0.0160000
        k(    3) = (  -0.2000000   0.2000000  -0.2000000), wk =   0.0160000
        k(    4) = (  -0.3000000   0.3000000  -0.3000000), wk =   0.0160000
        k(    5) = (  -0.4000000   0.4000000  -0.4000000), wk =   0.0160000
        k(    6) = (   0.5000000  -0.5000000   0.5000000), wk =   0.0080000
        k(    7) = (   0.0000000   0.2000000   0.0000000), wk =   0.0120000
        k(    8) = (  -0.1000000   0.3000000  -0.1000000), wk =   0.0480000
        k(    9) = (  -0.2000000   0.4000000  -0.2000000), wk =   0.0480000
        k(   10) = (  -0.3000000   0.5000000  -0.3000000), wk =   0.0480000
        k(   11) = (   0.6000000  -0.4000000   0.6000000), wk =   0.0480000
        k(   12) = (   0.5000000  -0.3000000   0.5000000), wk =   0.0480000
        k(   13) = (   0.4000000  -0.2000000   0.4000000), wk =   0.0480000
        k(   14) = (   0.3000000  -0.1000000   0.3000000), wk =   0.0480000
        k(   15) = (   0.2000000   0.0000000   0.2000000), wk =   0.0240000
        k(   16) = (   0.0000000   0.4000000   0.0000000), wk =   0.0120000
        k(   17) = (  -0.1000000   0.5000000  -0.1000000), wk =   0.0480000
        k(   18) = (  -0.2000000   0.6000000  -0.2000000), wk =   0.0480000
        k(   19) = (   0.7000000  -0.3000000   0.7000000), wk =   0.0480000
        k(   20) = (   0.6000000  -0.2000000   0.6000000), wk =   0.0480000
        k(   21) = (   0.5000000  -0.1000000   0.5000000), wk =   0.0480000
        k(   22) = (   0.4000000   0.0000000   0.4000000), wk =   0.0240000
        k(   23) = (   0.0000000   0.6000000   0.0000000), wk =   0.0120000
        k(   24) = (  -0.1000000   0.7000000  -0.1000000), wk =   0.0480000
        k(   25) = (   0.8000000  -0.2000000   0.8000000), wk =   0.0480000
        k(   26) = (   0.7000000  -0.1000000   0.7000000), wk =   0.0480000
        k(   27) = (   0.6000000  -0.0000000   0.6000000), wk =   0.0240000
        k(   28) = (   0.0000000   0.8000000   0.0000000), wk =   0.0120000
        k(   29) = (   0.9000000  -0.1000000   0.9000000), wk =   0.0480000
        k(   30) = (   0.8000000   0.0000000   0.8000000), wk =   0.0240000
        k(   31) = (   0.0000000  -1.0000000   0.0000000), wk =   0.0060000
        k(   32) = (  -0.2000000   0.4000000   0.0000000), wk =   0.0480000
        k(   33) = (  -0.3000000   0.5000000  -0.1000000), wk =   0.0960000
        k(   34) = (   0.6000000  -0.4000000   0.8000000), wk =   0.0960000
        k(   35) = (   0.5000000  -0.3000000   0.7000000), wk =   0.0480000
        k(   36) = (  -0.2000000   0.6000000   0.0000000), wk =   0.0480000
        k(   37) = (   0.7000000  -0.3000000   0.9000000), wk =   0.0960000
        k(   38) = (   0.6000000  -0.2000000   0.8000000), wk =   0.0960000
        k(   39) = (   0.5000000  -0.1000000   0.7000000), wk =   0.0960000
        k(   40) = (   0.4000000   0.0000000   0.6000000), wk =   0.0480000
        k(   41) = (   0.8000000  -0.2000000   1.0000000), wk =   0.0480000
        k(   42) = (   0.7000000  -0.1000000   0.9000000), wk =   0.0960000
        k(   43) = (   0.6000000   0.0000000   0.8000000), wk =   0.0480000
        k(   44) = (  -0.2000000  -1.0000000   0.0000000), wk =   0.0240000
        k(   45) = (   0.6000000  -0.2000000   1.0000000), wk =   0.0480000
        k(   46) = (   0.5000000  -0.1000000   0.9000000), wk =   0.0480000
        k(   47) = (  -0.4000000  -1.0000000   0.0000000), wk =   0.0240000

     Dense  grid:     4381 G-vectors     FFT dimensions: (  24,  24,  24)

     Estimated max dynamical RAM per process >       5.38 MB

     Estimated total dynamical RAM >      26.88 MB

     Initial potential from superposition of free atoms

     starting charge   10.99979, renormalised to   11.00000
     Starting wfcs are    9 randomized atomic wfcs +    1 random wfcs
     Checking if some PAW data can be deallocated... 

     total cpu time spent up to now is        1.2 secs

     Self-consistent Calculation

     iteration #  1     ecut=    55.00 Ry     beta= 0.70
     Davidson diagonalization with overlap
     ethr =  1.00E-02,  avg # of iterations =  3.7

     Threshold (ethr) on eigenvalues was too large:
     Diagonalizing with lowered threshold

     Davidson diagonalization with overlap
     ethr =  6.90E-04,  avg # of iterations =  1.2

     total cpu time spent up to now is        1.9 secs

     total energy              =    -210.37406353 Ry
     Harris-Foulkes estimate   =    -210.43453299 Ry
     estimated scf accuracy    <       0.07561177 Ry

     iteration #  2     ecut=    55.00 Ry     beta= 0.70
     Davidson diagonalization with overlap
     ethr =  6.87E-04,  avg # of iterations =  2.0

     total cpu time spent up to now is        2.4 secs

     total energy              =    -210.37632487 Ry
     Harris-Foulkes estimate   =    -210.48348216 Ry
     estimated scf accuracy    <       0.27932447 Ry

     iteration #  3     ecut=    55.00 Ry     beta= 0.70
     Davidson diagonalization with overlap
     ethr =  6.87E-04,  avg # of iterations =  2.0

     total cpu time spent up to now is        2.8 secs

     total energy              =    -210.41948539 Ry
     Harris-Foulkes estimate   =    -210.41955827 Ry
     estimated scf accuracy    <       0.00014757 Ry

     iteration #  4     ecut=    55.00 Ry     beta= 0.70
     Davidson diagonalization with overlap
     ethr =  1.34E-06,  avg # of iterations =  2.4

     total cpu time spent up to now is        3.3 secs

     total energy              =    -210.41956059 Ry
     Harris-Foulkes estimate   =    -210.41957143 Ry
     estimated scf accuracy    <       0.00002853 Ry

     iteration #  5     ecut=    55.00 Ry     beta= 0.70
     Davidson diagonalization with overlap
     ethr =  2.59E-07,  avg # of iterations =  1.1

     total cpu time spent up to now is        3.6 secs

     total energy              =    -210.41956593 Ry
     Harris-Foulkes estimate   =    -210.41956623 Ry
     estimated scf accuracy    <       0.00000079 Ry

     iteration #  6     ecut=    55.00 Ry     beta= 0.70
     Davidson diagonalization with overlap
     ethr =  7.21E-09,  avg # of iterations =  1.9

     total cpu time spent up to now is        4.1 secs

     End of self-consistent calculation

          k = 0.0000 0.0000 0.0000 (   537 PWs)   bands (ev):

     3.0426   9.4660   9.4660   9.4660  10.3079  10.3079  35.3778  37.7503
    37.7503  37.7503

          k =-0.1000 0.1000-0.1000 (   537 PWs)   bands (ev):

     3.4048   9.3911   9.5313   9.5313  10.2849  10.2849  32.5953  36.0212
    36.7920  36.7920

          k =-0.2000 0.2000-0.2000 (   552 PWs)   bands (ev):

     4.4461   9.2387   9.6295   9.6295  10.3060  10.3060  27.3863  35.5254
    35.6514  35.6514

          k =-0.3000 0.3000-0.3000 (   555 PWs)   bands (ev):

     5.9403   9.2745   9.5862   9.5862  10.5162  10.5162  22.5317  34.7576
    34.9168  34.9168

          k =-0.4000 0.4000-0.4000 (   547 PWs)   bands (ev):

     7.0971   9.4820   9.4820  10.1875  10.7724  10.7724  18.3997  34.0586
    34.5782  34.5782

          k = 0.5000-0.5000 0.5000 (   568 PWs)   bands (ev):

     7.3695   9.4357   9.4357  10.8808  10.8808  11.4033  16.2134  33.7873
    34.5045  34.5045

          k = 0.0000 0.2000 0.0000 (   544 PWs)   bands (ev):

     3.5248   9.3239   9.5817   9.5817  10.1808  10.3602  33.9724  34.6296
    34.6296  36.1632

          k =-0.1000 0.3000-0.1000 (   551 PWs)   bands (ev):

     4.3391   9.1610   9.6873   9.7076  10.1166  10.4223  29.3477  33.0502
    34.0099  37.2650

          k =-0.2000 0.4000-0.2000 (   551 PWs)   bands (ev):

     5.7036   9.0521   9.5838   9.7286  10.4085  10.5949  24.3366  32.1080
    33.3022  35.4851

          k =-0.3000 0.5000-0.3000 (   550 PWs)   bands (ev):

     7.0528   9.3143   9.4572   9.6381  10.8126  11.0746  19.8927  31.8627
    32.3355  33.7937

          k = 0.6000-0.4000 0.6000 (   558 PWs)   bands (ev):

     7.5409   9.3080   9.5586  10.0090  10.8883  12.3365  16.6368  30.9678
    32.3897  33.5474

          k = 0.5000-0.3000 0.5000 (   551 PWs)   bands (ev):

     7.4699   9.3475   9.5595   9.9071  10.7437  11.9531  17.4897  30.0608
    33.7295  34.1125

          k = 0.4000-0.2000 0.4000 (   546 PWs)   bands (ev):

     6.6801   9.2323   9.4812   9.6487  10.4363  11.0516  21.3006  29.8237
    35.3513  35.8423

          k = 0.3000-0.1000 0.3000 (   548 PWs)   bands (ev):

     5.2089   9.1091   9.6164   9.7434  10.1470  10.6160  25.9645  30.2370
    37.0791  38.5116

          k = 0.2000 0.0000 0.2000 (   553 PWs)   bands (ev):

     3.9946   9.2625   9.6226   9.6328  10.1602  10.3810  30.7933  31.5752
    37.4931  39.0787

          k = 0.0000 0.4000 0.0000 (   564 PWs)   bands (ev):

     4.8959   8.9589   9.9032   9.9107   9.9107  10.4980  31.0756  31.0756
    32.1749  33.2559

          k =-0.1000 0.5000-0.1000 (   551 PWs)   bands (ev):

     6.0049   8.7685   9.6477  10.0405  10.3866  10.6389  26.6336  29.8026
    31.0600  32.7616

          k =-0.2000 0.6000-0.2000 (   549 PWs)   bands (ev):

     7.2689   8.7274   9.4236   9.9930  10.8441  11.3459  22.0031  28.7646
    29.3201  32.4791

          k = 0.7000-0.3000 0.7000 (   547 PWs)   bands (ev):

     7.9257   8.8741   9.4329   9.8961  10.9085  13.1532  18.0566  26.8877
    29.7038  32.5339

          k = 0.6000-0.2000 0.6000 (   557 PWs)   bands (ev):

     8.0320   8.9805   9.4568   9.8420  10.7449  13.9159  17.0799  25.6374
    30.9597  33.0769

          k = 0.5000-0.1000 0.5000 (   550 PWs)   bands (ev):

     7.6797   9.0707   9.1966   9.8697  10.4118  12.1617  20.6261  25.0974
    32.9994  34.2112

          k = 0.4000 0.0000 0.4000 (   550 PWs)   bands (ev):

     6.4774   8.9598   9.4491   9.9638  10.0535  11.1758  24.7758  25.5875
    35.6745  35.9328

          k = 0.0000 0.6000 0.0000 (   552 PWs)   bands (ev):

     6.6994   8.5220  10.0028  10.3815  10.3815  10.6706  27.9940  28.1758
    28.1758  30.9404

          k =-0.1000 0.7000-0.1000 (   551 PWs)   bands (ev):

     7.4443   8.3827   9.9833  10.4438  10.8496  11.4242  24.5727  25.3990
    27.3726  31.5065

          k = 0.8000-0.2000 0.8000 (   548 PWs)   bands (ev):

     7.9643   8.4107   9.7477  10.3491  10.9365  13.5705  20.4493  23.3165
    27.5066  31.7199

          k = 0.7000-0.1000 0.7000 (   545 PWs)   bands (ev):

     8.3105   8.5480   9.4569  10.2347  10.7908  16.1799  17.2307  21.9183
    28.5815  32.1343

          k = 0.6000-0.0000 0.6000 (   546 PWs)   bands (ev):

     8.3706   8.8160   9.1097  10.0993  10.5371  14.0094  19.7877  21.7094
    30.4739  32.9613

          k = 0.0000 0.8000 0.0000 (   556 PWs)   bands (ev):

     7.5307   8.1795  10.8120  10.8306  10.8306  11.8562  22.6155  26.2226
    26.2226  30.2550

          k = 0.9000-0.1000 0.9000 (   550 PWs)   bands (ev):

     7.6974   8.1491  10.5782  10.7396  10.9749  13.7968  20.6442  23.4403
    26.0417  31.0126

          k = 0.8000 0.0000 0.8000 (   542 PWs)   bands (ev):

     7.9926   8.2964  10.0118  10.5709  10.8950  15.9114  19.6676  20.1686
    26.8717  31.5054

          k = 0.0000-1.0000 0.0000 (   524 PWs)   bands (ev):

     7.5856   8.0512  10.8668  11.0236  11.0236  13.9029  19.5684  25.5207
    25.5207  30.0376

          k =-0.2000 0.4000 0.0000 (   548 PWs)   bands (ev):

     5.3219   8.9786   9.6269   9.9223  10.0947  10.6347  27.8470  28.4766
    34.5966  36.0856

          k =-0.3000 0.5000-0.1000 (   546 PWs)   bands (ev):

     6.6999   8.8946   9.4049   9.9283  10.3874  11.1481  23.2776  27.5824
    32.0637  36.1777

          k = 0.6000-0.4000 0.8000 (   546 PWs)   bands (ev):

     7.6997   9.0819   9.3194   9.8239  10.7261  12.2775  19.0556  27.6360
    29.9688  35.6598

          k = 0.5000-0.3000 0.7000 (   552 PWs)   bands (ev):

     7.9060   9.0515   9.5857   9.7632  10.8369  13.7599  16.5006  28.2227
    28.6836  35.4408

          k =-0.2000 0.6000 0.0000 (   543 PWs)   bands (ev):

     7.0374   8.6034   9.5138  10.3804  10.4365  11.1699  25.4757  26.0646
    28.4719  34.3147

          k = 0.7000-0.3000 0.9000 (   549 PWs)   bands (ev):

     7.9143   8.5987   9.3286  10.2739  10.7632  12.5757  21.3274  25.6245
    26.1931  34.8875

          k = 0.6000-0.2000 0.8000 (   547 PWs)   bands (ev):

     8.3040   8.6609   9.2885  10.1272  10.8478  14.9418  17.6369  24.4212
    26.2975  35.2459

          k = 0.5000-0.1000 0.7000 (   546 PWs)   bands (ev):

     8.3636   8.7705   9.1166  10.0944  10.6948  14.2140  18.7188  23.3991
    27.6328  36.1249

          k = 0.4000 0.0000 0.6000 (   548 PWs)   bands (ev):

     7.8243   8.8285   9.1057  10.1504  10.4038  12.2574  22.3496  23.4865
    29.5934  37.5344

          k = 0.8000-0.2000 1.0000 (   551 PWs)   bands (ev):

     7.7814   8.3028   9.9943  10.6914  10.8287  12.9268  22.9467  23.8478
    24.5173  33.2657

          k = 0.7000-0.1000 0.9000 (   549 PWs)   bands (ev):

     8.0839   8.4016   9.7050  10.4847  10.9413  15.3643  20.2222  21.2457
    24.6461  34.2710

          k = 0.6000 0.0000 0.8000 (   539 PWs)   bands (ev):

     8.4148   8.5620   9.2963  10.2872  10.8321  16.8672  17.9821  20.7425
    25.8191  35.0616

          k =-0.2000-1.0000 0.0000 (   544 PWs)   bands (ev):

     7.8030   8.1893  10.3354  10.7007  11.0237  15.0228  19.7504  23.2515
    23.9385  32.9259

          k = 0.6000-0.2000 1.0000 (   549 PWs)   bands (ev):

     8.3224   8.6783   9.1087  10.3470  10.8255  14.6523  20.7029  22.2139
    24.0418  38.3403

          k = 0.5000-0.1000 0.9000 (   540 PWs)   bands (ev):

     8.4243   8.7862   9.0185  10.2498  10.9311  17.2496  17.8595  22.4447
    22.6709  38.8886

          k =-0.4000-1.0000 0.0000 (   534 PWs)   bands (ev):

     8.2418   8.6157   9.3483  10.3439  11.0242  17.2900  20.0982  20.3815
    21.8218  37.9550

     the Fermi energy is    12.3779 ev

!    total energy              =    -210.41956609 Ry
     Harris-Foulkes estimate   =    -210.41956609 Ry
     estimated scf accuracy    <          2.8E-10 Ry

     total all-electron energy =     -3307.298627 Ry

     The total energy is the sum of the following terms:

     one-electron contribution =     -28.00726860 Ry
     hartree contribution      =      30.52547590 Ry
     xc contribution           =     -44.11123806 Ry
     ewald contribution        =     -81.22522864 Ry
     one-center paw contrib.   =     -87.60092063 Ry
     smearing contrib. (-TS)   =      -0.00038607 Ry

     convergence has been achieved in   6 iterations

     Forces acting on atoms (cartesian axes, Ry/au):

     atom    1 type  1   force =     0.00000000    0.00000000    0.00000000

     Total force =     0.000000     Total SCF correction =     0.000000


     Computing stress (Cartesian axis) and pressure

          total   stress  (Ry/bohr**3)                   (kbar)     P=  -67.40
  -0.00045816   0.00000000   0.00000000        -67.40      0.00      0.00
   0.00000000  -0.00045816  -0.00000000          0.00    -67.40     -0.00
   0.00000000  -0.00000000  -0.00045816          0.00     -0.00    -67.40


     Writing output data file Cu.save/

     init_run     :      0.36s CPU      0.38s WALL (       1 calls)
     electrons    :      2.68s CPU      2.90s WALL (       1 calls)
     forces       :      0.04s CPU      0.04s WALL (       1 calls)
     stress       :      0.11s CPU      0.11s WALL (       1 calls)

     Called by init_run:
     wfcinit      :      0.08s CPU      0.09s WALL (       1 calls)
     potinit      :      0.11s CPU      0.12s WALL (       1 calls)
     hinit0       :      0.14s CPU      0.14s WALL (       1 calls)

     Called by electrons:
     c_bands      :      1.71s CPU      1.83s WALL (       7 calls)
     sum_band     :      0.34s CPU      0.36s WALL (       7 calls)
     v_of_rho     :      0.02s CPU      0.02s WALL (       7 calls)
     newd         :      0.04s CPU      0.04s WALL (       7 calls)
     PAW_pot      :      0.67s CPU      0.76s WALL (       7 calls)
     mix_rho      :      0.00s CPU      0.00s WALL (       7 calls)

     Called by c_bands:
     init_us_2    :      0.06s CPU      0.06s WALL (     799 calls)
     cegterg      :      1.63s CPU      1.75s WALL (     329 calls)

     Called by sum_band:
     sum_band:bec :      0.00s CPU      0.00s WALL (     329 calls)
     addusdens    :      0.03s CPU      0.03s WALL (       7 calls)

     Called by *egterg:
     h_psi        :      1.26s CPU      1.36s WALL (    1048 calls)
     s_psi        :      0.04s CPU      0.04s WALL (    1048 calls)
     g_psi        :      0.00s CPU      0.00s WALL (     672 calls)
     cdiaghg      :      0.18s CPU      0.19s WALL (     954 calls)

     Called by h_psi:
     h_psi:pot    :      1.26s CPU      1.35s WALL (    1048 calls)
     h_psi:calbec :      0.07s CPU      0.07s WALL (    1048 calls)
     vloc_psi     :      1.15s CPU      1.23s WALL (    1048 calls)
     add_vuspsi   :      0.04s CPU      0.04s WALL (    1048 calls)

     General routines
     calbec       :      0.12s CPU      0.12s WALL (    1612 calls)
     fft          :      0.02s CPU      0.02s WALL (     104 calls)
     ffts         :      0.00s CPU      0.00s WALL (       7 calls)
     fftw         :      1.29s CPU      1.39s WALL (   19926 calls)

     Parallel routines
     fft_scatt_xy :      0.11s CPU      0.12s WALL (   20037 calls)
     fft_scatt_yz :      0.45s CPU      0.48s WALL (   20037 calls)

     PWSCF        :     3.99s CPU         4.29s WALL


   This run was terminated on:  23:25:38  25Mar2024            

=------------------------------------------------------------------------------=
   JOB DONE.
=------------------------------------------------------------------------------=
