
     Program PWSCF v.6.3MaX starts on 25Mar2024 at 23:26:55 

     This program is part of the open-source Quantum ESPRESSO suite
     for quantum simulation of materials; please cite
         "P. Giannozzi et al., J. Phys.:Condens. Matter 21 395502 (2009);
         "P. Giannozzi et al., J. Phys.:Condens. Matter 29 465901 (2017);
          URL http://www.quantum-espresso.org", 
     in publications or presentations arising from this work. More details at
     http://www.quantum-espresso.org/quote

     Parallel version (MPI), running on     5 processors

     MPI processes distributed on     1 nodes
     R & G space division:  proc/nbgrp/npool/nimage =       5
     Waiting for input...
     Reading input from standard input

     Current dimensions of program PWSCF are:
     Max number of different atomic species (ntypx) = 10
     Max number of k-points (npk) =  40000
     Max angular momentum in pseudopotentials (lmaxx) =  3
               file Cu.pbesol-dn-rrkjus_psl.1.0.0.UPF: wavefunction(s)  3D renormalized

     Subspace diagonalization in iterative solution of the eigenvalue problem:
     a serial algorithm will be used


     Parallelization info
     --------------------
     sticks:   dense  smooth     PW     G-vecs:    dense   smooth      PW
     Min          72      72     24                  876      876     173
     Max          73      73     25                  877      877     174
     Sum         361     361    121                 4381     4381     869



     bravais-lattice index     =            2
     lattice parameter (alat)  =       6.8300  a.u.
     unit-cell volume          =      79.6530 (a.u.)^3
     number of atoms/cell      =            1
     number of atomic types    =            1
     number of electrons       =        11.00
     number of Kohn-Sham states=           10
     kinetic-energy cutoff     =      55.0000  Ry
     charge density cutoff     =     220.0000  Ry
     convergence threshold     =      1.0E-08
     mixing beta               =       0.7000
     number of iterations used =            8  plain     mixing
     Exchange-correlation      = PBESOL ( 1  4 10  8 0 0)

     celldm(1)=   6.830000  celldm(2)=   0.000000  celldm(3)=   0.000000
     celldm(4)=   0.000000  celldm(5)=   0.000000  celldm(6)=   0.000000

     crystal axes: (cart. coord. in units of alat)
               a(1) = (  -0.500000   0.000000   0.500000 )  
               a(2) = (   0.000000   0.500000   0.500000 )  
               a(3) = (  -0.500000   0.500000   0.000000 )  

     reciprocal axes: (cart. coord. in units 2 pi/alat)
               b(1) = ( -1.000000 -1.000000  1.000000 )  
               b(2) = (  1.000000  1.000000  1.000000 )  
               b(3) = ( -1.000000  1.000000 -1.000000 )  


     PseudoPot. # 1 for Cu read from file:
     /home/lorenzo/pseudos/Cu/Cu.pbesol-dn-rrkjus_psl.1.0.0.UPF
     MD5 check sum: bfa4c7aafbc42e028d5f4ccf7ceed93d
     Pseudo is Ultrasoft + core correction, Zval = 11.0
     Generated using "atomic" code by A. Dal Corso v.6.3
     Using radial grid of 1199 points,  6 beta functions with: 
                l(1) =   0
                l(2) =   0
                l(3) =   1
                l(4) =   1
                l(5) =   2
                l(6) =   2
     Q(r) pseudized with 0 coefficients 


     atomic species   valence    mass     pseudopotential
        Cu            11.00    63.54600     Cu( 1.00)

     48 Sym. Ops., with inversion, found



   Cartesian axes

     site n.     atom                  positions (alat units)
         1           Cu  tau(   1) = (   0.0000000   0.0000000   0.0000000  )

     number of k points=    16  gaussian smearing, width (Ry)=  0.0100
                       cart. coord. in units 2pi/alat
        k(    1) = (   0.0000000   0.0000000   0.0000000), wk =   0.0092593
        k(    2) = (  -0.1666667   0.1666667  -0.1666667), wk =   0.0740741
        k(    3) = (  -0.3333333   0.3333333  -0.3333333), wk =   0.0740741
        k(    4) = (   0.5000000  -0.5000000   0.5000000), wk =   0.0370370
        k(    5) = (   0.0000000   0.3333333   0.0000000), wk =   0.0555556
        k(    6) = (  -0.1666667   0.5000000  -0.1666667), wk =   0.2222222
        k(    7) = (   0.6666667  -0.3333333   0.6666667), wk =   0.2222222
        k(    8) = (   0.5000000  -0.1666667   0.5000000), wk =   0.2222222
        k(    9) = (   0.3333333   0.0000000   0.3333333), wk =   0.1111111
        k(   10) = (   0.0000000   0.6666667   0.0000000), wk =   0.0555556
        k(   11) = (   0.8333333  -0.1666667   0.8333333), wk =   0.2222222
        k(   12) = (   0.6666667  -0.0000000   0.6666667), wk =   0.1111111
        k(   13) = (   0.0000000  -1.0000000   0.0000000), wk =   0.0277778
        k(   14) = (   0.6666667  -0.3333333   1.0000000), wk =   0.2222222
        k(   15) = (   0.5000000  -0.1666667   0.8333333), wk =   0.2222222
        k(   16) = (  -0.3333333  -1.0000000   0.0000000), wk =   0.1111111

     Dense  grid:     4381 G-vectors     FFT dimensions: (  24,  24,  24)

     Estimated max dynamical RAM per process >       4.86 MB

     Estimated total dynamical RAM >      24.30 MB

     Initial potential from superposition of free atoms

     starting charge   10.99979, renormalised to   11.00000
     Starting wfcs are    9 randomized atomic wfcs +    1 random wfcs

     total cpu time spent up to now is        0.9 secs

     Self-consistent Calculation

     iteration #  1     ecut=    55.00 Ry     beta= 0.70
     Davidson diagonalization with overlap
     ethr =  1.00E-02,  avg # of iterations =  3.9

     Threshold (ethr) on eigenvalues was too large:
     Diagonalizing with lowered threshold

     Davidson diagonalization with overlap
     ethr =  6.69E-04,  avg # of iterations =  1.1

     total cpu time spent up to now is        1.1 secs

     total energy              =    -122.36161931 Ry
     Harris-Foulkes estimate   =    -122.41989157 Ry
     estimated scf accuracy    <       0.07331974 Ry

     iteration #  2     ecut=    55.00 Ry     beta= 0.70
     Davidson diagonalization with overlap
     ethr =  6.67E-04,  avg # of iterations =  2.1

     total cpu time spent up to now is        1.2 secs

     total energy              =    -122.36171232 Ry
     Harris-Foulkes estimate   =    -122.46548489 Ry
     estimated scf accuracy    <       0.27092866 Ry

     iteration #  3     ecut=    55.00 Ry     beta= 0.70
     Davidson diagonalization with overlap
     ethr =  6.67E-04,  avg # of iterations =  2.1

     total cpu time spent up to now is        1.3 secs

     total energy              =    -122.40522786 Ry
     Harris-Foulkes estimate   =    -122.40524678 Ry
     estimated scf accuracy    <       0.00005954 Ry

     iteration #  4     ecut=    55.00 Ry     beta= 0.70
     Davidson diagonalization with overlap
     ethr =  5.41E-07,  avg # of iterations =  2.4

     total cpu time spent up to now is        1.4 secs

     total energy              =    -122.40528529 Ry
     Harris-Foulkes estimate   =    -122.40528851 Ry
     estimated scf accuracy    <       0.00000957 Ry

     iteration #  5     ecut=    55.00 Ry     beta= 0.70
     Davidson diagonalization with overlap
     ethr =  8.70E-08,  avg # of iterations =  1.1

     total cpu time spent up to now is        1.5 secs

     total energy              =    -122.40528706 Ry
     Harris-Foulkes estimate   =    -122.40528721 Ry
     estimated scf accuracy    <       0.00000044 Ry

     iteration #  6     ecut=    55.00 Ry     beta= 0.70
     Davidson diagonalization with overlap
     ethr =  4.04E-09,  avg # of iterations =  1.3

     total cpu time spent up to now is        1.6 secs

     End of self-consistent calculation

          k = 0.0000 0.0000 0.0000 (   537 PWs)   bands (ev):

     3.0497   9.4869   9.4869   9.4869  10.3215  10.3215  35.3878  37.7548
    37.7548  37.7548

          k =-0.1667 0.1667-0.1667 (   552 PWs)   bands (ev):

     4.0382   9.3078   9.6275   9.6275  10.2955  10.2955  29.1159  35.7281
    35.9973  35.9973

          k =-0.3333 0.3333-0.3333 (   555 PWs)   bands (ev):

     6.4327   9.4539   9.5677   9.5677  10.6258  10.6258  21.0604  34.5030
    34.7697  34.7697

          k = 0.5000-0.5000 0.5000 (   568 PWs)   bands (ev):

     7.3856   9.4521   9.4521  10.8994  10.8994  11.4103  16.2250  33.7959
    34.5088  34.5088

          k = 0.0000 0.3333 0.0000 (   548 PWs)   bands (ev):

     4.3605   9.1178   9.8014   9.8014  10.0086  10.4589  32.2088  32.2088
    32.7302  34.4030

          k =-0.1667 0.5000-0.1667 (   556 PWs)   bands (ev):

     6.3284   8.8565   9.5362   9.9310  10.6462  10.7185  24.2434  30.2895
    31.3638  33.1671

          k = 0.6667-0.3333 0.6667 (   548 PWs)   bands (ev):

     7.8142   9.0687   9.5516   9.7808  10.9194  12.9438  17.4737  28.2202
    30.5653  32.8675

          k = 0.5000-0.1667 0.5000 (   549 PWs)   bands (ev):

     7.6262   9.2397   9.3098   9.7722  10.5504  12.1405  19.4530  26.6851
    33.1755  34.1908

          k = 0.3333 0.0000 0.3333 (   554 PWs)   bands (ev):

     5.5580   9.0560   9.5953   9.9170  10.0207  10.8002  26.6832  27.3867
    37.2917  37.7049

          k = 0.0000 0.6667 0.0000 (   556 PWs)   bands (ev):

     7.1534   8.4100  10.3892  10.5662  10.5662  10.7381  26.1136  27.4101
    27.4101  30.6674

          k = 0.8333-0.1667 0.8333 (   548 PWs)   bands (ev):

     7.8858   8.3268  10.0305  10.5132  10.9669  13.6690  21.4040  22.3196
    26.9314  31.5037

          k = 0.6667-0.0000 0.6667 (   544 PWs)   bands (ev):

     8.4386   8.6040   9.3444  10.2487  10.6993  15.7054  18.3747  20.9400
    29.0753  32.3500

          k = 0.0000-1.0000 0.0000 (   524 PWs)   bands (ev):

     7.5978   8.0709  10.8805  11.0457  11.0457  13.9099  19.5753  25.5263
    25.5263  30.0500

          k = 0.6667-0.3333 1.0000 (   549 PWs)   bands (ev):

     7.9126   8.6792   9.1984  10.3653  10.5655  12.4142  22.7095  23.7252
    27.2002  37.2133

          k = 0.5000-0.1667 0.8333 (   552 PWs)   bands (ev):

     8.5577   8.5925   9.1649  10.1753  10.8675  16.0163  17.2456  24.2064
    24.4321  37.5423

          k =-0.3333-1.0000 0.0000 (   534 PWs)   bands (ev):

     8.1175   8.4595   9.6767  10.4717  11.0461  16.4722  20.1186  21.1334
    22.4551  36.1708

     the Fermi energy is    12.4451 ev

!    total energy              =    -122.40528713 Ry
     Harris-Foulkes estimate   =    -122.40528713 Ry
     estimated scf accuracy    <          1.8E-09 Ry

     The total energy is the sum of the following terms:

     one-electron contribution =     -27.59426988 Ry
     hartree contribution      =      30.52611011 Ry
     xc contribution           =     -44.11129909 Ry
     ewald contribution        =     -81.22522864 Ry
     smearing contrib. (-TS)   =      -0.00059964 Ry

     convergence has been achieved in   6 iterations

     Forces acting on atoms (cartesian axes, Ry/au):

     atom    1 type  1   force =     0.00000000    0.00000000    0.00000000

     Total force =     0.000000     Total SCF correction =     0.000000


     Computing stress (Cartesian axis) and pressure

          total   stress  (Ry/bohr**3)                   (kbar)     P=  -47.74
  -0.00032451   0.00000000   0.00000000        -47.74      0.00      0.00
   0.00000000  -0.00032451   0.00000000          0.00    -47.74      0.00
   0.00000000   0.00000000  -0.00032451          0.00      0.00    -47.74


     Writing output data file Cu.save/

     init_run     :      0.17s CPU      0.17s WALL (       1 calls)
     electrons    :      0.69s CPU      0.75s WALL (       1 calls)
     forces       :      0.02s CPU      0.02s WALL (       1 calls)
     stress       :      0.07s CPU      0.07s WALL (       1 calls)

     Called by init_run:
     wfcinit      :      0.03s CPU      0.03s WALL (       1 calls)
     potinit      :      0.01s CPU      0.01s WALL (       1 calls)
     hinit0       :      0.13s CPU      0.13s WALL (       1 calls)

     Called by electrons:
     c_bands      :      0.53s CPU      0.56s WALL (       7 calls)
     sum_band     :      0.12s CPU      0.13s WALL (       7 calls)
     v_of_rho     :      0.02s CPU      0.02s WALL (       7 calls)
     newd         :      0.02s CPU      0.03s WALL (       7 calls)
     mix_rho      :      0.00s CPU      0.00s WALL (       7 calls)

     Called by c_bands:
     init_us_2    :      0.02s CPU      0.02s WALL (     272 calls)
     cegterg      :      0.51s CPU      0.54s WALL (     112 calls)

     Called by sum_band:
     sum_band:bec :      0.00s CPU      0.00s WALL (     112 calls)
     addusdens    :      0.03s CPU      0.03s WALL (       7 calls)

     Called by *egterg:
     h_psi        :      0.40s CPU      0.42s WALL (     353 calls)
     s_psi        :      0.01s CPU      0.01s WALL (     353 calls)
     g_psi        :      0.00s CPU      0.00s WALL (     225 calls)
     cdiaghg      :      0.06s CPU      0.06s WALL (     321 calls)

     Called by h_psi:
     h_psi:pot    :      0.39s CPU      0.42s WALL (     353 calls)
     h_psi:calbec :      0.02s CPU      0.02s WALL (     353 calls)
     vloc_psi     :      0.36s CPU      0.38s WALL (     353 calls)
     add_vuspsi   :      0.01s CPU      0.01s WALL (     353 calls)

     General routines
     calbec       :      0.03s CPU      0.04s WALL (     545 calls)
     fft          :      0.01s CPU      0.01s WALL (     104 calls)
     ffts         :      0.00s CPU      0.00s WALL (       7 calls)
     fftw         :      0.40s CPU      0.43s WALL (    6810 calls)

     Parallel routines
     fft_scatt_xy :      0.04s CPU      0.04s WALL (    6921 calls)
     fft_scatt_yz :      0.11s CPU      0.12s WALL (    6921 calls)

     PWSCF        :     1.64s CPU         1.74s WALL


   This run was terminated on:  23:26:57  25Mar2024            

=------------------------------------------------------------------------------=
   JOB DONE.
=------------------------------------------------------------------------------=
