
     Program PWSCF v.6.3MaX starts on 25Mar2024 at 23:14:55 

     This program is part of the open-source Quantum ESPRESSO suite
     for quantum simulation of materials; please cite
         "P. Giannozzi et al., J. Phys.:Condens. Matter 21 395502 (2009);
         "P. Giannozzi et al., J. Phys.:Condens. Matter 29 465901 (2017);
          URL http://www.quantum-espresso.org", 
     in publications or presentations arising from this work. More details at
     http://www.quantum-espresso.org/quote

     Parallel version (MPI), running on     5 processors

     MPI processes distributed on     1 nodes
     R & G space division:  proc/nbgrp/npool/nimage =       5
     Waiting for input...
     Reading input from standard input

     Current dimensions of program PWSCF are:
     Max number of different atomic species (ntypx) = 10
     Max number of k-points (npk) =  40000
     Max angular momentum in pseudopotentials (lmaxx) =  3
               file Cu.pbe-dn-kjpaw_psl.1.0.0.UPF: wavefunction(s)  4S 3D renormalized

     Subspace diagonalization in iterative solution of the eigenvalue problem:
     a serial algorithm will be used


     Parallelization info
     --------------------
     sticks:   dense  smooth     PW     G-vecs:    dense   smooth      PW
     Min          32      32     12                  272      272      66
     Max          33      33     13                  273      273      67
     Sum         163     163     61                 1363     1363     331



     bravais-lattice index     =            2
     lattice parameter (alat)  =       6.8300  a.u.
     unit-cell volume          =      79.6530 (a.u.)^3
     number of atoms/cell      =            1
     number of atomic types    =            1
     number of electrons       =        11.00
     number of Kohn-Sham states=           10
     kinetic-energy cutoff     =      25.0000  Ry
     charge density cutoff     =     100.0000  Ry
     convergence threshold     =      1.0E-08
     mixing beta               =       0.7000
     number of iterations used =            8  plain     mixing
     Exchange-correlation      = SLA PW PBX PBC ( 1  4  3  4 0 0)

     celldm(1)=   6.830000  celldm(2)=   0.000000  celldm(3)=   0.000000
     celldm(4)=   0.000000  celldm(5)=   0.000000  celldm(6)=   0.000000

     crystal axes: (cart. coord. in units of alat)
               a(1) = (  -0.500000   0.000000   0.500000 )  
               a(2) = (   0.000000   0.500000   0.500000 )  
               a(3) = (  -0.500000   0.500000   0.000000 )  

     reciprocal axes: (cart. coord. in units 2 pi/alat)
               b(1) = ( -1.000000 -1.000000  1.000000 )  
               b(2) = (  1.000000  1.000000  1.000000 )  
               b(3) = ( -1.000000  1.000000 -1.000000 )  


     PseudoPot. # 1 for Cu read from file:
     /home/lorenzo/pseudos/Cu/Cu.pbe-dn-kjpaw_psl.1.0.0.UPF
     MD5 check sum: cfffd1f38ee05704b3e17f46f1730a6f
     Pseudo is Projector augmented-wave + core cor, Zval = 11.0
     Generated using "atomic" code by A. Dal Corso v.6.3
     Shape of augmentation charge: PSQ
     Using radial grid of 1199 points,  6 beta functions with: 
                l(1) =   0
                l(2) =   0
                l(3) =   1
                l(4) =   1
                l(5) =   2
                l(6) =   2
     Q(r) pseudized with 0 coefficients 


     atomic species   valence    mass     pseudopotential
        Cu            11.00    63.54600     Cu( 1.00)

     48 Sym. Ops., with inversion, found



   Cartesian axes

     site n.     atom                  positions (alat units)
         1           Cu  tau(   1) = (   0.0000000   0.0000000   0.0000000  )

     number of k points=    16  gaussian smearing, width (Ry)=  0.0100
                       cart. coord. in units 2pi/alat
        k(    1) = (   0.0000000   0.0000000   0.0000000), wk =   0.0092593
        k(    2) = (  -0.1666667   0.1666667  -0.1666667), wk =   0.0740741
        k(    3) = (  -0.3333333   0.3333333  -0.3333333), wk =   0.0740741
        k(    4) = (   0.5000000  -0.5000000   0.5000000), wk =   0.0370370
        k(    5) = (   0.0000000   0.3333333   0.0000000), wk =   0.0555556
        k(    6) = (  -0.1666667   0.5000000  -0.1666667), wk =   0.2222222
        k(    7) = (   0.6666667  -0.3333333   0.6666667), wk =   0.2222222
        k(    8) = (   0.5000000  -0.1666667   0.5000000), wk =   0.2222222
        k(    9) = (   0.3333333   0.0000000   0.3333333), wk =   0.1111111
        k(   10) = (   0.0000000   0.6666667   0.0000000), wk =   0.0555556
        k(   11) = (   0.8333333  -0.1666667   0.8333333), wk =   0.2222222
        k(   12) = (   0.6666667  -0.0000000   0.6666667), wk =   0.1111111
        k(   13) = (   0.0000000  -1.0000000   0.0000000), wk =   0.0277778
        k(   14) = (   0.6666667  -0.3333333   1.0000000), wk =   0.2222222
        k(   15) = (   0.5000000  -0.1666667   0.8333333), wk =   0.2222222
        k(   16) = (  -0.3333333  -1.0000000   0.0000000), wk =   0.1111111

     Dense  grid:     1363 G-vectors     FFT dimensions: (  15,  15,  15)

     Estimated max dynamical RAM per process >       1.96 MB

     Estimated total dynamical RAM >       9.81 MB

     Check: negative/imaginary core charge=   -0.000134    0.000000

     Initial potential from superposition of free atoms

     starting charge   10.99977, renormalised to   11.00000
     Starting wfcs are    9 randomized atomic wfcs +    1 random wfcs
     Checking if some PAW data can be deallocated... 

     total cpu time spent up to now is        1.1 secs

     Self-consistent Calculation

     iteration #  1     ecut=    25.00 Ry     beta= 0.70
     Davidson diagonalization with overlap
     ethr =  1.00E-02,  avg # of iterations =  3.9

     total cpu time spent up to now is        1.3 secs

     total energy              =    -212.87616402 Ry
     Harris-Foulkes estimate   =    -212.99969154 Ry
     estimated scf accuracy    <       0.15307020 Ry

     iteration #  2     ecut=    25.00 Ry     beta= 0.70
     Davidson diagonalization with overlap
     ethr =  1.39E-03,  avg # of iterations =  2.0

     total cpu time spent up to now is        1.4 secs

     total energy              =    -212.90649481 Ry
     Harris-Foulkes estimate   =    -213.07265801 Ry
     estimated scf accuracy    <       0.39332812 Ry

     iteration #  3     ecut=    25.00 Ry     beta= 0.70
     Davidson diagonalization with overlap
     ethr =  1.39E-03,  avg # of iterations =  2.0

     total cpu time spent up to now is        1.6 secs

     total energy              =    -212.96738187 Ry
     Harris-Foulkes estimate   =    -212.96805695 Ry
     estimated scf accuracy    <       0.00116814 Ry

     iteration #  4     ecut=    25.00 Ry     beta= 0.70
     Davidson diagonalization with overlap
     ethr =  1.06E-05,  avg # of iterations =  2.4

     total cpu time spent up to now is        1.7 secs

     total energy              =    -212.96790395 Ry
     Harris-Foulkes estimate   =    -212.96821966 Ry
     estimated scf accuracy    <       0.00093092 Ry

     iteration #  5     ecut=    25.00 Ry     beta= 0.70
     Davidson diagonalization with overlap
     ethr =  8.46E-06,  avg # of iterations =  1.0

     total cpu time spent up to now is        1.9 secs

     total energy              =    -212.96800214 Ry
     Harris-Foulkes estimate   =    -212.96801202 Ry
     estimated scf accuracy    <       0.00002900 Ry

     iteration #  6     ecut=    25.00 Ry     beta= 0.70
     Davidson diagonalization with overlap
     ethr =  2.64E-07,  avg # of iterations =  1.6

     total cpu time spent up to now is        2.0 secs

     total energy              =    -212.96800662 Ry
     Harris-Foulkes estimate   =    -212.96800666 Ry
     estimated scf accuracy    <       0.00000048 Ry

     iteration #  7     ecut=    25.00 Ry     beta= 0.70
     Davidson diagonalization with overlap
     ethr =  4.37E-09,  avg # of iterations =  1.8

     total cpu time spent up to now is        2.2 secs

     End of self-consistent calculation

          k = 0.0000 0.0000 0.0000 (   169 PWs)   bands (ev):

     3.3310   9.2946   9.2946   9.2946  10.0714  10.0714  35.6805  38.0123
    38.0123  38.0123

          k =-0.1667 0.1667-0.1667 (   171 PWs)   bands (ev):

     4.3163   9.1623   9.4293   9.4293  10.0540  10.0540  29.5739  36.0484
    36.4878  36.4878

          k =-0.3333 0.3333-0.3333 (   165 PWs)   bands (ev):

     6.6281   9.4091   9.4091   9.4829  10.4822  10.4822  21.4283  34.8138
    35.2042  35.2042

          k = 0.5000-0.5000 0.5000 (   168 PWs)   bands (ev):

     7.3637   9.3196   9.3196  10.7004  10.7004  11.6797  16.3960  34.0614
    34.7860  34.7860

          k = 0.0000 0.3333 0.0000 (   169 PWs)   bands (ev):

     4.6371   8.9468   9.6098   9.6098   9.8841  10.2002  32.6379  32.6379
    33.3512  34.8272

          k =-0.1667 0.5000-0.1667 (   161 PWs)   bands (ev):

     6.5573   8.7750   9.4416   9.7992  10.5575  10.6336  24.6638  30.7110
    31.9348  33.6836

          k = 0.6667-0.3333 0.6667 (   168 PWs)   bands (ev):

     7.7886   8.9732   9.4645   9.6597  10.7517  13.0495  17.7110  28.6456
    30.9701  33.2988

          k = 0.5000-0.1667 0.5000 (   166 PWs)   bands (ev):

     7.6852   9.1280   9.2717   9.6718  10.3784  12.1280  19.7631  27.0804
    33.6707  34.5740

          k = 0.3333 0.0000 0.3333 (   160 PWs)   bands (ev):

     5.8197   8.9707   9.4458   9.7701   9.9667  10.6926  27.2130  27.7470
    37.6456  38.4100

          k = 0.0000 0.6667 0.0000 (   170 PWs)   bands (ev):

     7.2556   8.2960  10.4157  10.4157  10.4380  10.5029  26.5283  27.7367
    27.7367  31.5129

          k = 0.8333-0.1667 0.8333 (   172 PWs)   bands (ev):

     7.8404   8.2420   9.9311  10.3082  10.7401  13.8277  21.7399  22.6672
    27.2370  32.1619

          k = 0.6667-0.0000 0.6667 (   172 PWs)   bands (ev):

     8.3411   8.5321   9.2427  10.0727  10.4928  15.8884  18.6420  21.2482
    29.4342  32.8825

          k = 0.0000-1.0000 0.0000 (   174 PWs)   bands (ev):

     7.5184   7.9556  10.8082  10.8279  10.8279  14.1920  19.8213  25.8091
    25.8091  30.8829

          k = 0.6667-0.3333 1.0000 (   163 PWs)   bands (ev):

     7.9807   8.6193   9.1279  10.2763  10.4592  12.4473  23.1295  24.0649
    27.6363  38.0105

          k = 0.5000-0.1667 0.8333 (   168 PWs)   bands (ev):

     8.4942   8.5163   9.0702  10.0383  10.7207  16.2184  17.4987  24.6265
    24.7401  37.9520

          k =-0.3333-1.0000 0.0000 (   172 PWs)   bands (ev):

     8.0318   8.3946   9.5583  10.2631  10.8513  16.7101  20.3984  21.4957
    22.7399  37.0100

     the Fermi energy is    12.4780 ev

!    total energy              =    -212.96800671 Ry
     Harris-Foulkes estimate   =    -212.96800670 Ry
     estimated scf accuracy    <          1.8E-09 Ry

     total all-electron energy =     -3309.847773 Ry

     The total energy is the sum of the following terms:

     one-electron contribution =     -27.67137499 Ry
     hartree contribution      =      30.23345898 Ry
     xc contribution           =     -44.49556691 Ry
     ewald contribution        =     -81.22522862 Ry
     one-center paw contrib.   =     -89.80869854 Ry
     smearing contrib. (-TS)   =      -0.00059662 Ry

     convergence has been achieved in   7 iterations

     Forces acting on atoms (cartesian axes, Ry/au):

     atom    1 type  1   force =     0.00000000    0.00000000    0.00000000

     Total force =     0.000000     Total SCF correction =     0.000000


     Computing stress (Cartesian axis) and pressure

          total   stress  (Ry/bohr**3)                   (kbar)     P=-1392.35
  -0.00946499  -0.00000000  -0.00000000      -1392.35     -0.00     -0.00
  -0.00000000  -0.00946499   0.00000000         -0.00  -1392.35      0.00
  -0.00000000   0.00000000  -0.00946499         -0.00      0.00  -1392.35


     Writing output data file Cu.save/

     init_run     :      0.20s CPU      0.22s WALL (       1 calls)
     electrons    :      0.93s CPU      1.10s WALL (       1 calls)
     forces       :      0.01s CPU      0.01s WALL (       1 calls)
     stress       :      0.03s CPU      0.03s WALL (       1 calls)

     Called by init_run:
     wfcinit      :      0.01s CPU      0.02s WALL (       1 calls)
     potinit      :      0.09s CPU      0.10s WALL (       1 calls)
     hinit0       :      0.09s CPU      0.09s WALL (       1 calls)

     Called by electrons:
     c_bands      :      0.24s CPU      0.29s WALL (       7 calls)
     sum_band     :      0.04s CPU      0.05s WALL (       7 calls)
     v_of_rho     :      0.01s CPU      0.01s WALL (       8 calls)
     newd         :      0.01s CPU      0.01s WALL (       8 calls)
     PAW_pot      :      0.71s CPU      0.83s WALL (       8 calls)
     mix_rho      :      0.00s CPU      0.00s WALL (       7 calls)

     Called by c_bands:
     init_us_2    :      0.01s CPU      0.01s WALL (     272 calls)
     cegterg      :      0.23s CPU      0.27s WALL (     112 calls)

     Called by sum_band:
     sum_band:bec :      0.00s CPU      0.00s WALL (     112 calls)
     addusdens    :      0.01s CPU      0.01s WALL (       7 calls)

     Called by *egterg:
     h_psi        :      0.15s CPU      0.17s WALL (     362 calls)
     s_psi        :      0.01s CPU      0.01s WALL (     362 calls)
     g_psi        :      0.00s CPU      0.00s WALL (     234 calls)
     cdiaghg      :      0.06s CPU      0.07s WALL (     346 calls)

     Called by h_psi:
     h_psi:pot    :      0.15s CPU      0.17s WALL (     362 calls)
     h_psi:calbec :      0.01s CPU      0.01s WALL (     362 calls)
     vloc_psi     :      0.13s CPU      0.15s WALL (     362 calls)
     add_vuspsi   :      0.01s CPU      0.01s WALL (     362 calls)

     General routines
     calbec       :      0.01s CPU      0.02s WALL (     554 calls)
     fft          :      0.00s CPU      0.01s WALL (     114 calls)
     ffts         :      0.00s CPU      0.00s WALL (       7 calls)
     fftw         :      0.14s CPU      0.16s WALL (    6816 calls)

     Parallel routines
     fft_scatt_xy :      0.02s CPU      0.02s WALL (    6937 calls)
     fft_scatt_yz :      0.05s CPU      0.06s WALL (    6937 calls)

     PWSCF        :     2.04s CPU         2.29s WALL


   This run was terminated on:  23:14:57  25Mar2024            

=------------------------------------------------------------------------------=
   JOB DONE.
=------------------------------------------------------------------------------=
