
     Program PWSCF v.6.3MaX starts on 25Mar2024 at 23: 9:16 

     This program is part of the open-source Quantum ESPRESSO suite
     for quantum simulation of materials; please cite
         "P. Giannozzi et al., J. Phys.:Condens. Matter 21 395502 (2009);
         "P. Giannozzi et al., J. Phys.:Condens. Matter 29 465901 (2017);
          URL http://www.quantum-espresso.org", 
     in publications or presentations arising from this work. More details at
     http://www.quantum-espresso.org/quote

     Parallel version (MPI), running on     5 processors

     MPI processes distributed on     1 nodes
     R & G space division:  proc/nbgrp/npool/nimage =       5
     Waiting for input...
     Reading input from standard input

     Current dimensions of program PWSCF are:
     Max number of different atomic species (ntypx) = 10
     Max number of k-points (npk) =  40000
     Max angular momentum in pseudopotentials (lmaxx) =  3
               file Cu.pbesol-dn-kjpaw_psl.1.0.0.UPF: wavefunction(s)  4S 3D renormalized

     Subspace diagonalization in iterative solution of the eigenvalue problem:
     a serial algorithm will be used


     Parallelization info
     --------------------
     sticks:   dense  smooth     PW     G-vecs:    dense   smooth      PW
     Min          12      12      6                   66       66      17
     Max          13      13      7                   67       67      18
     Sum          61      61     31                  331      331      89



     bravais-lattice index     =            2
     lattice parameter (alat)  =       6.8300  a.u.
     unit-cell volume          =      79.6530 (a.u.)^3
     number of atoms/cell      =            1
     number of atomic types    =            1
     number of electrons       =        11.00
     number of Kohn-Sham states=           10
     kinetic-energy cutoff     =      10.0000  Ry
     charge density cutoff     =      40.0000  Ry
     convergence threshold     =      1.0E-08
     mixing beta               =       0.7000
     number of iterations used =            8  plain     mixing
     Exchange-correlation      = SLA PW PSX PSC ( 1  4 10  8 0 0)

     celldm(1)=   6.830000  celldm(2)=   0.000000  celldm(3)=   0.000000
     celldm(4)=   0.000000  celldm(5)=   0.000000  celldm(6)=   0.000000

     crystal axes: (cart. coord. in units of alat)
               a(1) = (  -0.500000   0.000000   0.500000 )  
               a(2) = (   0.000000   0.500000   0.500000 )  
               a(3) = (  -0.500000   0.500000   0.000000 )  

     reciprocal axes: (cart. coord. in units 2 pi/alat)
               b(1) = ( -1.000000 -1.000000  1.000000 )  
               b(2) = (  1.000000  1.000000  1.000000 )  
               b(3) = ( -1.000000  1.000000 -1.000000 )  


     PseudoPot. # 1 for Cu read from file:
     /home/lorenzo/pseudos/Cu/Cu.pbesol-dn-kjpaw_psl.1.0.0.UPF
     MD5 check sum: 1e9735a74797514c934643dbd229f231
     Pseudo is Projector augmented-wave + core cor, Zval = 11.0
     Generated using "atomic" code by A. Dal Corso v.6.3
     Shape of augmentation charge: PSQ
     Using radial grid of 1199 points,  6 beta functions with: 
                l(1) =   0
                l(2) =   0
                l(3) =   1
                l(4) =   1
                l(5) =   2
                l(6) =   2
     Q(r) pseudized with 0 coefficients 


     atomic species   valence    mass     pseudopotential
        Cu            11.00    63.54600     Cu( 1.00)

     48 Sym. Ops., with inversion, found



   Cartesian axes

     site n.     atom                  positions (alat units)
         1           Cu  tau(   1) = (   0.0000000   0.0000000   0.0000000  )

     number of k points=     4  gaussian smearing, width (Ry)=  0.0100
                       cart. coord. in units 2pi/alat
        k(    1) = (   0.0000000   0.0000000   0.0000000), wk =   0.0740741
        k(    2) = (  -0.3333333   0.3333333  -0.3333333), wk =   0.5925926
        k(    3) = (   0.0000000   0.6666667   0.0000000), wk =   0.4444444
        k(    4) = (   0.6666667  -0.0000000   0.6666667), wk =   0.8888889

     Dense  grid:      331 G-vectors     FFT dimensions: (   9,   9,   9)

     Estimated max dynamical RAM per process >       0.80 MB

     Estimated total dynamical RAM >       4.01 MB

     Check: negative/imaginary core charge=   -0.008419    0.000000

     Initial potential from superposition of free atoms

     starting charge   10.99979, renormalised to   11.00000
     Starting wfcs are    9 randomized atomic wfcs +    1 random wfcs
     Checking if some PAW data can be deallocated... 

     total cpu time spent up to now is        0.9 secs

     Self-consistent Calculation

     iteration #  1     ecut=    10.00 Ry     beta= 0.70
     Davidson diagonalization with overlap
     ethr =  1.00E-02,  avg # of iterations =  3.8

     total cpu time spent up to now is        1.1 secs

     total energy              =    -191.24825389 Ry
     Harris-Foulkes estimate   =    -205.10296137 Ry
     estimated scf accuracy    <      16.31596900 Ry

     iteration #  2     ecut=    10.00 Ry     beta= 0.70
     Davidson diagonalization with overlap
     ethr =  1.00E-02,  avg # of iterations =  3.0

     total cpu time spent up to now is        1.2 secs

     total energy              =    -196.87341341 Ry
     Harris-Foulkes estimate   =    -197.47923561 Ry
     estimated scf accuracy    <       1.02371282 Ry

     iteration #  3     ecut=    10.00 Ry     beta= 0.70
     Davidson diagonalization with overlap
     ethr =  9.31E-03,  avg # of iterations =  1.0

     total cpu time spent up to now is        1.3 secs

     total energy              =    -196.90696940 Ry
     Harris-Foulkes estimate   =    -196.94954866 Ry
     estimated scf accuracy    <       0.07678917 Ry

     iteration #  4     ecut=    10.00 Ry     beta= 0.70
     Davidson diagonalization with overlap
     ethr =  6.98E-04,  avg # of iterations =  2.0

     total cpu time spent up to now is        1.4 secs

     total energy              =    -196.91788521 Ry
     Harris-Foulkes estimate   =    -196.92201174 Ry
     estimated scf accuracy    <       0.00524717 Ry

     iteration #  5     ecut=    10.00 Ry     beta= 0.70
     Davidson diagonalization with overlap
     ethr =  4.77E-05,  avg # of iterations =  2.2

     total cpu time spent up to now is        1.5 secs

     total energy              =    -196.91893656 Ry
     Harris-Foulkes estimate   =    -196.91893722 Ry
     estimated scf accuracy    <       0.00000294 Ry

     iteration #  6     ecut=    10.00 Ry     beta= 0.70
     Davidson diagonalization with overlap
     ethr =  2.67E-08,  avg # of iterations =  2.2

     total cpu time spent up to now is        1.7 secs

     total energy              =    -196.91893855 Ry
     Harris-Foulkes estimate   =    -196.91893772 Ry
     estimated scf accuracy    <       0.00000003 Ry

     iteration #  7     ecut=    10.00 Ry     beta= 0.70
     Davidson diagonalization with overlap
     ethr =  2.60E-10,  avg # of iterations =  2.2

     total cpu time spent up to now is        1.8 secs

     total energy              =    -196.91893863 Ry
     Harris-Foulkes estimate   =    -196.91893856 Ry
     estimated scf accuracy    <       0.00000002 Ry

     iteration #  8     ecut=    10.00 Ry     beta= 0.70
     Davidson diagonalization with overlap
     ethr =  1.96E-10,  avg # of iterations =  2.2

     total cpu time spent up to now is        1.9 secs

     End of self-consistent calculation

          k = 0.0000 0.0000 0.0000 (    51 PWs)   bands (ev):

    -7.6003  -7.6003  -0.8695  -0.8695  -0.8695   1.2168  30.6997  30.6997
    30.6997  39.8392

          k =-0.3333 0.3333-0.3333 (    43 PWs)   bands (ev):

    -1.5669  -0.6720  -0.6720   5.4463   8.0309   8.0309  17.9727  28.5625
    28.5625  38.0925

          k = 0.0000 0.6667 0.0000 (    44 PWs)   bands (ev):

    -3.5850  -2.8978   3.5231   5.9151   5.9151   6.6002  21.4495  23.8713
    23.8713  34.6541

          k = 0.6667-0.0000 0.6667 (    40 PWs)   bands (ev):

    -0.9598   2.7905   4.0446   7.5610  10.8541  13.3724  17.1554  19.1907
    25.0743  36.5138

     the Fermi energy is    10.9648 ev

!    total energy              =    -196.91893866 Ry
     Harris-Foulkes estimate   =    -196.91893863 Ry
     estimated scf accuracy    <          1.5E-10 Ry

     total all-electron energy =     -3293.798000 Ry

     The total energy is the sum of the following terms:

     one-electron contribution =      -1.38507660 Ry
     hartree contribution      =      11.91052684 Ry
     xc contribution           =     -38.66216729 Ry
     ewald contribution        =     -81.22522857 Ry
     one-center paw contrib.   =     -87.55569916 Ry
     smearing contrib. (-TS)   =      -0.00129387 Ry

     convergence has been achieved in   8 iterations

     Forces acting on atoms (cartesian axes, Ry/au):

     atom    1 type  1   force =     0.00000000    0.00000000    0.00000000

     Total force =     0.000000     Total SCF correction =     0.000000


     Computing stress (Cartesian axis) and pressure

          total   stress  (Ry/bohr**3)                   (kbar)     P=********
  -0.30195893   0.00000000   0.00000000     -44419.68      0.00      0.00
   0.00000000  -0.30195893  -0.00000000          0.00 -44419.68     -0.00
   0.00000000  -0.00000000  -0.30195893          0.00     -0.00 -44419.68


     Writing output data file Cu.save/

     init_run     :      0.17s CPU      0.18s WALL (       1 calls)
     electrons    :      0.84s CPU      0.95s WALL (       1 calls)
     forces       :      0.00s CPU      0.00s WALL (       1 calls)
     stress       :      0.01s CPU      0.01s WALL (       1 calls)

     Called by init_run:
     wfcinit      :      0.00s CPU      0.00s WALL (       1 calls)
     potinit      :      0.10s CPU      0.11s WALL (       1 calls)
     hinit0       :      0.05s CPU      0.05s WALL (       1 calls)

     Called by electrons:
     c_bands      :      0.06s CPU      0.07s WALL (       8 calls)
     sum_band     :      0.01s CPU      0.02s WALL (       8 calls)
     v_of_rho     :      0.00s CPU      0.00s WALL (       9 calls)
     newd         :      0.01s CPU      0.01s WALL (       9 calls)
     PAW_pot      :      0.85s CPU      0.95s WALL (       9 calls)
     mix_rho      :      0.00s CPU      0.00s WALL (       8 calls)

     Called by c_bands:
     init_us_2    :      0.00s CPU      0.00s WALL (      76 calls)
     cegterg      :      0.06s CPU      0.07s WALL (      32 calls)

     Called by sum_band:
     sum_band:bec :      0.00s CPU      0.00s WALL (      32 calls)
     addusdens    :      0.00s CPU      0.00s WALL (       8 calls)

     Called by *egterg:
     h_psi        :      0.03s CPU      0.04s WALL (     111 calls)
     s_psi        :      0.00s CPU      0.00s WALL (     111 calls)
     g_psi        :      0.00s CPU      0.00s WALL (      75 calls)
     cdiaghg      :      0.02s CPU      0.02s WALL (     107 calls)

     Called by h_psi:
     h_psi:pot    :      0.03s CPU      0.04s WALL (     111 calls)
     h_psi:calbec :      0.00s CPU      0.00s WALL (     111 calls)
     vloc_psi     :      0.03s CPU      0.03s WALL (     111 calls)
     add_vuspsi   :      0.00s CPU      0.00s WALL (     111 calls)

     General routines
     calbec       :      0.00s CPU      0.00s WALL (     163 calls)
     fft          :      0.00s CPU      0.00s WALL (     125 calls)
     ffts         :      0.00s CPU      0.00s WALL (       8 calls)
     fftw         :      0.03s CPU      0.03s WALL (    1980 calls)

     Parallel routines
     fft_scatt_xy :      0.00s CPU      0.00s WALL (    2113 calls)
     fft_scatt_yz :      0.01s CPU      0.02s WALL (    2113 calls)

     PWSCF        :     1.77s CPU         1.93s WALL


   This run was terminated on:  23: 9:18  25Mar2024            

=------------------------------------------------------------------------------=
   JOB DONE.
=------------------------------------------------------------------------------=
