
     Program PWSCF v.6.3MaX starts on 25Mar2024 at 23:11:59 

     This program is part of the open-source Quantum ESPRESSO suite
     for quantum simulation of materials; please cite
         "P. Giannozzi et al., J. Phys.:Condens. Matter 21 395502 (2009);
         "P. Giannozzi et al., J. Phys.:Condens. Matter 29 465901 (2017);
          URL http://www.quantum-espresso.org", 
     in publications or presentations arising from this work. More details at
     http://www.quantum-espresso.org/quote

     Parallel version (MPI), running on     5 processors

     MPI processes distributed on     1 nodes
     R & G space division:  proc/nbgrp/npool/nimage =       5
     Waiting for input...
     Reading input from standard input

     Current dimensions of program PWSCF are:
     Max number of different atomic species (ntypx) = 10
     Max number of k-points (npk) =  40000
     Max angular momentum in pseudopotentials (lmaxx) =  3
               file Cu.pbesol-dn-rrkjus_psl.1.0.0.UPF: wavefunction(s)  3D renormalized

     Subspace diagonalization in iterative solution of the eigenvalue problem:
     a serial algorithm will be used


     Parallelization info
     --------------------
     sticks:   dense  smooth     PW     G-vecs:    dense   smooth      PW
     Min          18      18      7                  121      121      33
     Max          19      19      8                  123      123      35
     Sum          91      91     37                  609      609     169



     bravais-lattice index     =            2
     lattice parameter (alat)  =       6.8300  a.u.
     unit-cell volume          =      79.6530 (a.u.)^3
     number of atoms/cell      =            1
     number of atomic types    =            1
     number of electrons       =        11.00
     number of Kohn-Sham states=           10
     kinetic-energy cutoff     =      15.0000  Ry
     charge density cutoff     =      60.0000  Ry
     convergence threshold     =      1.0E-08
     mixing beta               =       0.7000
     number of iterations used =            8  plain     mixing
     Exchange-correlation      = PBESOL ( 1  4 10  8 0 0)

     celldm(1)=   6.830000  celldm(2)=   0.000000  celldm(3)=   0.000000
     celldm(4)=   0.000000  celldm(5)=   0.000000  celldm(6)=   0.000000

     crystal axes: (cart. coord. in units of alat)
               a(1) = (  -0.500000   0.000000   0.500000 )  
               a(2) = (   0.000000   0.500000   0.500000 )  
               a(3) = (  -0.500000   0.500000   0.000000 )  

     reciprocal axes: (cart. coord. in units 2 pi/alat)
               b(1) = ( -1.000000 -1.000000  1.000000 )  
               b(2) = (  1.000000  1.000000  1.000000 )  
               b(3) = ( -1.000000  1.000000 -1.000000 )  


     PseudoPot. # 1 for Cu read from file:
     /home/lorenzo/pseudos/Cu/Cu.pbesol-dn-rrkjus_psl.1.0.0.UPF
     MD5 check sum: bfa4c7aafbc42e028d5f4ccf7ceed93d
     Pseudo is Ultrasoft + core correction, Zval = 11.0
     Generated using "atomic" code by A. Dal Corso v.6.3
     Using radial grid of 1199 points,  6 beta functions with: 
                l(1) =   0
                l(2) =   0
                l(3) =   1
                l(4) =   1
                l(5) =   2
                l(6) =   2
     Q(r) pseudized with 0 coefficients 


     atomic species   valence    mass     pseudopotential
        Cu            11.00    63.54600     Cu( 1.00)

     48 Sym. Ops., with inversion, found



   Cartesian axes

     site n.     atom                  positions (alat units)
         1           Cu  tau(   1) = (   0.0000000   0.0000000   0.0000000  )

     number of k points=    35  gaussian smearing, width (Ry)=  0.0100
                       cart. coord. in units 2pi/alat
        k(    1) = (   0.0000000   0.0000000   0.0000000), wk =   0.0027435
        k(    2) = (  -0.1111111   0.1111111  -0.1111111), wk =   0.0219479
        k(    3) = (  -0.2222222   0.2222222  -0.2222222), wk =   0.0219479
        k(    4) = (  -0.3333333   0.3333333  -0.3333333), wk =   0.0219479
        k(    5) = (  -0.4444444   0.4444444  -0.4444444), wk =   0.0219479
        k(    6) = (   0.0000000   0.2222222   0.0000000), wk =   0.0164609
        k(    7) = (  -0.1111111   0.3333333  -0.1111111), wk =   0.0658436
        k(    8) = (  -0.2222222   0.4444444  -0.2222222), wk =   0.0658436
        k(    9) = (  -0.3333333   0.5555556  -0.3333333), wk =   0.0658436
        k(   10) = (   0.5555556  -0.3333333   0.5555556), wk =   0.0658436
        k(   11) = (   0.4444444  -0.2222222   0.4444444), wk =   0.0658436
        k(   12) = (   0.3333333  -0.1111111   0.3333333), wk =   0.0658436
        k(   13) = (   0.2222222  -0.0000000   0.2222222), wk =   0.0329218
        k(   14) = (   0.0000000   0.4444444   0.0000000), wk =   0.0164609
        k(   15) = (  -0.1111111   0.5555556  -0.1111111), wk =   0.0658436
        k(   16) = (  -0.2222222   0.6666667  -0.2222222), wk =   0.0658436
        k(   17) = (   0.6666667  -0.2222222   0.6666667), wk =   0.0658436
        k(   18) = (   0.5555556  -0.1111111   0.5555556), wk =   0.0658436
        k(   19) = (   0.4444444   0.0000000   0.4444444), wk =   0.0329218
        k(   20) = (   0.0000000   0.6666667   0.0000000), wk =   0.0164609
        k(   21) = (  -0.1111111   0.7777778  -0.1111111), wk =   0.0658436
        k(   22) = (   0.7777778  -0.1111111   0.7777778), wk =   0.0658436
        k(   23) = (   0.6666667  -0.0000000   0.6666667), wk =   0.0329218
        k(   24) = (   0.0000000   0.8888889   0.0000000), wk =   0.0164609
        k(   25) = (   0.8888889   0.0000000   0.8888889), wk =   0.0329218
        k(   26) = (  -0.2222222   0.4444444   0.0000000), wk =   0.0658436
        k(   27) = (  -0.3333333   0.5555556  -0.1111111), wk =   0.1316872
        k(   28) = (   0.5555556  -0.3333333   0.7777778), wk =   0.1316872
        k(   29) = (  -0.2222222   0.6666667   0.0000000), wk =   0.0658436
        k(   30) = (   0.6666667  -0.2222222   0.8888889), wk =   0.1316872
        k(   31) = (   0.5555556  -0.1111111   0.7777778), wk =   0.1316872
        k(   32) = (   0.4444444   0.0000000   0.6666667), wk =   0.0658436
        k(   33) = (   0.7777778  -0.1111111   1.0000000), wk =   0.0658436
        k(   34) = (   0.6666667  -0.0000000   0.8888889), wk =   0.0658436
        k(   35) = (   0.5555556  -0.1111111   1.0000000), wk =   0.0658436

     Dense  grid:      609 G-vectors     FFT dimensions: (  12,  12,  12)

     Estimated max dynamical RAM per process >       1.22 MB

     Estimated total dynamical RAM >       6.11 MB

     Check: negative/imaginary core charge=   -0.001129    0.000000

     Initial potential from superposition of free atoms

     starting charge   10.99979, renormalised to   11.00000
     Starting wfcs are    9 randomized atomic wfcs +    1 random wfcs

     total cpu time spent up to now is        0.8 secs

     Self-consistent Calculation

     iteration #  1     ecut=    15.00 Ry     beta= 0.70
     Davidson diagonalization with overlap
     ethr =  1.00E-02,  avg # of iterations =  3.7

     total cpu time spent up to now is        0.9 secs

     total energy              =    -117.38382584 Ry
     Harris-Foulkes estimate   =    -120.38701070 Ry
     estimated scf accuracy    <       3.64818281 Ry

     iteration #  2     ecut=    15.00 Ry     beta= 0.70
     Davidson diagonalization with overlap
     ethr =  1.00E-02,  avg # of iterations =  2.3

     total cpu time spent up to now is        1.1 secs

     total energy              =    -119.10244500 Ry
     Harris-Foulkes estimate   =    -119.95984369 Ry
     estimated scf accuracy    <       1.49185719 Ry

     iteration #  3     ecut=    15.00 Ry     beta= 0.70
     Davidson diagonalization with overlap
     ethr =  1.00E-02,  avg # of iterations =  1.7

     total cpu time spent up to now is        1.1 secs

     total energy              =    -119.17745441 Ry
     Harris-Foulkes estimate   =    -119.25713275 Ry
     estimated scf accuracy    <       0.11527918 Ry

     iteration #  4     ecut=    15.00 Ry     beta= 0.70
     Davidson diagonalization with overlap
     ethr =  1.05E-03,  avg # of iterations =  2.2

     total cpu time spent up to now is        1.2 secs

     total energy              =    -119.19799599 Ry
     Harris-Foulkes estimate   =    -119.25706090 Ry
     estimated scf accuracy    <       0.11130411 Ry

     iteration #  5     ecut=    15.00 Ry     beta= 0.70
     Davidson diagonalization with overlap
     ethr =  1.01E-03,  avg # of iterations =  1.7

     total cpu time spent up to now is        1.3 secs

     total energy              =    -119.21940086 Ry
     Harris-Foulkes estimate   =    -119.21927098 Ry
     estimated scf accuracy    <       0.00008475 Ry

     iteration #  6     ecut=    15.00 Ry     beta= 0.70
     Davidson diagonalization with overlap
     ethr =  7.70E-07,  avg # of iterations =  3.0

     total cpu time spent up to now is        1.4 secs

     total energy              =    -119.21930306 Ry
     Harris-Foulkes estimate   =    -119.21956072 Ry
     estimated scf accuracy    <       0.00043774 Ry

     iteration #  7     ecut=    15.00 Ry     beta= 0.70
     Davidson diagonalization with overlap
     ethr =  7.70E-07,  avg # of iterations =  2.0

     total cpu time spent up to now is        1.5 secs

     total energy              =    -119.21939539 Ry
     Harris-Foulkes estimate   =    -119.21939548 Ry
     estimated scf accuracy    <       0.00000015 Ry

     iteration #  8     ecut=    15.00 Ry     beta= 0.70
     Davidson diagonalization with overlap
     ethr =  1.34E-09,  avg # of iterations =  2.0

     total cpu time spent up to now is        1.6 secs

     total energy              =    -119.21939543 Ry
     Harris-Foulkes estimate   =    -119.21939547 Ry
     estimated scf accuracy    <       0.00000007 Ry

     iteration #  9     ecut=    15.00 Ry     beta= 0.70
     Davidson diagonalization with overlap
     ethr =  6.31E-10,  avg # of iterations =  2.0

     total cpu time spent up to now is        1.7 secs

     End of self-consistent calculation

          k = 0.0000 0.0000 0.0000 (    65 PWs)   bands (ev):

     3.2503   7.8494   7.8494   8.9361   8.9361   8.9361  36.8028  36.8028
    36.8028  36.8031

          k =-0.1111 0.1111-0.1111 (    68 PWs)   bands (ev):

     3.6807   7.3149   7.6350   7.6350   8.8629   8.8629  33.0030  36.5597
    36.5597  37.0924

          k =-0.2222 0.2222-0.2222 (    74 PWs)   bands (ev):

     4.7403   6.0386   6.0386   6.8310   8.2470   8.2470  26.8793  35.5049
    35.5049  36.9425

          k =-0.3333 0.3333-0.3333 (    74 PWs)   bands (ev):

     5.4213   6.1409   6.1409   7.9658   7.9658   8.3178  21.3513  34.2989
    34.2989  35.8870

          k =-0.4444 0.4444-0.4444 (    76 PWs)   bands (ev):

     5.1415   5.7614   5.7614   7.8041   7.8041  10.9067  16.6836  33.4884
    33.4884  35.0723

          k = 0.0000 0.2222 0.0000 (    72 PWs)   bands (ev):

     3.8271   6.7021   6.7021   6.9756   8.1838   8.5723  34.4231  34.4231
    35.5658  36.6699

          k =-0.1111 0.3333-0.1111 (    73 PWs)   bands (ev):

     4.6688   6.5067   6.6898   7.1761   7.3170   8.6444  29.1663  32.7518
    35.4477  37.6735

          k =-0.2222 0.4444-0.2222 (    78 PWs)   bands (ev):

     5.1943   5.5469   5.9033   6.8885   7.1276   7.9509  23.2135  31.6451
    33.8913  35.3391

          k =-0.3333 0.5556-0.3333 (    79 PWs)   bands (ev):

     4.6841   5.7054   6.1190   6.5479   7.0643  10.3861  18.1096  31.5064
    31.6810  34.6573

          k = 0.5556-0.3333 0.5556 (    80 PWs)   bands (ev):

     4.6460   5.5510   5.7456   6.2746   7.0236  12.2725  15.6761  30.1840
    32.3532  34.7545

          k = 0.4444-0.2222 0.4444 (    76 PWs)   bands (ev):

     5.3564   6.0069   6.1064   7.2094   7.6258   9.6608  19.9179  29.7273
    34.2754  35.6980

          k = 0.3333-0.1111 0.3333 (    75 PWs)   bands (ev):

     5.1732   5.9425   6.2826   7.2621   7.7371   7.9934  25.2687  30.0629
    36.7304  37.5301

          k = 0.2222-0.0000 0.2222 (    71 PWs)   bands (ev):

     4.3246   6.4771   6.7034   7.9087   8.1929   8.7659  30.9907  31.5177
    37.9292  38.4318

          k = 0.0000 0.4444 0.0000 (    76 PWs)   bands (ev):

     5.0950   5.9622   5.9622   6.9674   7.0765   7.6921  30.3630  30.3630
    33.2426  34.7045

          k =-0.1111 0.5556-0.1111 (    79 PWs)   bands (ev):

     5.2866   5.4799   5.5398   6.2408   7.0778   8.2928  25.8241  28.9747
    30.2381  34.6093

          k =-0.2222 0.6667-0.2222 (    78 PWs)   bands (ev):

     4.7926   5.8492   6.1041   7.0669   7.2121  10.7317  20.7190  27.5346
    28.7333  34.4667

          k = 0.6667-0.2222 0.6667 (    79 PWs)   bands (ev):

     4.9469   5.9232   6.0094   6.5722   6.8291  14.1315  16.4098  25.4877
    29.6365  34.5793

          k = 0.5556-0.1111 0.5556 (    81 PWs)   bands (ev):

     4.5859   5.1587   5.6428   6.6467   6.6827  11.8680  18.9412  24.3998
    31.5831  35.0683

          k = 0.4444 0.0000 0.4444 (    79 PWs)   bands (ev):

     5.4061   5.4266   5.7642   6.0703   7.2499   9.1522  24.1022  24.5363
    34.3939  36.4317

          k = 0.0000 0.6667 0.0000 (    76 PWs)   bands (ev):

     5.3705   6.3474   6.3474   7.2387   7.2545   9.4504  26.5707  27.2013
    27.2013  33.4696

          k =-0.1111 0.7778-0.1111 (    80 PWs)   bands (ev):

     5.0240   5.3634   5.7595   6.6070   6.7202  11.5807  23.2434  24.0305
    26.5324  34.0987

          k = 0.7778-0.1111 0.7778 (    76 PWs)   bands (ev):

     5.9423   6.4408   6.5638   6.9139   7.0874  14.9844  19.4699  21.6799
    27.1748  34.6242

          k = 0.6667-0.0000 0.6667 (    81 PWs)   bands (ev):

     5.1820   5.4874   5.7215   5.7398   6.7496  15.2129  18.2532  20.8785
    28.8764  34.7434

          k = 0.0000 0.8889 0.0000 (    84 PWs)   bands (ev):

     4.7193   5.0316   5.0722   5.0722   6.5811  13.0279  20.5637  25.4000
    25.4000  33.0680

          k = 0.8889 0.0000 0.8889 (    77 PWs)   bands (ev):

     5.9429   5.9610   6.5320   6.7335   7.4003  14.6457  19.9310  23.0813
    25.6544  34.4719

          k =-0.2222 0.4444 0.0000 (    76 PWs)   bands (ev):

     5.3096   5.6544   6.1859   7.2839   7.2916   7.9807  27.5367  27.7961
    34.1853  37.4161

          k =-0.3333 0.5556-0.1111 (    78 PWs)   bands (ev):

     5.3706   5.5112   6.0189   6.5817   7.3154   9.6568  22.1316  27.0512
    31.2066  36.8869

          k = 0.5556-0.3333 0.7778 (    79 PWs)   bands (ev):

     5.1456   5.4011   6.1207   6.3500   7.2208  12.5492  17.4038  27.3148
    29.0636  36.1781

          k =-0.2222 0.6667 0.0000 (    78 PWs)   bands (ev):

     5.3980   5.7206   5.9199   6.7763   7.1521  10.2016  24.7999  25.0410
    27.2147  36.4375

          k = 0.6667-0.2222 0.8889 (    82 PWs)   bands (ev):

     4.7632   5.0612   5.4104   6.0405   6.8019  12.9416  20.0554  24.1990
    25.3595  36.7912

          k = 0.5556-0.1111 0.7778 (    79 PWs)   bands (ev):

     5.3732   5.9001   6.0515   6.4037   6.8265  15.7083  17.3089  22.7681
    26.4964  37.1791

          k = 0.4444 0.0000 0.6667 (    80 PWs)   bands (ev):

     5.0632   5.1022   5.8525   6.7606   6.9087  12.0906  21.2563  22.3569
    28.4723  37.7817

          k = 0.7778-0.1111 1.0000 (    82 PWs)   bands (ev):

     4.5736   5.2669   5.7156   6.2992   6.3396  13.8898  20.9142  23.4102
    23.6696  36.0800

          k = 0.6667-0.0000 0.8889 (    78 PWs)   bands (ev):

     5.2153   6.2842   6.4890   6.6143   7.0375  16.6402  19.4620  20.0887
    24.5668  36.8838

          k = 0.5556-0.1111 1.0000 (    80 PWs)   bands (ev):

     4.9629   6.0724   6.0840   6.3368   6.4661  16.4173  19.9303  20.9411
    22.6728  40.2859

     the Fermi energy is    11.7470 ev

!    total energy              =    -119.21939545 Ry
     Harris-Foulkes estimate   =    -119.21939545 Ry
     estimated scf accuracy    <          1.1E-09 Ry

     The total energy is the sum of the following terms:

     one-electron contribution =     -20.41638481 Ry
     hartree contribution      =      24.80405341 Ry
     xc contribution           =     -42.38170591 Ry
     ewald contribution        =     -81.22523186 Ry
     smearing contrib. (-TS)   =      -0.00012627 Ry

     convergence has been achieved in   9 iterations

     Forces acting on atoms (cartesian axes, Ry/au):

     atom    1 type  1   force =     0.00000000    0.00000000    0.00000000

     Total force =     0.000000     Total SCF correction =     0.000000


     Computing stress (Cartesian axis) and pressure

          total   stress  (Ry/bohr**3)                   (kbar)     P=********
  -0.12084724  -0.00000000  -0.00000000     -17777.24     -0.00     -0.00
  -0.00000000  -0.12084724   0.00000000         -0.00 -17777.24      0.00
  -0.00000000   0.00000000  -0.12084724         -0.00      0.00 -17777.24


     Writing output data file Cu.save/

     init_run     :      0.08s CPU      0.09s WALL (       1 calls)
     electrons    :      0.76s CPU      0.90s WALL (       1 calls)
     forces       :      0.01s CPU      0.01s WALL (       1 calls)
     stress       :      0.02s CPU      0.02s WALL (       1 calls)

     Called by init_run:
     wfcinit      :      0.02s CPU      0.02s WALL (       1 calls)
     potinit      :      0.00s CPU      0.00s WALL (       1 calls)
     hinit0       :      0.06s CPU      0.06s WALL (       1 calls)

     Called by electrons:
     c_bands      :      0.67s CPU      0.79s WALL (       9 calls)
     sum_band     :      0.08s CPU      0.10s WALL (       9 calls)
     v_of_rho     :      0.01s CPU      0.01s WALL (      10 calls)
     newd         :      0.01s CPU      0.01s WALL (      10 calls)
     mix_rho      :      0.00s CPU      0.00s WALL (       9 calls)

     Called by c_bands:
     init_us_2    :      0.01s CPU      0.01s WALL (     735 calls)
     cegterg      :      0.64s CPU      0.76s WALL (     315 calls)

     Called by sum_band:
     sum_band:bec :      0.00s CPU      0.00s WALL (     315 calls)
     addusdens    :      0.01s CPU      0.01s WALL (       9 calls)

     Called by *egterg:
     h_psi        :      0.36s CPU      0.44s WALL (    1070 calls)
     s_psi        :      0.01s CPU      0.02s WALL (    1070 calls)
     g_psi        :      0.00s CPU      0.00s WALL (     720 calls)
     cdiaghg      :      0.19s CPU      0.22s WALL (    1035 calls)

     Called by h_psi:
     h_psi:pot    :      0.36s CPU      0.43s WALL (    1070 calls)
     h_psi:calbec :      0.02s CPU      0.03s WALL (    1070 calls)
     vloc_psi     :      0.32s CPU      0.38s WALL (    1070 calls)
     add_vuspsi   :      0.01s CPU      0.02s WALL (    1070 calls)

     General routines
     calbec       :      0.03s CPU      0.04s WALL (    1560 calls)
     fft          :      0.00s CPU      0.00s WALL (     136 calls)
     ffts         :      0.00s CPU      0.00s WALL (       9 calls)
     fftw         :      0.33s CPU      0.40s WALL (   20062 calls)

     Parallel routines
     fft_scatt_xy :      0.04s CPU      0.05s WALL (   20207 calls)
     fft_scatt_yz :      0.14s CPU      0.17s WALL (   20207 calls)

     PWSCF        :     1.57s CPU         1.77s WALL


   This run was terminated on:  23:12: 0  25Mar2024            

=------------------------------------------------------------------------------=
   JOB DONE.
=------------------------------------------------------------------------------=
