
     Program PWSCF v.6.3MaX starts on 25Mar2024 at 23:20:41 

     This program is part of the open-source Quantum ESPRESSO suite
     for quantum simulation of materials; please cite
         "P. Giannozzi et al., J. Phys.:Condens. Matter 21 395502 (2009);
         "P. Giannozzi et al., J. Phys.:Condens. Matter 29 465901 (2017);
          URL http://www.quantum-espresso.org", 
     in publications or presentations arising from this work. More details at
     http://www.quantum-espresso.org/quote

     Parallel version (MPI), running on     5 processors

     MPI processes distributed on     1 nodes
     R & G space division:  proc/nbgrp/npool/nimage =       5
     Waiting for input...
     Reading input from standard input

     Current dimensions of program PWSCF are:
     Max number of different atomic species (ntypx) = 10
     Max number of k-points (npk) =  40000
     Max angular momentum in pseudopotentials (lmaxx) =  3
               file Cu.pbesol-dn-rrkjus_psl.1.0.0.UPF: wavefunction(s)  3D renormalized

     Subspace diagonalization in iterative solution of the eigenvalue problem:
     a serial algorithm will be used


     Parallelization info
     --------------------
     sticks:   dense  smooth     PW     G-vecs:    dense   smooth      PW
     Min          50      50     17                  544      544     107
     Max          51      51     17                  548      548     108
     Sum         253     253     85                 2733     2733     537



     bravais-lattice index     =            2
     lattice parameter (alat)  =       6.8300  a.u.
     unit-cell volume          =      79.6530 (a.u.)^3
     number of atoms/cell      =            1
     number of atomic types    =            1
     number of electrons       =        11.00
     number of Kohn-Sham states=           10
     kinetic-energy cutoff     =      40.0000  Ry
     charge density cutoff     =     160.0000  Ry
     convergence threshold     =      1.0E-08
     mixing beta               =       0.7000
     number of iterations used =            8  plain     mixing
     Exchange-correlation      = PBESOL ( 1  4 10  8 0 0)

     celldm(1)=   6.830000  celldm(2)=   0.000000  celldm(3)=   0.000000
     celldm(4)=   0.000000  celldm(5)=   0.000000  celldm(6)=   0.000000

     crystal axes: (cart. coord. in units of alat)
               a(1) = (  -0.500000   0.000000   0.500000 )  
               a(2) = (   0.000000   0.500000   0.500000 )  
               a(3) = (  -0.500000   0.500000   0.000000 )  

     reciprocal axes: (cart. coord. in units 2 pi/alat)
               b(1) = ( -1.000000 -1.000000  1.000000 )  
               b(2) = (  1.000000  1.000000  1.000000 )  
               b(3) = ( -1.000000  1.000000 -1.000000 )  


     PseudoPot. # 1 for Cu read from file:
     /home/lorenzo/pseudos/Cu/Cu.pbesol-dn-rrkjus_psl.1.0.0.UPF
     MD5 check sum: bfa4c7aafbc42e028d5f4ccf7ceed93d
     Pseudo is Ultrasoft + core correction, Zval = 11.0
     Generated using "atomic" code by A. Dal Corso v.6.3
     Using radial grid of 1199 points,  6 beta functions with: 
                l(1) =   0
                l(2) =   0
                l(3) =   1
                l(4) =   1
                l(5) =   2
                l(6) =   2
     Q(r) pseudized with 0 coefficients 


     atomic species   valence    mass     pseudopotential
        Cu            11.00    63.54600     Cu( 1.00)

     48 Sym. Ops., with inversion, found



   Cartesian axes

     site n.     atom                  positions (alat units)
         1           Cu  tau(   1) = (   0.0000000   0.0000000   0.0000000  )

     number of k points=    20  gaussian smearing, width (Ry)=  0.0100
                       cart. coord. in units 2pi/alat
        k(    1) = (   0.0000000   0.0000000   0.0000000), wk =   0.0058309
        k(    2) = (  -0.1428571   0.1428571  -0.1428571), wk =   0.0466472
        k(    3) = (  -0.2857143   0.2857143  -0.2857143), wk =   0.0466472
        k(    4) = (  -0.4285714   0.4285714  -0.4285714), wk =   0.0466472
        k(    5) = (   0.0000000   0.2857143   0.0000000), wk =   0.0349854
        k(    6) = (  -0.1428571   0.4285714  -0.1428571), wk =   0.1399417
        k(    7) = (  -0.2857143   0.5714286  -0.2857143), wk =   0.1399417
        k(    8) = (   0.5714286  -0.2857143   0.5714286), wk =   0.1399417
        k(    9) = (   0.4285714  -0.1428571   0.4285714), wk =   0.1399417
        k(   10) = (   0.2857143  -0.0000000   0.2857143), wk =   0.0699708
        k(   11) = (   0.0000000   0.5714286   0.0000000), wk =   0.0349854
        k(   12) = (  -0.1428571   0.7142857  -0.1428571), wk =   0.1399417
        k(   13) = (   0.7142857  -0.1428571   0.7142857), wk =   0.1399417
        k(   14) = (   0.5714286   0.0000000   0.5714286), wk =   0.0699708
        k(   15) = (   0.0000000   0.8571429   0.0000000), wk =   0.0349854
        k(   16) = (   0.8571429  -0.0000000   0.8571429), wk =   0.0699708
        k(   17) = (  -0.2857143   0.5714286   0.0000000), wk =   0.1399417
        k(   18) = (   0.5714286  -0.2857143   0.8571429), wk =   0.2798834
        k(   19) = (   0.7142857  -0.1428571   1.0000000), wk =   0.1399417
        k(   20) = (   0.5714286   0.0000000   0.8571429), wk =   0.1399417

     Dense  grid:     2733 G-vectors     FFT dimensions: (  20,  20,  20)

     Estimated max dynamical RAM per process >       3.35 MB

     Estimated total dynamical RAM >      16.74 MB

     Check: negative/imaginary core charge=   -0.000010    0.000000

     Initial potential from superposition of free atoms

     starting charge   10.99979, renormalised to   11.00000
     Starting wfcs are    9 randomized atomic wfcs +    1 random wfcs

     total cpu time spent up to now is        0.9 secs

     Self-consistent Calculation

     iteration #  1     ecut=    40.00 Ry     beta= 0.70
     Davidson diagonalization with overlap
     ethr =  1.00E-02,  avg # of iterations =  3.6

     Threshold (ethr) on eigenvalues was too large:
     Diagonalizing with lowered threshold

     Davidson diagonalization with overlap
     ethr =  6.35E-04,  avg # of iterations =  1.0

     total cpu time spent up to now is        1.1 secs

     total energy              =    -122.36741682 Ry
     Harris-Foulkes estimate   =    -122.42246871 Ry
     estimated scf accuracy    <       0.06955084 Ry

     iteration #  2     ecut=    40.00 Ry     beta= 0.70
     Davidson diagonalization with overlap
     ethr =  6.32E-04,  avg # of iterations =  2.0

     total cpu time spent up to now is        1.2 secs

     total energy              =    -122.36945853 Ry
     Harris-Foulkes estimate   =    -122.46563426 Ry
     estimated scf accuracy    <       0.24896776 Ry

     iteration #  3     ecut=    40.00 Ry     beta= 0.70
     Davidson diagonalization with overlap
     ethr =  6.32E-04,  avg # of iterations =  2.0

     total cpu time spent up to now is        1.3 secs

     total energy              =    -122.40864229 Ry
     Harris-Foulkes estimate   =    -122.40868767 Ry
     estimated scf accuracy    <       0.00011156 Ry

     iteration #  4     ecut=    40.00 Ry     beta= 0.70
     Davidson diagonalization with overlap
     ethr =  1.01E-06,  avg # of iterations =  2.8

     total cpu time spent up to now is        1.4 secs

     total energy              =    -122.40872508 Ry
     Harris-Foulkes estimate   =    -122.40873031 Ry
     estimated scf accuracy    <       0.00001572 Ry

     iteration #  5     ecut=    40.00 Ry     beta= 0.70
     Davidson diagonalization with overlap
     ethr =  1.43E-07,  avg # of iterations =  1.0

     total cpu time spent up to now is        1.5 secs

     total energy              =    -122.40872758 Ry
     Harris-Foulkes estimate   =    -122.40872761 Ry
     estimated scf accuracy    <       0.00000009 Ry

     iteration #  6     ecut=    40.00 Ry     beta= 0.70
     Davidson diagonalization with overlap
     ethr =  7.94E-10,  avg # of iterations =  2.9

     total cpu time spent up to now is        1.6 secs

     End of self-consistent calculation

          k = 0.0000 0.0000 0.0000 (   331 PWs)   bands (ev):

     3.0530   9.5254   9.5254   9.5254  10.3609  10.3609  35.3914  37.7578
    37.7578  37.7578

          k =-0.1429 0.1429-0.1429 (   335 PWs)   bands (ev):

     3.7850   9.3837   9.6412   9.6412  10.3298  10.3298  30.3783  35.8457
    36.2810  36.2810

          k =-0.2857 0.2857-0.2857 (   344 PWs)   bands (ev):

     5.7343   9.2886   9.6560   9.6560  10.5335  10.5335  23.2125  34.8867
    35.0155  35.0155

          k =-0.4286 0.4286-0.4286 (   338 PWs)   bands (ev):

     7.2813   9.5140   9.5140  10.6655  10.8825  10.8825  17.4817  33.9377
    34.5513  34.5513

          k = 0.0000 0.2857 0.0000 (   335 PWs)   bands (ev):

     4.0255   9.2454   9.7587   9.7587  10.1170  10.4642  33.0668  33.0668
    33.1738  35.0792

          k =-0.1429 0.4286-0.1429 (   336 PWs)   bands (ev):

     5.5781   8.9984   9.6749   9.9065  10.3799  10.6435  25.9936  31.1752
    32.7187  34.3853

          k =-0.2857 0.5714-0.2857 (   339 PWs)   bands (ev):

     7.4179   9.1559   9.4643   9.7962  10.9265  11.6202  19.5818  30.3562
    30.7845  33.0799

          k = 0.5714-0.2857 0.5714 (   342 PWs)   bands (ev):

     7.7830   9.2379   9.7098   9.8056  10.8651  13.1419  16.6322  28.3689
    32.0805  33.4789

          k = 0.4286-0.1429 0.4286 (   345 PWs)   bands (ev):

     6.9533   9.1586   9.4583   9.8004  10.4196  11.3876  21.5856  27.7527
    35.0141  35.2210

          k = 0.2857-0.0000 0.2857 (   333 PWs)   bands (ev):

     4.9418   9.1684   9.6858   9.8519  10.1075  10.6414  28.1280  28.8094
    38.3283  38.5920

          k = 0.0000 0.5714 0.0000 (   343 PWs)   bands (ev):

     6.4792   8.6382   9.9590  10.3709  10.3709  10.6995  28.5550  28.5550
    28.8360  31.1181

          k =-0.1429 0.7143-0.1429 (   333 PWs)   bands (ev):

     7.6566   8.4707   9.8467  10.4128  10.9547  11.9646  22.9923  25.2101
    27.5736  31.7303

          k = 0.7143-0.1429 0.7143 (   348 PWs)   bands (ev):

     8.2909   8.5975   9.5415  10.2595  10.9050  15.4891  17.6012  22.7257
    28.4952  32.1115

          k = 0.5714 0.0000 0.5714 (   339 PWs)   bands (ev):

     8.2986   8.9656   9.0975  10.1043  10.5333  13.4299  20.4614  22.1350
    31.1494  33.2999

          k = 0.0000 0.8571 0.0000 (   335 PWs)   bands (ev):

     7.6087   8.1725  10.8917  10.9840  10.9840  12.6590  21.3524  25.8942
    25.8942  30.1937

          k = 0.8571-0.0000 0.8571 (   347 PWs)   bands (ev):

     7.8481   8.2375  10.4359  10.7563  11.0199  15.0749  19.7716  21.8530
    26.2349  31.2552

          k =-0.2857 0.5714 0.0000 (   332 PWs)   bands (ev):

     7.1663   8.7835   9.3798  10.3216  10.3768  11.4782  24.4031  25.1761
    29.7394  36.6654

          k = 0.5714-0.2857 0.8571 (   337 PWs)   bands (ev):

     8.2699   8.8272   9.2208  10.1370  10.8245  13.8284  18.7391  25.0549
    26.7641  36.7858

          k = 0.7143-0.1429 1.0000 (   347 PWs)   bands (ev):

     8.0526   8.4392   9.7714  10.6127  10.9819  14.4673  21.9789  22.2046
    23.2354  35.1655

          k = 0.5714 0.0000 0.8571 (   345 PWs)   bands (ev):

     8.4232   8.7016   9.2632  10.3371  10.9793  17.5319  18.0385  20.7617
    24.1382  36.8038

     the Fermi energy is    12.6388 ev

!    total energy              =    -122.40872762 Ry
     Harris-Foulkes estimate   =    -122.40872762 Ry
     estimated scf accuracy    <          1.8E-09 Ry

     The total energy is the sum of the following terms:

     one-electron contribution =     -27.61471029 Ry
     hartree contribution      =      30.54928786 Ry
     xc contribution           =     -44.11798007 Ry
     ewald contribution        =     -81.22522859 Ry
     smearing contrib. (-TS)   =      -0.00009653 Ry

     convergence has been achieved in   6 iterations

     Forces acting on atoms (cartesian axes, Ry/au):

     atom    1 type  1   force =     0.00000000    0.00000000    0.00000000

     Total force =     0.000000     Total SCF correction =     0.000000


     Computing stress (Cartesian axis) and pressure

          total   stress  (Ry/bohr**3)                   (kbar)     P=  -63.81
  -0.00043377   0.00000000   0.00000000        -63.81      0.00      0.00
  -0.00000000  -0.00043377  -0.00000000         -0.00    -63.81     -0.00
   0.00000000  -0.00000000  -0.00043377          0.00     -0.00    -63.81


     Writing output data file Cu.save/

     init_run     :      0.14s CPU      0.15s WALL (       1 calls)
     electrons    :      0.61s CPU      0.68s WALL (       1 calls)
     forces       :      0.01s CPU      0.01s WALL (       1 calls)
     stress       :      0.05s CPU      0.05s WALL (       1 calls)

     Called by init_run:
     wfcinit      :      0.03s CPU      0.03s WALL (       1 calls)
     potinit      :      0.00s CPU      0.00s WALL (       1 calls)
     hinit0       :      0.11s CPU      0.11s WALL (       1 calls)

     Called by electrons:
     c_bands      :      0.49s CPU      0.55s WALL (       7 calls)
     sum_band     :      0.09s CPU      0.11s WALL (       7 calls)
     v_of_rho     :      0.01s CPU      0.01s WALL (       7 calls)
     newd         :      0.02s CPU      0.02s WALL (       7 calls)
     mix_rho      :      0.00s CPU      0.00s WALL (       7 calls)

     Called by c_bands:
     init_us_2    :      0.01s CPU      0.02s WALL (     340 calls)
     cegterg      :      0.47s CPU      0.52s WALL (     140 calls)

     Called by sum_band:
     sum_band:bec :      0.00s CPU      0.00s WALL (     140 calls)
     addusdens    :      0.02s CPU      0.02s WALL (       7 calls)

     Called by *egterg:
     h_psi        :      0.35s CPU      0.39s WALL (     464 calls)
     s_psi        :      0.01s CPU      0.01s WALL (     464 calls)
     g_psi        :      0.00s CPU      0.00s WALL (     304 calls)
     cdiaghg      :      0.08s CPU      0.08s WALL (     424 calls)

     Called by h_psi:
     h_psi:pot    :      0.34s CPU      0.39s WALL (     464 calls)
     h_psi:calbec :      0.02s CPU      0.02s WALL (     464 calls)
     vloc_psi     :      0.31s CPU      0.35s WALL (     464 calls)
     add_vuspsi   :      0.01s CPU      0.01s WALL (     464 calls)

     General routines
     calbec       :      0.03s CPU      0.03s WALL (     704 calls)
     fft          :      0.01s CPU      0.01s WALL (     104 calls)
     ffts         :      0.00s CPU      0.00s WALL (       7 calls)
     fftw         :      0.34s CPU      0.39s WALL (    8612 calls)

     Parallel routines
     fft_scatt_xy :      0.03s CPU      0.04s WALL (    8723 calls)
     fft_scatt_yz :      0.11s CPU      0.13s WALL (    8723 calls)

     PWSCF        :     1.60s CPU         1.72s WALL


   This run was terminated on:  23:20:42  25Mar2024            

=------------------------------------------------------------------------------=
   JOB DONE.
=------------------------------------------------------------------------------=
