
     Program PWSCF v.6.3MaX starts on 25Mar2024 at 23:35:20 

     This program is part of the open-source Quantum ESPRESSO suite
     for quantum simulation of materials; please cite
         "P. Giannozzi et al., J. Phys.:Condens. Matter 21 395502 (2009);
         "P. Giannozzi et al., J. Phys.:Condens. Matter 29 465901 (2017);
          URL http://www.quantum-espresso.org", 
     in publications or presentations arising from this work. More details at
     http://www.quantum-espresso.org/quote

     Parallel version (MPI), running on     5 processors

     MPI processes distributed on     1 nodes
     R & G space division:  proc/nbgrp/npool/nimage =       5
     Waiting for input...
     Reading input from standard input

     Current dimensions of program PWSCF are:
     Max number of different atomic species (ntypx) = 10
     Max number of k-points (npk) =  40000
     Max angular momentum in pseudopotentials (lmaxx) =  3
               file Cu.pbesol-dn-kjpaw_psl.1.0.0.UPF: wavefunction(s)  4S 3D renormalized

     Subspace diagonalization in iterative solution of the eigenvalue problem:
     a serial algorithm will be used


     Parallelization info
     --------------------
     sticks:   dense  smooth     PW     G-vecs:    dense   smooth      PW
     Min          95      95     30                 1375     1375     248
     Max          95      95     31                 1376     1376     251
     Sum         475     475    151                 6879     6879    1243



     bravais-lattice index     =            2
     lattice parameter (alat)  =       6.8300  a.u.
     unit-cell volume          =      79.6530 (a.u.)^3
     number of atoms/cell      =            1
     number of atomic types    =            1
     number of electrons       =        11.00
     number of Kohn-Sham states=           10
     kinetic-energy cutoff     =      75.0000  Ry
     charge density cutoff     =     300.0000  Ry
     convergence threshold     =      1.0E-08
     mixing beta               =       0.7000
     number of iterations used =            8  plain     mixing
     Exchange-correlation      = SLA PW PSX PSC ( 1  4 10  8 0 0)

     celldm(1)=   6.830000  celldm(2)=   0.000000  celldm(3)=   0.000000
     celldm(4)=   0.000000  celldm(5)=   0.000000  celldm(6)=   0.000000

     crystal axes: (cart. coord. in units of alat)
               a(1) = (  -0.500000   0.000000   0.500000 )  
               a(2) = (   0.000000   0.500000   0.500000 )  
               a(3) = (  -0.500000   0.500000   0.000000 )  

     reciprocal axes: (cart. coord. in units 2 pi/alat)
               b(1) = ( -1.000000 -1.000000  1.000000 )  
               b(2) = (  1.000000  1.000000  1.000000 )  
               b(3) = ( -1.000000  1.000000 -1.000000 )  


     PseudoPot. # 1 for Cu read from file:
     /home/lorenzo/pseudos/Cu/Cu.pbesol-dn-kjpaw_psl.1.0.0.UPF
     MD5 check sum: 1e9735a74797514c934643dbd229f231
     Pseudo is Projector augmented-wave + core cor, Zval = 11.0
     Generated using "atomic" code by A. Dal Corso v.6.3
     Shape of augmentation charge: PSQ
     Using radial grid of 1199 points,  6 beta functions with: 
                l(1) =   0
                l(2) =   0
                l(3) =   1
                l(4) =   1
                l(5) =   2
                l(6) =   2
     Q(r) pseudized with 0 coefficients 


     atomic species   valence    mass     pseudopotential
        Cu            11.00    63.54600     Cu( 1.00)

     48 Sym. Ops., with inversion, found



   Cartesian axes

     site n.     atom                  positions (alat units)
         1           Cu  tau(   1) = (   0.0000000   0.0000000   0.0000000  )

     number of k points=    56  gaussian smearing, width (Ry)=  0.0100
                       cart. coord. in units 2pi/alat
        k(    1) = (   0.0000000   0.0000000   0.0000000), wk =   0.0015026
        k(    2) = (  -0.0909091   0.0909091  -0.0909091), wk =   0.0120210
        k(    3) = (  -0.1818182   0.1818182  -0.1818182), wk =   0.0120210
        k(    4) = (  -0.2727273   0.2727273  -0.2727273), wk =   0.0120210
        k(    5) = (  -0.3636364   0.3636364  -0.3636364), wk =   0.0120210
        k(    6) = (  -0.4545455   0.4545455  -0.4545455), wk =   0.0120210
        k(    7) = (   0.0000000   0.1818182   0.0000000), wk =   0.0090158
        k(    8) = (  -0.0909091   0.2727273  -0.0909091), wk =   0.0360631
        k(    9) = (  -0.1818182   0.3636364  -0.1818182), wk =   0.0360631
        k(   10) = (  -0.2727273   0.4545455  -0.2727273), wk =   0.0360631
        k(   11) = (  -0.3636364   0.5454545  -0.3636364), wk =   0.0360631
        k(   12) = (   0.5454545  -0.3636364   0.5454545), wk =   0.0360631
        k(   13) = (   0.4545455  -0.2727273   0.4545455), wk =   0.0360631
        k(   14) = (   0.3636364  -0.1818182   0.3636364), wk =   0.0360631
        k(   15) = (   0.2727273  -0.0909091   0.2727273), wk =   0.0360631
        k(   16) = (   0.1818182  -0.0000000   0.1818182), wk =   0.0180316
        k(   17) = (   0.0000000   0.3636364   0.0000000), wk =   0.0090158
        k(   18) = (  -0.0909091   0.4545455  -0.0909091), wk =   0.0360631
        k(   19) = (  -0.1818182   0.5454545  -0.1818182), wk =   0.0360631
        k(   20) = (  -0.2727273   0.6363636  -0.2727273), wk =   0.0360631
        k(   21) = (   0.6363636  -0.2727273   0.6363636), wk =   0.0360631
        k(   22) = (   0.5454545  -0.1818182   0.5454545), wk =   0.0360631
        k(   23) = (   0.4545455  -0.0909091   0.4545455), wk =   0.0360631
        k(   24) = (   0.3636364   0.0000000   0.3636364), wk =   0.0180316
        k(   25) = (   0.0000000   0.5454545   0.0000000), wk =   0.0090158
        k(   26) = (  -0.0909091   0.6363636  -0.0909091), wk =   0.0360631
        k(   27) = (  -0.1818182   0.7272727  -0.1818182), wk =   0.0360631
        k(   28) = (   0.7272727  -0.1818182   0.7272727), wk =   0.0360631
        k(   29) = (   0.6363636  -0.0909091   0.6363636), wk =   0.0360631
        k(   30) = (   0.5454545   0.0000000   0.5454545), wk =   0.0180316
        k(   31) = (   0.0000000   0.7272727   0.0000000), wk =   0.0090158
        k(   32) = (  -0.0909091   0.8181818  -0.0909091), wk =   0.0360631
        k(   33) = (   0.8181818  -0.0909091   0.8181818), wk =   0.0360631
        k(   34) = (   0.7272727   0.0000000   0.7272727), wk =   0.0180316
        k(   35) = (   0.0000000   0.9090909   0.0000000), wk =   0.0090158
        k(   36) = (   0.9090909  -0.0000000   0.9090909), wk =   0.0180316
        k(   37) = (  -0.1818182   0.3636364   0.0000000), wk =   0.0360631
        k(   38) = (  -0.2727273   0.4545455  -0.0909091), wk =   0.0721262
        k(   39) = (  -0.3636364   0.5454545  -0.1818182), wk =   0.0721262
        k(   40) = (   0.5454545  -0.3636364   0.7272727), wk =   0.0721262
        k(   41) = (  -0.1818182   0.5454545   0.0000000), wk =   0.0360631
        k(   42) = (  -0.2727273   0.6363636  -0.0909091), wk =   0.0721262
        k(   43) = (   0.6363636  -0.2727273   0.8181818), wk =   0.0721262
        k(   44) = (   0.5454545  -0.1818182   0.7272727), wk =   0.0721262
        k(   45) = (   0.4545455  -0.0909091   0.6363636), wk =   0.0721262
        k(   46) = (   0.3636364   0.0000000   0.5454545), wk =   0.0360631
        k(   47) = (  -0.1818182   0.7272727   0.0000000), wk =   0.0360631
        k(   48) = (   0.7272727  -0.1818182   0.9090909), wk =   0.0721262
        k(   49) = (   0.6363636  -0.0909091   0.8181818), wk =   0.0721262
        k(   50) = (   0.5454545   0.0000000   0.7272727), wk =   0.0360631
        k(   51) = (   0.8181818  -0.0909091   1.0000000), wk =   0.0360631
        k(   52) = (   0.7272727   0.0000000   0.9090909), wk =   0.0360631
        k(   53) = (   0.6363636  -0.2727273   1.0000000), wk =   0.0360631
        k(   54) = (   0.5454545  -0.1818182   0.9090909), wk =   0.0721262
        k(   55) = (   0.6363636  -0.0909091   1.0000000), wk =   0.0360631
        k(   56) = (   0.5454545   0.0000000   0.9090909), wk =   0.0360631

     Dense  grid:     6879 G-vectors     FFT dimensions: (  27,  27,  27)

     Estimated max dynamical RAM per process >       8.16 MB

     Estimated total dynamical RAM >      40.82 MB

     Initial potential from superposition of free atoms

     starting charge   10.99979, renormalised to   11.00000
     Starting wfcs are    9 randomized atomic wfcs +    1 random wfcs
     Checking if some PAW data can be deallocated... 

     total cpu time spent up to now is        1.3 secs

     Self-consistent Calculation

     iteration #  1     ecut=    75.00 Ry     beta= 0.70
     Davidson diagonalization with overlap
     ethr =  1.00E-02,  avg # of iterations =  3.8

     Threshold (ethr) on eigenvalues was too large:
     Diagonalizing with lowered threshold

     Davidson diagonalization with overlap
     ethr =  6.84E-04,  avg # of iterations =  1.0

     total cpu time spent up to now is        2.6 secs

     total energy              =    -210.37615030 Ry
     Harris-Foulkes estimate   =    -210.43607161 Ry
     estimated scf accuracy    <       0.07493053 Ry

     iteration #  2     ecut=    75.00 Ry     beta= 0.70
     Davidson diagonalization with overlap
     ethr =  6.81E-04,  avg # of iterations =  2.1

     total cpu time spent up to now is        3.3 secs

     total energy              =    -210.37827987 Ry
     Harris-Foulkes estimate   =    -210.48379245 Ry
     estimated scf accuracy    <       0.27435027 Ry

     iteration #  3     ecut=    75.00 Ry     beta= 0.70
     Davidson diagonalization with overlap
     ethr =  6.81E-04,  avg # of iterations =  2.0

     total cpu time spent up to now is        4.0 secs

     total energy              =    -210.42119313 Ry
     Harris-Foulkes estimate   =    -210.42126312 Ry
     estimated scf accuracy    <       0.00014142 Ry

     iteration #  4     ecut=    75.00 Ry     beta= 0.70
     Davidson diagonalization with overlap
     ethr =  1.29E-06,  avg # of iterations =  2.5

     total cpu time spent up to now is        4.8 secs

     total energy              =    -210.42126193 Ry
     Harris-Foulkes estimate   =    -210.42127156 Ry
     estimated scf accuracy    <       0.00002555 Ry

     iteration #  5     ecut=    75.00 Ry     beta= 0.70
     Davidson diagonalization with overlap
     ethr =  2.32E-07,  avg # of iterations =  1.1

     total cpu time spent up to now is        5.4 secs

     total energy              =    -210.42126660 Ry
     Harris-Foulkes estimate   =    -210.42126678 Ry
     estimated scf accuracy    <       0.00000048 Ry

     iteration #  6     ecut=    75.00 Ry     beta= 0.70
     Davidson diagonalization with overlap
     ethr =  4.39E-09,  avg # of iterations =  2.2

     total cpu time spent up to now is        6.0 secs

     End of self-consistent calculation

          k = 0.0000 0.0000 0.0000 (   893 PWs)   bands (ev):

     3.0428   9.4670   9.4670   9.4670  10.3085  10.3085  35.3785  37.7503
    37.7503  37.7503

          k =-0.0909 0.0909-0.0909 (   881 PWs)   bands (ev):

     3.3426   9.4043   9.5221   9.5221  10.2884  10.2884  33.0539  36.0702
    36.9083  36.9083

          k =-0.1818 0.1818-0.1818 (   893 PWs)   bands (ev):

     4.2123   9.2651   9.6205   9.6205  10.2902  10.2902  28.3201  35.6364
    35.8299  35.8299

          k =-0.2727 0.2727-0.2727 (   887 PWs)   bands (ev):

     5.5180   9.2175   9.6122   9.6122  10.4448  10.4448  23.7997  34.9802
    35.0743  35.0743

          k =-0.3636 0.3636-0.3636 (   872 PWs)   bands (ev):

     6.7889   9.5183   9.5183   9.7058  10.6894  10.6894  19.7864  34.2766
    34.6612  34.6612

          k =-0.4545 0.4545-0.4545 (   874 PWs)   bands (ev):

     7.3232   9.4466   9.4466  10.8585  10.8585  11.0454  16.7635  33.8447
    34.5175  34.5175

          k = 0.0000 0.1818 0.0000 (   889 PWs)   bands (ev):

     3.4420   9.3488   9.5629   9.5629  10.2024  10.3519  34.1514  34.9719
    34.9719  36.3819

          k =-0.0909 0.2727-0.0909 (   892 PWs)   bands (ev):

     4.1211   9.2079   9.6663   9.6757  10.1279  10.3983  30.0966  33.4961
    34.2709  37.4654

          k =-0.1818 0.3636-0.1818 (   876 PWs)   bands (ev):

     5.2912   9.0838   9.6284   9.7204  10.2995  10.5292  25.4673  32.5303
    33.6316  36.4574

          k =-0.2727 0.4545-0.2727 (   872 PWs)   bands (ev):

     6.6319   9.2119   9.4831   9.6532  10.7378  10.7612  21.2500  32.1146
    32.9751  34.4561

          k =-0.3636 0.5455-0.3636 (   873 PWs)   bands (ev):

     7.3996   9.3518   9.5658   9.8591  10.8784  11.6542  17.7365  31.9118
    32.3049  33.6445

          k = 0.5455-0.3636 0.5455 (   875 PWs)   bands (ev):

     7.5281   9.3347   9.5291  10.1520  10.8503  12.3787  16.3567  30.8722
    33.1501  33.7981

          k = 0.4545-0.2727 0.4545 (   876 PWs)   bands (ev):

     7.2438   9.4105   9.5692   9.6811  10.6480  11.4124  18.7999  30.3292
    34.5501  34.6528

          k = 0.3636-0.1818 0.3636 (   870 PWs)   bands (ev):

     6.2107   9.1554   9.5393   9.6686  10.3529  10.8511  22.6038  30.3348
    35.8127  36.7330

          k = 0.2727-0.0909 0.2727 (   883 PWs)   bands (ev):

     4.8586   9.1464   9.6354   9.7228  10.1405  10.5260  26.9789  30.8582
    37.2544  38.6155

          k = 0.1818-0.0000 0.1818 (   895 PWs)   bands (ev):

     3.8329   9.2947   9.6060   9.6082  10.1829  10.3596  31.3786  32.1977
    37.3182  38.8528

          k = 0.0000 0.3636 0.0000 (   877 PWs)   bands (ev):

     4.5911   9.0369   9.8385   9.8385   9.9522  10.4692  31.6812  31.6812
    32.4625  33.9165

          k =-0.0909 0.4545-0.0909 (   872 PWs)   bands (ev):

     5.5550   8.8598   9.6920   9.9674  10.2343  10.5811  27.5302  30.4314
    32.0923  33.3357

          k =-0.1818 0.5455-0.1818 (   875 PWs)   bands (ev):

     6.7822   8.7826   9.4654   9.9505  10.7727  10.9036  23.1907  29.8054
    30.2042  32.7757

          k =-0.2727 0.6364-0.2727 (   879 PWs)   bands (ev):

     7.6775   8.9164   9.3905   9.8638  10.9024  12.1504  19.3366  28.3634
    29.8649  32.6315

          k = 0.6364-0.2727 0.6364 (   867 PWs)   bands (ev):

     7.9331   9.0074   9.5563   9.7937  10.8587  13.8242  16.6258  26.9745
    30.6427  32.8939

          k = 0.5455-0.1818 0.5455 (   870 PWs)   bands (ev):

     7.8630   9.1181   9.3973   9.7849  10.6354  12.8675  18.2525  26.1409
    32.1122  33.6304

          k = 0.4545-0.0909 0.4545 (   878 PWs)   bands (ev):

     7.2140   9.0162   9.3225   9.8513  10.3051  11.6180  21.8749  25.9030
    34.1902  34.9001

          k = 0.3636 0.0000 0.3636 (   869 PWs)   bands (ev):

     5.9686   8.9972   9.5275   9.9672   9.9839  10.9437  25.7965  26.5371
    36.6524  36.7611

          k = 0.0000 0.5455 0.0000 (   861 PWs)   bands (ev):

     6.2329   8.6396   9.8673  10.2476  10.2476  10.6244  28.8853  28.8853
    29.5574  31.2176

          k =-0.0909 0.6364-0.0909 (   865 PWs)   bands (ev):

     7.0974   8.4879   9.8156  10.3394  10.7791  10.9140  25.4662  27.1404
    27.9887  31.7194

          k =-0.1818 0.7273-0.1818 (   870 PWs)   bands (ev):

     7.7925   8.4701   9.6522  10.2716  10.9224  12.4261  21.5288  25.0689
    27.8302  31.8337

          k = 0.7273-0.1818 0.7273 (   873 PWs)   bands (ev):

     8.1768   8.5690   9.5009  10.1762  10.8853  14.6879  18.0894  23.4985
    28.4471  32.0673

          k = 0.6364-0.0909 0.6364 (   874 PWs)   bands (ev):

     8.3551   8.7268   9.2758  10.0968  10.6742  14.8829  18.0119  22.5030
    29.7920  32.6315

          k = 0.5455 0.0000 0.5455 (   869 PWs)   bands (ev):

     8.1112   9.0003   9.0121  10.0199  10.4120  12.8977  21.0420  22.5320
    31.7528  33.5982

          k = 0.0000 0.7273 0.0000 (   866 PWs)   bands (ev):

     7.3921   8.2853  10.6854  10.6854  10.7689  10.9494  24.4573  26.8034
    26.8034  30.4448

          k =-0.0909 0.8182-0.0909 (   871 PWs)   bands (ev):

     7.6521   8.2098  10.4598  10.6674  10.9344  12.6413  22.3191  24.0911
    26.3780  31.0778

          k = 0.8182-0.0909 0.8182 (   872 PWs)   bands (ev):

     7.9336   8.2826  10.0645  10.5612  10.9319  14.9112  20.5173  20.9038
    26.7793  31.4589

          k = 0.7273 0.0000 0.7273 (   874 PWs)   bands (ev):

     8.2565   8.4531   9.5989  10.3844  10.7891  17.1809  17.4678  20.4274
    27.9614  31.9070

          k = 0.0000 0.9091 0.0000 (   878 PWs)   bands (ev):

     7.5826   8.0794  10.8555  10.9824  10.9824  13.3065  20.3649  25.6683
    25.6683  30.0803

          k = 0.9091-0.0000 0.9091 (   874 PWs)   bands (ev):

     7.6794   8.1078  10.7108  10.7977  10.9976  14.4228  19.6410  23.5854
    25.8086  30.8787

          k =-0.1818 0.3636 0.0000 (   879 PWs)   bands (ev):

     4.9535   9.0440   9.6653   9.8496  10.0791  10.5500  28.6498  29.2876
    35.5674  36.0433

          k =-0.2727 0.4545-0.0909 (   869 PWs)   bands (ev):

     6.1868   8.9335   9.4942   9.8949  10.2865  10.9107  24.4184  28.3153
    33.3009  36.1894

          k =-0.3636 0.5455-0.1818 (   879 PWs)   bands (ev):

     7.3453   9.0791   9.3249   9.8029  10.6323  11.6221  20.3734  28.1558
    31.2596  35.6391

          k = 0.5455-0.3636 0.7273 (   869 PWs)   bands (ev):

     7.7881   9.1300   9.5905   9.7308  10.8221  13.0209  17.1366  28.5605
    29.7098  35.2773

          k =-0.1818 0.5455 0.0000 (   866 PWs)   bands (ev):

     6.5368   8.6944   9.5448  10.2479  10.3382  10.9020  26.3649  26.9164
    30.0358  34.3032

          k =-0.2727 0.6364-0.0909 (   870 PWs)   bands (ev):

     7.5545   8.6483   9.3452  10.2041  10.6706  11.7901  22.4471  26.3308
    27.8106  34.7455

          k = 0.6364-0.2727 0.8182 (   869 PWs)   bands (ev):

     8.1122   8.7328   9.2902  10.0845  10.8429  13.5346  18.7840  25.9706
    26.6802  34.8770

          k = 0.5455-0.1818 0.7273 (   869 PWs)   bands (ev):

     8.2684   8.7748   9.3132  10.0064  10.7982  14.9177  16.9756  24.7608
    27.5576  35.3918

          k = 0.4545-0.0909 0.6364 (   875 PWs)   bands (ev):

     8.1107   8.9135   9.0711  10.0461  10.5818  13.0172  19.9384  24.1131
    29.0276  36.4211

          k = 0.3636 0.0000 0.5455 (   873 PWs)   bands (ev):

     7.3166   8.8387   9.2497  10.1155  10.2764  11.6683  23.4683  24.4094
    30.9837  37.8906

          k =-0.1818 0.7273 0.0000 (   868 PWs)   bands (ev):

     7.6251   8.3768   9.8546  10.6610  10.6833  11.9593  24.6326  24.7051
    25.2769  33.1514

          k = 0.7273-0.1818 0.9091 (   869 PWs)   bands (ev):

     8.0087   8.4099   9.6718  10.4877  10.8920  13.8855  21.1410  22.8904
    25.0777  33.9474

          k = 0.6364-0.0909 0.8182 (   872 PWs)   bands (ev):

     8.3158   8.5222   9.4154  10.3124  10.8677  16.4129  17.8983  21.5909
    25.8364  34.4799

          k = 0.5455 0.0000 0.7273 (   879 PWs)   bands (ev):

     8.5414   8.6411   9.0929  10.1979  10.6994  15.0531  19.2011  21.3541
    27.1909  35.3571

          k = 0.8182-0.0909 1.0000 (   874 PWs)   bands (ev):

     7.7701   8.1909  10.3480  10.7368  10.9821  14.2193  20.5743  23.6667
    24.2729  32.5965

          k = 0.7273 0.0000 0.9091 (   873 PWs)   bands (ev):

     8.0017   8.3258   9.9212  10.5525  10.9798  15.9438  19.9261  20.7188
    24.6219  33.6930

          k = 0.6364-0.2727 1.0000 (   867 PWs)   bands (ev):

     8.1782   8.6518   9.1300  10.3679  10.6815  13.3060  21.7387  22.9612
    25.7000  37.6688

          k = 0.5455-0.1818 0.9091 (   875 PWs)   bands (ev):

     8.4519   8.6963   9.0603  10.2418  10.8554  15.5524  18.6587  23.0181
    24.0952  38.1377

          k = 0.6364-0.0909 1.0000 (   879 PWs)   bands (ev):

     8.1911   8.5328   9.4491  10.4117  10.9812  15.9893  20.7797  21.2648
    22.2545  37.0404

          k = 0.5455 0.0000 0.9091 (   879 PWs)   bands (ev):

     8.3538   8.7574   9.1176  10.2776  10.9798  18.1204  18.1514  20.7828
    22.6738  38.3827

     the Fermi energy is    12.5473 ev

!    total energy              =    -210.42126671 Ry
     Harris-Foulkes estimate   =    -210.42126671 Ry
     estimated scf accuracy    <          4.7E-10 Ry

     total all-electron energy =     -3307.300328 Ry

     The total energy is the sum of the following terms:

     one-electron contribution =     -28.01051744 Ry
     hartree contribution      =      30.52638181 Ry
     xc contribution           =     -44.11115490 Ry
     ewald contribution        =     -81.22522855 Ry
     one-center paw contrib.   =     -87.60061609 Ry
     smearing contrib. (-TS)   =      -0.00013155 Ry

     convergence has been achieved in   6 iterations

     Forces acting on atoms (cartesian axes, Ry/au):

     atom    1 type  1   force =     0.00000000    0.00000000    0.00000000

     Total force =     0.000000     Total SCF correction =     0.000000


     Computing stress (Cartesian axis) and pressure

          total   stress  (Ry/bohr**3)                   (kbar)     P=  -67.31
  -0.00045759   0.00000000   0.00000000        -67.31      0.00      0.00
   0.00000000  -0.00045759  -0.00000000          0.00    -67.31     -0.00
   0.00000000  -0.00000000  -0.00045759          0.00     -0.00    -67.31


     Writing output data file Cu.save/

     init_run     :      0.50s CPU      0.53s WALL (       1 calls)
     electrons    :      4.46s CPU      4.72s WALL (       1 calls)
     forces       :      0.07s CPU      0.07s WALL (       1 calls)
     stress       :      0.21s CPU      0.21s WALL (       1 calls)

     Called by init_run:
     wfcinit      :      0.21s CPU      0.21s WALL (       1 calls)
     potinit      :      0.10s CPU      0.12s WALL (       1 calls)
     hinit0       :      0.17s CPU      0.17s WALL (       1 calls)

     Called by electrons:
     c_bands      :      3.22s CPU      3.37s WALL (       7 calls)
     sum_band     :      0.59s CPU      0.61s WALL (       7 calls)
     v_of_rho     :      0.03s CPU      0.03s WALL (       7 calls)
     newd         :      0.05s CPU      0.06s WALL (       7 calls)
     PAW_pot      :      0.67s CPU      0.76s WALL (       7 calls)
     mix_rho      :      0.00s CPU      0.00s WALL (       7 calls)

     Called by c_bands:
     init_us_2    :      0.10s CPU      0.11s WALL (     952 calls)
     cegterg      :      3.07s CPU      3.21s WALL (     392 calls)

     Called by sum_band:
     sum_band:bec :      0.00s CPU      0.00s WALL (     392 calls)
     addusdens    :      0.05s CPU      0.05s WALL (       7 calls)

     Called by *egterg:
     h_psi        :      2.49s CPU      2.61s WALL (    1268 calls)
     s_psi        :      0.07s CPU      0.07s WALL (    1268 calls)
     g_psi        :      0.01s CPU      0.01s WALL (     820 calls)
     cdiaghg      :      0.28s CPU      0.29s WALL (    1156 calls)

     Called by h_psi:
     h_psi:pot    :      2.48s CPU      2.60s WALL (    1268 calls)
     h_psi:calbec :      0.13s CPU      0.13s WALL (    1268 calls)
     vloc_psi     :      2.27s CPU      2.38s WALL (    1268 calls)
     add_vuspsi   :      0.07s CPU      0.07s WALL (    1268 calls)

     General routines
     calbec       :      0.20s CPU      0.21s WALL (    1940 calls)
     fft          :      0.02s CPU      0.02s WALL (     104 calls)
     ffts         :      0.00s CPU      0.00s WALL (       7 calls)
     fftw         :      2.54s CPU      2.65s WALL (   23852 calls)

     Parallel routines
     fft_scatt_xy :      0.21s CPU      0.22s WALL (   23963 calls)
     fft_scatt_yz :      0.70s CPU      0.73s WALL (   23963 calls)

     PWSCF        :     6.08s CPU         6.48s WALL


   This run was terminated on:  23:35:26  25Mar2024            

=------------------------------------------------------------------------------=
   JOB DONE.
=------------------------------------------------------------------------------=
