
     Program PWSCF v.6.3MaX starts on 25Mar2024 at 23:24:27 

     This program is part of the open-source Quantum ESPRESSO suite
     for quantum simulation of materials; please cite
         "P. Giannozzi et al., J. Phys.:Condens. Matter 21 395502 (2009);
         "P. Giannozzi et al., J. Phys.:Condens. Matter 29 465901 (2017);
          URL http://www.quantum-espresso.org", 
     in publications or presentations arising from this work. More details at
     http://www.quantum-espresso.org/quote

     Parallel version (MPI), running on     5 processors

     MPI processes distributed on     1 nodes
     R & G space division:  proc/nbgrp/npool/nimage =       5
     Waiting for input...
     Reading input from standard input

     Current dimensions of program PWSCF are:
     Max number of different atomic species (ntypx) = 10
     Max number of k-points (npk) =  40000
     Max angular momentum in pseudopotentials (lmaxx) =  3
               file Cu.pbe-dn-rrkjus_psl.1.0.0.UPF: wavefunction(s)  3D renormalized

     Subspace diagonalization in iterative solution of the eigenvalue problem:
     a serial algorithm will be used


     Parallelization info
     --------------------
     sticks:   dense  smooth     PW     G-vecs:    dense   smooth      PW
     Min          62      62     21                  765      765     144
     Max          63      63     22                  770      770     146
     Sum         313     313    109                 3839     3839     725



     bravais-lattice index     =            2
     lattice parameter (alat)  =       6.8300  a.u.
     unit-cell volume          =      79.6530 (a.u.)^3
     number of atoms/cell      =            1
     number of atomic types    =            1
     number of electrons       =        11.00
     number of Kohn-Sham states=           10
     kinetic-energy cutoff     =      50.0000  Ry
     charge density cutoff     =     200.0000  Ry
     convergence threshold     =      1.0E-08
     mixing beta               =       0.7000
     number of iterations used =            8  plain     mixing
     Exchange-correlation      = PBE ( 1  4  3  4 0 0)

     celldm(1)=   6.830000  celldm(2)=   0.000000  celldm(3)=   0.000000
     celldm(4)=   0.000000  celldm(5)=   0.000000  celldm(6)=   0.000000

     crystal axes: (cart. coord. in units of alat)
               a(1) = (  -0.500000   0.000000   0.500000 )  
               a(2) = (   0.000000   0.500000   0.500000 )  
               a(3) = (  -0.500000   0.500000   0.000000 )  

     reciprocal axes: (cart. coord. in units 2 pi/alat)
               b(1) = ( -1.000000 -1.000000  1.000000 )  
               b(2) = (  1.000000  1.000000  1.000000 )  
               b(3) = ( -1.000000  1.000000 -1.000000 )  


     PseudoPot. # 1 for Cu read from file:
     /home/lorenzo/pseudos/Cu/Cu.pbe-dn-rrkjus_psl.1.0.0.UPF
     MD5 check sum: ba3d6c84e19846e79d48cdc68ff7152b
     Pseudo is Ultrasoft + core correction, Zval = 11.0
     Generated using "atomic" code by A. Dal Corso v.6.3
     Using radial grid of 1199 points,  6 beta functions with: 
                l(1) =   0
                l(2) =   0
                l(3) =   1
                l(4) =   1
                l(5) =   2
                l(6) =   2
     Q(r) pseudized with 0 coefficients 


     atomic species   valence    mass     pseudopotential
        Cu            11.00    63.54600     Cu( 1.00)

     48 Sym. Ops., with inversion, found



   Cartesian axes

     site n.     atom                  positions (alat units)
         1           Cu  tau(   1) = (   0.0000000   0.0000000   0.0000000  )

     number of k points=    10  gaussian smearing, width (Ry)=  0.0100
                       cart. coord. in units 2pi/alat
        k(    1) = (   0.0000000   0.0000000   0.0000000), wk =   0.0160000
        k(    2) = (  -0.2000000   0.2000000  -0.2000000), wk =   0.1280000
        k(    3) = (  -0.4000000   0.4000000  -0.4000000), wk =   0.1280000
        k(    4) = (   0.0000000   0.4000000   0.0000000), wk =   0.0960000
        k(    5) = (  -0.2000000   0.6000000  -0.2000000), wk =   0.3840000
        k(    6) = (   0.6000000  -0.2000000   0.6000000), wk =   0.3840000
        k(    7) = (   0.4000000   0.0000000   0.4000000), wk =   0.1920000
        k(    8) = (   0.0000000   0.8000000   0.0000000), wk =   0.0960000
        k(    9) = (   0.8000000   0.0000000   0.8000000), wk =   0.1920000
        k(   10) = (   0.6000000  -0.2000000   1.0000000), wk =   0.3840000

     Dense  grid:     3839 G-vectors     FFT dimensions: (  24,  24,  24)

     Estimated max dynamical RAM per process >       4.30 MB

     Estimated total dynamical RAM >      21.50 MB

     Check: negative/imaginary core charge=   -0.000002    0.000000

     Initial potential from superposition of free atoms

     starting charge   10.99977, renormalised to   11.00000
     Starting wfcs are    9 randomized atomic wfcs +    1 random wfcs

     total cpu time spent up to now is        1.1 secs

     Self-consistent Calculation

     iteration #  1     ecut=    50.00 Ry     beta= 0.70
     Davidson diagonalization with overlap
     ethr =  1.00E-02,  avg # of iterations =  3.5

     Threshold (ethr) on eigenvalues was too large:
     Diagonalizing with lowered threshold

     Davidson diagonalization with overlap
     ethr =  5.48E-04,  avg # of iterations =  1.8

     total cpu time spent up to now is        1.3 secs

     total energy              =    -122.71704263 Ry
     Harris-Foulkes estimate   =    -122.76397502 Ry
     estimated scf accuracy    <       0.05994554 Ry

     iteration #  2     ecut=    50.00 Ry     beta= 0.70
     Davidson diagonalization with overlap
     ethr =  5.45E-04,  avg # of iterations =  2.0

     total cpu time spent up to now is        1.4 secs

     total energy              =    -122.71946467 Ry
     Harris-Foulkes estimate   =    -122.80293966 Ry
     estimated scf accuracy    <       0.21698573 Ry

     iteration #  3     ecut=    50.00 Ry     beta= 0.70
     Davidson diagonalization with overlap
     ethr =  5.45E-04,  avg # of iterations =  2.0

     total cpu time spent up to now is        1.5 secs

     total energy              =    -122.75306638 Ry
     Harris-Foulkes estimate   =    -122.75314187 Ry
     estimated scf accuracy    <       0.00019458 Ry

     iteration #  4     ecut=    50.00 Ry     beta= 0.70
     Davidson diagonalization with overlap
     ethr =  1.77E-06,  avg # of iterations =  2.4

     total cpu time spent up to now is        1.6 secs

     total energy              =    -122.75314222 Ry
     Harris-Foulkes estimate   =    -122.75314738 Ry
     estimated scf accuracy    <       0.00001643 Ry

     iteration #  5     ecut=    50.00 Ry     beta= 0.70
     Davidson diagonalization with overlap
     ethr =  1.49E-07,  avg # of iterations =  1.6

     total cpu time spent up to now is        1.6 secs

     total energy              =    -122.75314549 Ry
     Harris-Foulkes estimate   =    -122.75314559 Ry
     estimated scf accuracy    <       0.00000032 Ry

     iteration #  6     ecut=    50.00 Ry     beta= 0.70
     Davidson diagonalization with overlap
     ethr =  2.91E-09,  avg # of iterations =  1.9

     total cpu time spent up to now is        1.7 secs

     End of self-consistent calculation

          k = 0.0000 0.0000 0.0000 (   531 PWs)   bands (ev):

     3.2804   9.7301   9.7301   9.7301  10.5594  10.5594  35.5982  37.9998
    37.9998  37.9998

          k =-0.2000 0.2000-0.2000 (   483 PWs)   bands (ev):

     4.6843   9.5023   9.8925   9.8925  10.5603  10.5603  27.6327  35.7457
    35.9106  35.9106

          k =-0.4000 0.4000-0.4000 (   477 PWs)   bands (ev):

     7.3492   9.7399   9.7399  10.4331  11.0317  11.0317  18.6473  34.2738
    34.8430  34.8430

          k = 0.0000 0.4000 0.0000 (   480 PWs)   bands (ev):

     5.1341   9.2230  10.1553  10.1759  10.1759  10.7502  31.3328  31.3328
    32.4138  33.4798

          k =-0.2000 0.6000-0.2000 (   475 PWs)   bands (ev):

     7.5134   8.9873   9.6811  10.2519  11.1022  11.6014  22.2501  29.0067
    29.5773  32.7189

          k = 0.6000-0.2000 0.6000 (   471 PWs)   bands (ev):

     8.2904   9.2306   9.7161  10.0979  11.0064  14.1615  17.3292  25.8825
    31.2184  33.3118

          k = 0.4000 0.0000 0.4000 (   475 PWs)   bands (ev):

     6.7183   9.2230   9.7059  10.2161  10.3184  11.4329  25.0255  25.8307
    35.9357  36.1665

          k = 0.0000 0.8000 0.0000 (   468 PWs)   bands (ev):

     7.7772   8.4424  11.0638  11.0956  11.0956  12.1005  22.8570  26.4779
    26.4779  30.4989

          k = 0.8000 0.0000 0.8000 (   474 PWs)   bands (ev):

     8.2418   8.5568  10.2731  10.8227  11.1599  16.1594  19.9074  20.4162
    27.1275  31.7428

          k = 0.6000-0.2000 1.0000 (   481 PWs)   bands (ev):

     8.5701   8.9398   9.3682  10.5990  11.0902  14.8999  20.9527  22.4563
    24.2870  38.5907

     the Fermi energy is    12.1208 ev

!    total energy              =    -122.75314555 Ry
     Harris-Foulkes estimate   =    -122.75314555 Ry
     estimated scf accuracy    <          6.1E-10 Ry

     The total energy is the sum of the following terms:

     one-electron contribution =     -27.54110892 Ry
     hartree contribution      =      30.64883829 Ry
     xc contribution           =     -44.63538144 Ry
     ewald contribution        =     -81.22522859 Ry
     smearing contrib. (-TS)   =      -0.00026488 Ry

     convergence has been achieved in   6 iterations

     Forces acting on atoms (cartesian axes, Ry/au):

     atom    1 type  1   force =     0.00000000    0.00000000    0.00000000

     Total force =     0.000000     Total SCF correction =     0.000000


     Computing stress (Cartesian axis) and pressure

          total   stress  (Ry/bohr**3)                   (kbar)     P=    6.72
   0.00004565  -0.00000000  -0.00000000          6.72     -0.00     -0.00
  -0.00000000   0.00004565   0.00000000         -0.00      6.72      0.00
  -0.00000000   0.00000000   0.00004565         -0.00      0.00      6.72


     Writing output data file Cu.save/

     init_run     :      0.15s CPU      0.16s WALL (       1 calls)
     electrons    :      0.52s CPU      0.56s WALL (       1 calls)
     forces       :      0.02s CPU      0.02s WALL (       1 calls)
     stress       :      0.05s CPU      0.05s WALL (       1 calls)

     Called by init_run:
     wfcinit      :      0.02s CPU      0.02s WALL (       1 calls)
     potinit      :      0.01s CPU      0.01s WALL (       1 calls)
     hinit0       :      0.12s CPU      0.12s WALL (       1 calls)

     Called by electrons:
     c_bands      :      0.38s CPU      0.41s WALL (       7 calls)
     sum_band     :      0.10s CPU      0.11s WALL (       7 calls)
     v_of_rho     :      0.02s CPU      0.02s WALL (       7 calls)
     newd         :      0.03s CPU      0.03s WALL (       7 calls)
     mix_rho      :      0.00s CPU      0.00s WALL (       7 calls)

     Called by c_bands:
     init_us_2    :      0.01s CPU      0.01s WALL (     170 calls)
     cegterg      :      0.36s CPU      0.39s WALL (      70 calls)

     Called by sum_band:
     sum_band:bec :      0.00s CPU      0.00s WALL (      70 calls)
     addusdens    :      0.03s CPU      0.03s WALL (       7 calls)

     Called by *egterg:
     h_psi        :      0.28s CPU      0.30s WALL (     232 calls)
     s_psi        :      0.01s CPU      0.01s WALL (     232 calls)
     g_psi        :      0.00s CPU      0.00s WALL (     152 calls)
     cdiaghg      :      0.04s CPU      0.04s WALL (     212 calls)

     Called by h_psi:
     h_psi:pot    :      0.28s CPU      0.30s WALL (     232 calls)
     h_psi:calbec :      0.01s CPU      0.01s WALL (     232 calls)
     vloc_psi     :      0.26s CPU      0.28s WALL (     232 calls)
     add_vuspsi   :      0.01s CPU      0.01s WALL (     232 calls)

     General routines
     calbec       :      0.02s CPU      0.02s WALL (     352 calls)
     fft          :      0.01s CPU      0.01s WALL (     104 calls)
     ffts         :      0.00s CPU      0.00s WALL (       7 calls)
     fftw         :      0.29s CPU      0.31s WALL (    4246 calls)

     Parallel routines
     fft_scatt_xy :      0.03s CPU      0.03s WALL (    4357 calls)
     fft_scatt_yz :      0.07s CPU      0.07s WALL (    4357 calls)

     PWSCF        :     1.72s CPU         1.81s WALL


   This run was terminated on:  23:24:29  25Mar2024            

=------------------------------------------------------------------------------=
   JOB DONE.
=------------------------------------------------------------------------------=
