
     Program PWSCF v.6.3MaX starts on 25Mar2024 at 23:41:40 

     This program is part of the open-source Quantum ESPRESSO suite
     for quantum simulation of materials; please cite
         "P. Giannozzi et al., J. Phys.:Condens. Matter 21 395502 (2009);
         "P. Giannozzi et al., J. Phys.:Condens. Matter 29 465901 (2017);
          URL http://www.quantum-espresso.org", 
     in publications or presentations arising from this work. More details at
     http://www.quantum-espresso.org/quote

     Parallel version (MPI), running on     5 processors

     MPI processes distributed on     1 nodes
     R & G space division:  proc/nbgrp/npool/nimage =       5
     Waiting for input...
     Reading input from standard input

     Current dimensions of program PWSCF are:
     Max number of different atomic species (ntypx) = 10
     Max number of k-points (npk) =  40000
     Max angular momentum in pseudopotentials (lmaxx) =  3
               file Cu.pbesol-dn-rrkjus_psl.1.0.0.UPF: wavefunction(s)  3D renormalized

     Subspace diagonalization in iterative solution of the eigenvalue problem:
     a serial algorithm will be used


     Parallelization info
     --------------------
     sticks:   dense  smooth     PW     G-vecs:    dense   smooth      PW
     Min         109     109     32                 1678     1678     290
     Max         110     110     33                 1680     1680     293
     Sum         547     547    163                 8393     8393    1459



     bravais-lattice index     =            2
     lattice parameter (alat)  =       6.8300  a.u.
     unit-cell volume          =      79.6530 (a.u.)^3
     number of atoms/cell      =            1
     number of atomic types    =            1
     number of electrons       =        11.00
     number of Kohn-Sham states=           10
     kinetic-energy cutoff     =      85.0000  Ry
     charge density cutoff     =     340.0000  Ry
     convergence threshold     =      1.0E-08
     mixing beta               =       0.7000
     number of iterations used =            8  plain     mixing
     Exchange-correlation      = PBESOL ( 1  4 10  8 0 0)

     celldm(1)=   6.830000  celldm(2)=   0.000000  celldm(3)=   0.000000
     celldm(4)=   0.000000  celldm(5)=   0.000000  celldm(6)=   0.000000

     crystal axes: (cart. coord. in units of alat)
               a(1) = (  -0.500000   0.000000   0.500000 )  
               a(2) = (   0.000000   0.500000   0.500000 )  
               a(3) = (  -0.500000   0.500000   0.000000 )  

     reciprocal axes: (cart. coord. in units 2 pi/alat)
               b(1) = ( -1.000000 -1.000000  1.000000 )  
               b(2) = (  1.000000  1.000000  1.000000 )  
               b(3) = ( -1.000000  1.000000 -1.000000 )  


     PseudoPot. # 1 for Cu read from file:
     /home/lorenzo/pseudos/Cu/Cu.pbesol-dn-rrkjus_psl.1.0.0.UPF
     MD5 check sum: bfa4c7aafbc42e028d5f4ccf7ceed93d
     Pseudo is Ultrasoft + core correction, Zval = 11.0
     Generated using "atomic" code by A. Dal Corso v.6.3
     Using radial grid of 1199 points,  6 beta functions with: 
                l(1) =   0
                l(2) =   0
                l(3) =   1
                l(4) =   1
                l(5) =   2
                l(6) =   2
     Q(r) pseudized with 0 coefficients 


     atomic species   valence    mass     pseudopotential
        Cu            11.00    63.54600     Cu( 1.00)

     48 Sym. Ops., with inversion, found



   Cartesian axes

     site n.     atom                  positions (alat units)
         1           Cu  tau(   1) = (   0.0000000   0.0000000   0.0000000  )

     number of k points=     8  gaussian smearing, width (Ry)=  0.0100
                       cart. coord. in units 2pi/alat
        k(    1) = (   0.0000000   0.0000000   0.0000000), wk =   0.0312500
        k(    2) = (  -0.2500000   0.2500000  -0.2500000), wk =   0.2500000
        k(    3) = (   0.5000000  -0.5000000   0.5000000), wk =   0.1250000
        k(    4) = (   0.0000000   0.5000000   0.0000000), wk =   0.1875000
        k(    5) = (   0.7500000  -0.2500000   0.7500000), wk =   0.7500000
        k(    6) = (   0.5000000   0.0000000   0.5000000), wk =   0.3750000
        k(    7) = (   0.0000000  -1.0000000   0.0000000), wk =   0.0937500
        k(    8) = (  -0.5000000  -1.0000000   0.0000000), wk =   0.1875000

     Dense  grid:     8393 G-vectors     FFT dimensions: (  30,  30,  30)

     Estimated max dynamical RAM per process >       8.17 MB

     Estimated total dynamical RAM >      40.85 MB

     Initial potential from superposition of free atoms

     starting charge   10.99979, renormalised to   11.00000
     Starting wfcs are    9 randomized atomic wfcs +    1 random wfcs

     total cpu time spent up to now is        0.9 secs

     Self-consistent Calculation

     iteration #  1     ecut=    85.00 Ry     beta= 0.70
     Davidson diagonalization with overlap
     ethr =  1.00E-02,  avg # of iterations =  3.6

     Threshold (ethr) on eigenvalues was too large:
     Diagonalizing with lowered threshold

     Davidson diagonalization with overlap
     ethr =  6.70E-04,  avg # of iterations =  1.0

     total cpu time spent up to now is        1.1 secs

     total energy              =    -122.35466522 Ry
     Harris-Foulkes estimate   =    -122.41319642 Ry
     estimated scf accuracy    <       0.07365040 Ry

     iteration #  2     ecut=    85.00 Ry     beta= 0.70
     Davidson diagonalization with overlap
     ethr =  6.70E-04,  avg # of iterations =  2.0

     total cpu time spent up to now is        1.2 secs

     total energy              =    -122.35738393 Ry
     Harris-Foulkes estimate   =    -122.45679246 Ry
     estimated scf accuracy    <       0.25466852 Ry

     iteration #  3     ecut=    85.00 Ry     beta= 0.70
     Davidson diagonalization with overlap
     ethr =  6.70E-04,  avg # of iterations =  2.2

     total cpu time spent up to now is        1.3 secs

     total energy              =    -122.39821845 Ry
     Harris-Foulkes estimate   =    -122.39824529 Ry
     estimated scf accuracy    <       0.00007392 Ry

     iteration #  4     ecut=    85.00 Ry     beta= 0.70
     Davidson diagonalization with overlap
     ethr =  6.72E-07,  avg # of iterations =  2.4

     total cpu time spent up to now is        1.4 secs

     total energy              =    -122.39828839 Ry
     Harris-Foulkes estimate   =    -122.39829208 Ry
     estimated scf accuracy    <       0.00001111 Ry

     iteration #  5     ecut=    85.00 Ry     beta= 0.70
     Davidson diagonalization with overlap
     ethr =  1.01E-07,  avg # of iterations =  1.2

     total cpu time spent up to now is        1.5 secs

     total energy              =    -122.39829038 Ry
     Harris-Foulkes estimate   =    -122.39829053 Ry
     estimated scf accuracy    <       0.00000045 Ry

     iteration #  6     ecut=    85.00 Ry     beta= 0.70
     Davidson diagonalization with overlap
     ethr =  4.05E-09,  avg # of iterations =  1.4

     total cpu time spent up to now is        1.6 secs

     End of self-consistent calculation

          k = 0.0000 0.0000 0.0000 (  1067 PWs)   bands (ev):

     3.0474   9.4638   9.4638   9.4638  10.2984  10.2984  35.3848  37.7532
    37.7532  37.7532

          k =-0.2500 0.2500-0.2500 (  1053 PWs)   bands (ev):

     5.1709   9.2018   9.6221   9.6221  10.3826  10.3826  24.8925  35.1714
    35.2306  35.2306

          k = 0.5000-0.5000 0.5000 (  1056 PWs)   bands (ev):

     7.3700   9.4302   9.4302  10.8749  10.8749  11.4091  16.2115  33.7971
    34.5033  34.5033

          k = 0.0000 0.5000 0.0000 (  1062 PWs)   bands (ev):

     5.8149   8.7373   9.8269  10.1335  10.1335  10.5741  29.5274  29.5274
    30.8395  31.4858

          k = 0.7500-0.2500 0.7500 (  1053 PWs)   bands (ev):

     8.0243   8.6076   9.4752  10.1106  10.9158  13.3981  19.1511  25.0141
    28.5287  32.0975

          k = 0.5000 0.0000 0.5000 (  1049 PWs)   bands (ev):

     7.7291   8.9487   9.1602   9.9684  10.2978  12.1758  22.1491  23.3541
    32.9010  34.2320

          k = 0.0000-1.0000 0.0000 (  1034 PWs)   bands (ev):

     7.5822   8.0505  10.8562  11.0199  11.0199  13.9065  19.5652  25.5230
    25.5230  30.0382

          k =-0.5000-1.0000 0.0000 (  1048 PWs)   bands (ev):

     8.3308   8.9425   8.9425  10.2551  11.0206  18.6394  18.6394  20.7694
    21.2252  40.8406

     the Fermi energy is    13.2315 ev

!    total energy              =    -122.39829044 Ry
     Harris-Foulkes estimate   =    -122.39829044 Ry
     estimated scf accuracy    <          2.3E-09 Ry

     The total energy is the sum of the following terms:

     one-electron contribution =     -27.57430271 Ry
     hartree contribution      =      30.51019649 Ry
     xc contribution           =     -44.10848327 Ry
     ewald contribution        =     -81.22522855 Ry
     smearing contrib. (-TS)   =      -0.00047239 Ry

     convergence has been achieved in   6 iterations

     Forces acting on atoms (cartesian axes, Ry/au):

     atom    1 type  1   force =     0.00000000    0.00000000    0.00000000

     Total force =     0.000000     Total SCF correction =     0.000000


     Computing stress (Cartesian axis) and pressure

          total   stress  (Ry/bohr**3)                   (kbar)     P=  -37.76
  -0.00025670   0.00000000  -0.00000000        -37.76      0.00     -0.00
   0.00000000  -0.00025670  -0.00000000          0.00    -37.76     -0.00
  -0.00000000  -0.00000000  -0.00025670         -0.00     -0.00    -37.76


     Writing output data file Cu.save/

     init_run     :      0.22s CPU      0.23s WALL (       1 calls)
     electrons    :      0.66s CPU      0.70s WALL (       1 calls)
     forces       :      0.03s CPU      0.03s WALL (       1 calls)
     stress       :      0.09s CPU      0.09s WALL (       1 calls)

     Called by init_run:
     wfcinit      :      0.03s CPU      0.03s WALL (       1 calls)
     potinit      :      0.01s CPU      0.01s WALL (       1 calls)
     hinit0       :      0.17s CPU      0.17s WALL (       1 calls)

     Called by electrons:
     c_bands      :      0.42s CPU      0.45s WALL (       7 calls)
     sum_band     :      0.15s CPU      0.16s WALL (       7 calls)
     v_of_rho     :      0.03s CPU      0.03s WALL (       7 calls)
     newd         :      0.05s CPU      0.06s WALL (       7 calls)
     mix_rho      :      0.00s CPU      0.00s WALL (       7 calls)

     Called by c_bands:
     init_us_2    :      0.02s CPU      0.02s WALL (     136 calls)
     cegterg      :      0.40s CPU      0.43s WALL (      56 calls)

     Called by sum_band:
     sum_band:bec :      0.00s CPU      0.00s WALL (      56 calls)
     addusdens    :      0.05s CPU      0.06s WALL (       7 calls)

     Called by *egterg:
     h_psi        :      0.34s CPU      0.36s WALL (     175 calls)
     s_psi        :      0.01s CPU      0.01s WALL (     175 calls)
     g_psi        :      0.00s CPU      0.00s WALL (     111 calls)
     cdiaghg      :      0.03s CPU      0.03s WALL (     159 calls)

     Called by h_psi:
     h_psi:pot    :      0.34s CPU      0.36s WALL (     175 calls)
     h_psi:calbec :      0.01s CPU      0.02s WALL (     175 calls)
     vloc_psi     :      0.31s CPU      0.33s WALL (     175 calls)
     add_vuspsi   :      0.01s CPU      0.01s WALL (     175 calls)

     General routines
     calbec       :      0.02s CPU      0.03s WALL (     271 calls)
     fft          :      0.02s CPU      0.02s WALL (     104 calls)
     ffts         :      0.00s CPU      0.00s WALL (       7 calls)
     fftw         :      0.35s CPU      0.37s WALL (    3426 calls)

     Parallel routines
     fft_scatt_xy :      0.03s CPU      0.03s WALL (    3537 calls)
     fft_scatt_yz :      0.08s CPU      0.08s WALL (    3537 calls)

     PWSCF        :     1.71s CPU         1.79s WALL


   This run was terminated on:  23:41:41  25Mar2024            

=------------------------------------------------------------------------------=
   JOB DONE.
=------------------------------------------------------------------------------=
