
     Program PWSCF v.6.3MaX starts on 25Mar2024 at 23:11:43 

     This program is part of the open-source Quantum ESPRESSO suite
     for quantum simulation of materials; please cite
         "P. Giannozzi et al., J. Phys.:Condens. Matter 21 395502 (2009);
         "P. Giannozzi et al., J. Phys.:Condens. Matter 29 465901 (2017);
          URL http://www.quantum-espresso.org", 
     in publications or presentations arising from this work. More details at
     http://www.quantum-espresso.org/quote

     Parallel version (MPI), running on     5 processors

     MPI processes distributed on     1 nodes
     R & G space division:  proc/nbgrp/npool/nimage =       5
     Waiting for input...
     Reading input from standard input

     Current dimensions of program PWSCF are:
     Max number of different atomic species (ntypx) = 10
     Max number of k-points (npk) =  40000
     Max angular momentum in pseudopotentials (lmaxx) =  3
               file Cu.pbe-dn-rrkjus_psl.1.0.0.UPF: wavefunction(s)  3D renormalized

     Subspace diagonalization in iterative solution of the eigenvalue problem:
     a serial algorithm will be used


     Parallelization info
     --------------------
     sticks:   dense  smooth     PW     G-vecs:    dense   smooth      PW
     Min          18      18      7                  121      121      33
     Max          19      19      8                  123      123      35
     Sum          91      91     37                  609      609     169



     bravais-lattice index     =            2
     lattice parameter (alat)  =       6.8300  a.u.
     unit-cell volume          =      79.6530 (a.u.)^3
     number of atoms/cell      =            1
     number of atomic types    =            1
     number of electrons       =        11.00
     number of Kohn-Sham states=           10
     kinetic-energy cutoff     =      15.0000  Ry
     charge density cutoff     =      60.0000  Ry
     convergence threshold     =      1.0E-08
     mixing beta               =       0.7000
     number of iterations used =            8  plain     mixing
     Exchange-correlation      = PBE ( 1  4  3  4 0 0)

     celldm(1)=   6.830000  celldm(2)=   0.000000  celldm(3)=   0.000000
     celldm(4)=   0.000000  celldm(5)=   0.000000  celldm(6)=   0.000000

     crystal axes: (cart. coord. in units of alat)
               a(1) = (  -0.500000   0.000000   0.500000 )  
               a(2) = (   0.000000   0.500000   0.500000 )  
               a(3) = (  -0.500000   0.500000   0.000000 )  

     reciprocal axes: (cart. coord. in units 2 pi/alat)
               b(1) = ( -1.000000 -1.000000  1.000000 )  
               b(2) = (  1.000000  1.000000  1.000000 )  
               b(3) = ( -1.000000  1.000000 -1.000000 )  


     PseudoPot. # 1 for Cu read from file:
     /home/lorenzo/pseudos/Cu/Cu.pbe-dn-rrkjus_psl.1.0.0.UPF
     MD5 check sum: ba3d6c84e19846e79d48cdc68ff7152b
     Pseudo is Ultrasoft + core correction, Zval = 11.0
     Generated using "atomic" code by A. Dal Corso v.6.3
     Using radial grid of 1199 points,  6 beta functions with: 
                l(1) =   0
                l(2) =   0
                l(3) =   1
                l(4) =   1
                l(5) =   2
                l(6) =   2
     Q(r) pseudized with 0 coefficients 


     atomic species   valence    mass     pseudopotential
        Cu            11.00    63.54600     Cu( 1.00)

     48 Sym. Ops., with inversion, found



   Cartesian axes

     site n.     atom                  positions (alat units)
         1           Cu  tau(   1) = (   0.0000000   0.0000000   0.0000000  )

     number of k points=    29  gaussian smearing, width (Ry)=  0.0100
                       cart. coord. in units 2pi/alat
        k(    1) = (   0.0000000   0.0000000   0.0000000), wk =   0.0039062
        k(    2) = (  -0.1250000   0.1250000  -0.1250000), wk =   0.0312500
        k(    3) = (  -0.2500000   0.2500000  -0.2500000), wk =   0.0312500
        k(    4) = (  -0.3750000   0.3750000  -0.3750000), wk =   0.0312500
        k(    5) = (   0.5000000  -0.5000000   0.5000000), wk =   0.0156250
        k(    6) = (   0.0000000   0.2500000   0.0000000), wk =   0.0234375
        k(    7) = (  -0.1250000   0.3750000  -0.1250000), wk =   0.0937500
        k(    8) = (  -0.2500000   0.5000000  -0.2500000), wk =   0.0937500
        k(    9) = (   0.6250000  -0.3750000   0.6250000), wk =   0.0937500
        k(   10) = (   0.5000000  -0.2500000   0.5000000), wk =   0.0937500
        k(   11) = (   0.3750000  -0.1250000   0.3750000), wk =   0.0937500
        k(   12) = (   0.2500000   0.0000000   0.2500000), wk =   0.0468750
        k(   13) = (   0.0000000   0.5000000   0.0000000), wk =   0.0234375
        k(   14) = (  -0.1250000   0.6250000  -0.1250000), wk =   0.0937500
        k(   15) = (   0.7500000  -0.2500000   0.7500000), wk =   0.0937500
        k(   16) = (   0.6250000  -0.1250000   0.6250000), wk =   0.0937500
        k(   17) = (   0.5000000   0.0000000   0.5000000), wk =   0.0468750
        k(   18) = (   0.0000000   0.7500000   0.0000000), wk =   0.0234375
        k(   19) = (   0.8750000  -0.1250000   0.8750000), wk =   0.0937500
        k(   20) = (   0.7500000   0.0000000   0.7500000), wk =   0.0468750
        k(   21) = (   0.0000000  -1.0000000   0.0000000), wk =   0.0117188
        k(   22) = (  -0.2500000   0.5000000   0.0000000), wk =   0.0937500
        k(   23) = (   0.6250000  -0.3750000   0.8750000), wk =   0.1875000
        k(   24) = (   0.5000000  -0.2500000   0.7500000), wk =   0.0937500
        k(   25) = (   0.7500000  -0.2500000   1.0000000), wk =   0.0937500
        k(   26) = (   0.6250000  -0.1250000   0.8750000), wk =   0.1875000
        k(   27) = (   0.5000000   0.0000000   0.7500000), wk =   0.0937500
        k(   28) = (  -0.2500000  -1.0000000   0.0000000), wk =   0.0468750
        k(   29) = (  -0.5000000  -1.0000000   0.0000000), wk =   0.0234375

     Dense  grid:      609 G-vectors     FFT dimensions: (  12,  12,  12)

     Estimated max dynamical RAM per process >       1.21 MB

     Estimated total dynamical RAM >       6.04 MB

     Check: negative/imaginary core charge=   -0.001143    0.000000

     Initial potential from superposition of free atoms

     starting charge   10.99977, renormalised to   11.00000
     Starting wfcs are    9 randomized atomic wfcs +    1 random wfcs

     total cpu time spent up to now is        0.8 secs

     Self-consistent Calculation

     iteration #  1     ecut=    15.00 Ry     beta= 0.70
     Davidson diagonalization with overlap
     ethr =  1.00E-02,  avg # of iterations =  3.9

     total cpu time spent up to now is        1.0 secs

     total energy              =    -117.73754054 Ry
     Harris-Foulkes estimate   =    -120.69771674 Ry
     estimated scf accuracy    <       3.60531578 Ry

     iteration #  2     ecut=    15.00 Ry     beta= 0.70
     Davidson diagonalization with overlap
     ethr =  1.00E-02,  avg # of iterations =  2.2

     total cpu time spent up to now is        1.1 secs

     total energy              =    -119.44332948 Ry
     Harris-Foulkes estimate   =    -120.27145398 Ry
     estimated scf accuracy    <       1.45535666 Ry

     iteration #  3     ecut=    15.00 Ry     beta= 0.70
     Davidson diagonalization with overlap
     ethr =  1.00E-02,  avg # of iterations =  1.7

     total cpu time spent up to now is        1.1 secs

     total energy              =    -119.51451747 Ry
     Harris-Foulkes estimate   =    -119.59251767 Ry
     estimated scf accuracy    <       0.11509004 Ry

     iteration #  4     ecut=    15.00 Ry     beta= 0.70
     Davidson diagonalization with overlap
     ethr =  1.05E-03,  avg # of iterations =  2.3

     total cpu time spent up to now is        1.2 secs

     total energy              =    -119.53248349 Ry
     Harris-Foulkes estimate   =    -119.59426738 Ry
     estimated scf accuracy    <       0.10948446 Ry

     iteration #  5     ecut=    15.00 Ry     beta= 0.70
     Davidson diagonalization with overlap
     ethr =  9.95E-04,  avg # of iterations =  1.8

     total cpu time spent up to now is        1.3 secs

     total energy              =    -119.55550826 Ry
     Harris-Foulkes estimate   =    -119.55542764 Ry
     estimated scf accuracy    <       0.00002188 Ry

     iteration #  6     ecut=    15.00 Ry     beta= 0.70
     Davidson diagonalization with overlap
     ethr =  1.99E-07,  avg # of iterations =  3.0

     total cpu time spent up to now is        1.4 secs

     total energy              =    -119.55545690 Ry
     Harris-Foulkes estimate   =    -119.55577661 Ry
     estimated scf accuracy    <       0.00053928 Ry

     iteration #  7     ecut=    15.00 Ry     beta= 0.70
     Davidson diagonalization with overlap
     ethr =  1.99E-07,  avg # of iterations =  2.6

     total cpu time spent up to now is        1.5 secs

     total energy              =    -119.55556458 Ry
     Harris-Foulkes estimate   =    -119.55556464 Ry
     estimated scf accuracy    <       0.00000039 Ry

     iteration #  8     ecut=    15.00 Ry     beta= 0.70
     Davidson diagonalization with overlap
     ethr =  3.53E-09,  avg # of iterations =  1.4

     total cpu time spent up to now is        1.5 secs

     End of self-consistent calculation

          k = 0.0000 0.0000 0.0000 (    65 PWs)   bands (ev):

     3.5602   7.9710   7.9710   9.1155   9.1155   9.1155  37.0383  37.0383
    37.0383  37.2391

          k =-0.1250 0.1250-0.1250 (    68 PWs)   bands (ev):

     4.1012   7.4726   7.7700   7.7700   9.0760   9.0760  32.5605  36.7301
    36.7301  37.5485

          k =-0.2500 0.2500-0.2500 (    74 PWs)   bands (ev):

     5.2774   6.2115   6.2115   7.2476   8.3158   8.3158  25.7162  35.4424
    35.4424  37.1017

          k =-0.3750 0.3750-0.3750 (    74 PWs)   bands (ev):

     5.7476   6.3485   6.3485   8.0592   8.0592   9.5592  19.7841  34.1683
    34.1683  35.8728

          k = 0.5000-0.5000 0.5000 (    76 PWs)   bands (ev):

     5.3332   5.9062   5.9062   7.9574   7.9574  12.0333  15.9053  33.6279
    33.6279  35.3249

          k = 0.0000 0.2500 0.0000 (    72 PWs)   bands (ev):

     4.2855   6.9107   6.9107   7.1079   8.3126   8.6680  34.2114  34.2114
    35.5574  37.0737

          k =-0.1250 0.3750-0.1250 (    77 PWs)   bands (ev):

     5.2200   5.5586   6.0003   6.7955   7.2217   8.2578  28.1292  32.2488
    35.3740  36.8625

          k =-0.2500 0.5000-0.2500 (    78 PWs)   bands (ev):

     5.4783   5.7390   6.1801   6.9142   7.2822   9.0683  21.8064  31.4088
    32.8487  35.2770

          k = 0.6250-0.3750 0.6250 (    80 PWs)   bands (ev):

     4.9217   5.5811   5.9899   6.4488   7.1828  12.2759  16.5541  30.5246
    31.7410  34.9191

          k = 0.5000-0.2500 0.5000 (    80 PWs)   bands (ev):

     4.4935   5.7897   6.1238   6.5224   7.2655  11.0961  18.0074  29.3811
    33.3728  35.5374

          k = 0.3750-0.1250 0.3750 (    75 PWs)   bands (ev):

     5.5583   6.1937   6.4464   7.5763   8.1639   8.3730  24.0176  29.4705
    36.1876  37.2896

          k = 0.2500 0.0000 0.2500 (    71 PWs)   bands (ev):

     4.8679   6.6126   7.0084   8.0145   8.2435   9.0307  30.3312  30.9201
    39.2245  40.3269

          k = 0.0000 0.5000 0.0000 (    76 PWs)   bands (ev):

     5.5098   6.2247   6.2247   7.1491   7.6405   7.7575  29.7543  29.7543
    31.9535  34.3834

          k =-0.1250 0.6250-0.1250 (    79 PWs)   bands (ev):

     5.4002   5.7774   5.8375   6.4568   7.1724   9.5843  24.8348  28.4056
    28.4541  34.7665

          k = 0.7500-0.2500 0.7500 (    80 PWs)   bands (ev):

     4.9439   5.6735   6.3876   6.6449   6.7670  12.7206  19.3319  25.5923
    28.6451  34.7107

          k = 0.6250-0.1250 0.6250 (    79 PWs)   bands (ev):

     5.3289   5.9332   6.0917   6.8951   7.0053  14.2734  17.7790  23.8573
    30.3235  35.1368

          k = 0.5000 0.0000 0.5000 (    79 PWs)   bands (ev):

     5.6473   5.7451   6.0094   6.2516   7.2770  10.7151  22.8708  23.5860
    33.1971  36.1031

          k = 0.0000 0.7500 0.0000 (    80 PWs)   bands (ev):

     5.1563   5.1827   6.2439   6.2439   7.3242  10.9961  24.3622  26.6085
    26.6085  33.4636

          k = 0.8750-0.1250 0.8750 (    78 PWs)   bands (ev):

     5.3728   5.9049   6.8091   6.8750   7.4828  13.7114  21.4544  23.1990
    26.3627  34.5156

          k = 0.7500 0.0000 0.7500 (    77 PWs)   bands (ev):

     6.0474   6.3784   6.5086   6.9579   7.1095  16.9835  18.6446  20.6515
    27.6840  34.9751

          k = 0.0000-1.0000 0.0000 (    80 PWs)   bands (ev):

     5.1528   5.8859   5.8859   6.7694   6.7737  14.4199  20.4362  25.4779
    25.4779  34.1668

          k =-0.2500 0.5000 0.0000 (    76 PWs)   bands (ev):

     5.7122   5.8828   6.2817   7.4780   7.6530   8.6617  26.6455  26.8913
    32.8015  37.7607

          k = 0.6250-0.3750 0.8750 (    79 PWs)   bands (ev):

     5.0930   5.6699   6.1662   6.7178   7.5113  11.1726  20.7320  26.3707
    29.6791  37.2840

          k = 0.5000-0.2500 0.7500 (    78 PWs)   bands (ev):

     5.5062   6.0028   6.4017   6.5598   7.4888  14.5415  16.6061  26.8564
    28.0859  36.8371

          k = 0.7500-0.2500 1.0000 (    82 PWs)   bands (ev):

     4.7735   5.2362   5.6037   6.4733   6.6524  11.8847  23.8163  24.0532
    25.3021  37.0126

          k = 0.6250-0.1250 0.8750 (    79 PWs)   bands (ev):

     5.4230   5.9594   6.3903   6.5527   7.1297  15.7930  19.1417  22.5042
    25.0618  37.8230

          k = 0.5000 0.0000 0.7500 (    78 PWs)   bands (ev):

     5.6233   6.3195   6.4117   6.8474   7.1632  14.6737  20.2366  21.6336
    26.8935  38.2929

          k =-0.2500-1.0000 0.0000 (    80 PWs)   bands (ev):

     4.8102   6.3619   6.4220   6.5218   6.8100  15.7974  19.7287  23.1944
    23.4277  36.8669

          k =-0.5000-1.0000 0.0000 (    84 PWs)   bands (ev):

     4.7273   5.2272   5.6975   5.6975   6.3071  18.9748  18.9748  20.3318
    21.3905  41.4900

     the Fermi energy is    11.3239 ev

!    total energy              =    -119.55556465 Ry
     Harris-Foulkes estimate   =    -119.55556465 Ry
     estimated scf accuracy    <          6.6E-09 Ry

     The total energy is the sum of the following terms:

     one-electron contribution =     -20.34016564 Ry
     hartree contribution      =      24.88880497 Ry
     xc contribution           =     -42.87880212 Ry
     ewald contribution        =     -81.22523186 Ry
     smearing contrib. (-TS)   =      -0.00017000 Ry

     convergence has been achieved in   8 iterations

     Forces acting on atoms (cartesian axes, Ry/au):

     atom    1 type  1   force =     0.00000000    0.00000000    0.00000000

     Total force =     0.000000     Total SCF correction =     0.000000


     Computing stress (Cartesian axis) and pressure

          total   stress  (Ry/bohr**3)                   (kbar)     P=********
  -0.11973123   0.00000000   0.00000000     -17613.07      0.00      0.00
   0.00000000  -0.11973123  -0.00000000          0.00 -17613.07     -0.00
   0.00000000  -0.00000000  -0.11973123          0.00     -0.00 -17613.07


     Writing output data file Cu.save/

     init_run     :      0.09s CPU      0.10s WALL (       1 calls)
     electrons    :      0.58s CPU      0.69s WALL (       1 calls)
     forces       :      0.01s CPU      0.01s WALL (       1 calls)
     stress       :      0.02s CPU      0.02s WALL (       1 calls)

     Called by init_run:
     wfcinit      :      0.02s CPU      0.03s WALL (       1 calls)
     potinit      :      0.00s CPU      0.00s WALL (       1 calls)
     hinit0       :      0.06s CPU      0.06s WALL (       1 calls)

     Called by electrons:
     c_bands      :      0.50s CPU      0.58s WALL (       8 calls)
     sum_band     :      0.07s CPU      0.09s WALL (       8 calls)
     v_of_rho     :      0.00s CPU      0.00s WALL (       9 calls)
     newd         :      0.01s CPU      0.01s WALL (       9 calls)
     mix_rho      :      0.00s CPU      0.00s WALL (       8 calls)

     Called by c_bands:
     init_us_2    :      0.01s CPU      0.01s WALL (     551 calls)
     cegterg      :      0.48s CPU      0.57s WALL (     232 calls)

     Called by sum_band:
     sum_band:bec :      0.00s CPU      0.00s WALL (     232 calls)
     addusdens    :      0.01s CPU      0.01s WALL (       8 calls)

     Called by *egterg:
     h_psi        :      0.29s CPU      0.34s WALL (     808 calls)
     s_psi        :      0.01s CPU      0.01s WALL (     808 calls)
     g_psi        :      0.00s CPU      0.00s WALL (     547 calls)
     cdiaghg      :      0.14s CPU      0.16s WALL (     779 calls)

     Called by h_psi:
     h_psi:pot    :      0.28s CPU      0.33s WALL (     808 calls)
     h_psi:calbec :      0.02s CPU      0.03s WALL (     808 calls)
     vloc_psi     :      0.25s CPU      0.29s WALL (     808 calls)
     add_vuspsi   :      0.01s CPU      0.01s WALL (     808 calls)

     General routines
     calbec       :      0.03s CPU      0.04s WALL (    1185 calls)
     fft          :      0.01s CPU      0.01s WALL (     125 calls)
     ffts         :      0.00s CPU      0.00s WALL (       8 calls)
     fftw         :      0.26s CPU      0.32s WALL (   14920 calls)

     Parallel routines
     fft_scatt_xy :      0.03s CPU      0.04s WALL (   15053 calls)
     fft_scatt_yz :      0.13s CPU      0.15s WALL (   15053 calls)

     PWSCF        :     1.46s CPU         1.62s WALL


   This run was terminated on:  23:11:44  25Mar2024            

=------------------------------------------------------------------------------=
   JOB DONE.
=------------------------------------------------------------------------------=
