
     Program PWSCF v.6.3MaX starts on 25Mar2024 at 23:21:58 

     This program is part of the open-source Quantum ESPRESSO suite
     for quantum simulation of materials; please cite
         "P. Giannozzi et al., J. Phys.:Condens. Matter 21 395502 (2009);
         "P. Giannozzi et al., J. Phys.:Condens. Matter 29 465901 (2017);
          URL http://www.quantum-espresso.org", 
     in publications or presentations arising from this work. More details at
     http://www.quantum-espresso.org/quote

     Parallel version (MPI), running on     5 processors

     MPI processes distributed on     1 nodes
     R & G space division:  proc/nbgrp/npool/nimage =       5
     Waiting for input...
     Reading input from standard input

     Current dimensions of program PWSCF are:
     Max number of different atomic species (ntypx) = 10
     Max number of k-points (npk) =  40000
     Max angular momentum in pseudopotentials (lmaxx) =  3
               file Cu.pbe-dn-kjpaw_psl.1.0.0.UPF: wavefunction(s)  4S 3D renormalized

     Subspace diagonalization in iterative solution of the eigenvalue problem:
     a serial algorithm will be used


     Parallelization info
     --------------------
     sticks:   dense  smooth     PW     G-vecs:    dense   smooth      PW
     Min          59      59     17                  657      657     112
     Max          59      59     19                  658      658     113
     Sum         295     295     91                 3287     3287     561



     bravais-lattice index     =            2
     lattice parameter (alat)  =       6.8300  a.u.
     unit-cell volume          =      79.6530 (a.u.)^3
     number of atoms/cell      =            1
     number of atomic types    =            1
     number of electrons       =        11.00
     number of Kohn-Sham states=           10
     kinetic-energy cutoff     =      45.0000  Ry
     charge density cutoff     =     180.0000  Ry
     convergence threshold     =      1.0E-08
     mixing beta               =       0.7000
     number of iterations used =            8  plain     mixing
     Exchange-correlation      = SLA PW PBX PBC ( 1  4  3  4 0 0)

     celldm(1)=   6.830000  celldm(2)=   0.000000  celldm(3)=   0.000000
     celldm(4)=   0.000000  celldm(5)=   0.000000  celldm(6)=   0.000000

     crystal axes: (cart. coord. in units of alat)
               a(1) = (  -0.500000   0.000000   0.500000 )  
               a(2) = (   0.000000   0.500000   0.500000 )  
               a(3) = (  -0.500000   0.500000   0.000000 )  

     reciprocal axes: (cart. coord. in units 2 pi/alat)
               b(1) = ( -1.000000 -1.000000  1.000000 )  
               b(2) = (  1.000000  1.000000  1.000000 )  
               b(3) = ( -1.000000  1.000000 -1.000000 )  


     PseudoPot. # 1 for Cu read from file:
     /home/lorenzo/pseudos/Cu/Cu.pbe-dn-kjpaw_psl.1.0.0.UPF
     MD5 check sum: cfffd1f38ee05704b3e17f46f1730a6f
     Pseudo is Projector augmented-wave + core cor, Zval = 11.0
     Generated using "atomic" code by A. Dal Corso v.6.3
     Shape of augmentation charge: PSQ
     Using radial grid of 1199 points,  6 beta functions with: 
                l(1) =   0
                l(2) =   0
                l(3) =   1
                l(4) =   1
                l(5) =   2
                l(6) =   2
     Q(r) pseudized with 0 coefficients 


     atomic species   valence    mass     pseudopotential
        Cu            11.00    63.54600     Cu( 1.00)

     48 Sym. Ops., with inversion, found



   Cartesian axes

     site n.     atom                  positions (alat units)
         1           Cu  tau(   1) = (   0.0000000   0.0000000   0.0000000  )

     number of k points=     4  gaussian smearing, width (Ry)=  0.0100
                       cart. coord. in units 2pi/alat
        k(    1) = (   0.0000000   0.0000000   0.0000000), wk =   0.0740741
        k(    2) = (  -0.3333333   0.3333333  -0.3333333), wk =   0.5925926
        k(    3) = (   0.0000000   0.6666667   0.0000000), wk =   0.4444444
        k(    4) = (   0.6666667  -0.0000000   0.6666667), wk =   0.8888889

     Dense  grid:     3287 G-vectors     FFT dimensions: (  24,  24,  24)

     Estimated max dynamical RAM per process >       3.74 MB

     Estimated total dynamical RAM >      18.71 MB

     Check: negative/imaginary core charge=   -0.000008    0.000000

     Initial potential from superposition of free atoms

     starting charge   10.99977, renormalised to   11.00000
     Starting wfcs are    9 randomized atomic wfcs +    1 random wfcs
     Checking if some PAW data can be deallocated... 

     total cpu time spent up to now is        1.0 secs

     Self-consistent Calculation

     iteration #  1     ecut=    45.00 Ry     beta= 0.70
     Davidson diagonalization with overlap
     ethr =  1.00E-02,  avg # of iterations =  4.8

     Threshold (ethr) on eigenvalues was too large:
     Diagonalizing with lowered threshold

     Davidson diagonalization with overlap
     ethr =  5.66E-04,  avg # of iterations =  1.0

     total cpu time spent up to now is        1.2 secs

     total energy              =    -213.08411926 Ry
     Harris-Foulkes estimate   =    -213.13306466 Ry
     estimated scf accuracy    <       0.06224793 Ry

     iteration #  2     ecut=    45.00 Ry     beta= 0.70
     Davidson diagonalization with overlap
     ethr =  5.66E-04,  avg # of iterations =  2.0

     total cpu time spent up to now is        1.3 secs

     total energy              =    -213.08326271 Ry
     Harris-Foulkes estimate   =    -213.17003459 Ry
     estimated scf accuracy    <       0.22557159 Ry

     iteration #  3     ecut=    45.00 Ry     beta= 0.70
     Davidson diagonalization with overlap
     ethr =  5.66E-04,  avg # of iterations =  2.0

     total cpu time spent up to now is        1.5 secs

     total energy              =    -213.12002962 Ry
     Harris-Foulkes estimate   =    -213.12006863 Ry
     estimated scf accuracy    <       0.00016360 Ry

     iteration #  4     ecut=    45.00 Ry     beta= 0.70
     Davidson diagonalization with overlap
     ethr =  1.49E-06,  avg # of iterations =  2.5

     total cpu time spent up to now is        1.6 secs

     total energy              =    -213.12014335 Ry
     Harris-Foulkes estimate   =    -213.12014300 Ry
     estimated scf accuracy    <       0.00000337 Ry

     iteration #  5     ecut=    45.00 Ry     beta= 0.70
     Davidson diagonalization with overlap
     ethr =  3.07E-08,  avg # of iterations =  1.2

     total cpu time spent up to now is        1.8 secs

     total energy              =    -213.12014366 Ry
     Harris-Foulkes estimate   =    -213.12014359 Ry
     estimated scf accuracy    <       0.00000013 Ry

     iteration #  6     ecut=    45.00 Ry     beta= 0.70
     Davidson diagonalization with overlap
     ethr =  1.20E-09,  avg # of iterations =  2.5

     total cpu time spent up to now is        1.9 secs

     total energy              =    -213.12014368 Ry
     Harris-Foulkes estimate   =    -213.12014368 Ry
     estimated scf accuracy    <       0.00000001 Ry

     iteration #  7     ecut=    45.00 Ry     beta= 0.70
     Davidson diagonalization with overlap
     ethr =  1.28E-10,  avg # of iterations =  1.0

     total cpu time spent up to now is        2.0 secs

     End of self-consistent calculation

          k = 0.0000 0.0000 0.0000 (   411 PWs)   bands (ev):

     3.2656   9.6014   9.6014   9.6014  10.4249  10.4249  35.5896  37.9814
    37.9814  37.9814

          k =-0.3333 0.3333-0.3333 (   401 PWs)   bands (ev):

     6.6315   9.6003   9.6815   9.6815  10.7276  10.7276  21.2527  34.7057
    34.9973  34.9973

          k = 0.0000 0.6667 0.0000 (   419 PWs)   bands (ev):

     7.3342   8.5364  10.5454  10.6697  10.6697  10.8372  26.3116  27.6355
    27.6355  30.8519

          k = 0.6667-0.0000 0.6667 (   403 PWs)   bands (ev):

     8.5724   8.7424   9.4719  10.3549  10.8007  15.8847  18.5668  21.1335
    29.2994  32.5487

     the Fermi energy is    10.9543 ev

!    total energy              =    -213.12014368 Ry
     Harris-Foulkes estimate   =    -213.12014368 Ry
     estimated scf accuracy    <          6.8E-10 Ry

     total all-electron energy =     -3309.999910 Ry

     The total energy is the sum of the following terms:

     one-electron contribution =     -27.99407019 Ry
     hartree contribution      =      30.56915536 Ry
     xc contribution           =     -44.61815045 Ry
     ewald contribution        =     -81.22522862 Ry
     one-center paw contrib.   =     -89.85031029 Ry
     smearing contrib. (-TS)   =      -0.00153948 Ry

     convergence has been achieved in   7 iterations

     Forces acting on atoms (cartesian axes, Ry/au):

     atom    1 type  1   force =     0.00000000    0.00000000    0.00000000

     Total force =     0.000000     Total SCF correction =     0.000000


     Computing stress (Cartesian axis) and pressure

          total   stress  (Ry/bohr**3)                   (kbar)     P=  -40.04
  -0.00027219   0.00000000   0.00000000        -40.04      0.00      0.00
   0.00000000  -0.00027219  -0.00000000          0.00    -40.04     -0.00
   0.00000000  -0.00000000  -0.00027219          0.00     -0.00    -40.04


     Writing output data file Cu.save/

     init_run     :      0.24s CPU      0.26s WALL (       1 calls)
     electrons    :      0.91s CPU      1.02s WALL (       1 calls)
     forces       :      0.01s CPU      0.01s WALL (       1 calls)
     stress       :      0.04s CPU      0.04s WALL (       1 calls)

     Called by init_run:
     wfcinit      :      0.00s CPU      0.01s WALL (       1 calls)
     potinit      :      0.09s CPU      0.11s WALL (       1 calls)
     hinit0       :      0.12s CPU      0.12s WALL (       1 calls)

     Called by electrons:
     c_bands      :      0.16s CPU      0.17s WALL (       8 calls)
     sum_band     :      0.06s CPU      0.06s WALL (       8 calls)
     v_of_rho     :      0.02s CPU      0.02s WALL (       8 calls)
     newd         :      0.03s CPU      0.03s WALL (       8 calls)
     PAW_pot      :      0.74s CPU      0.84s WALL (       8 calls)
     mix_rho      :      0.00s CPU      0.00s WALL (       8 calls)

     Called by c_bands:
     init_us_2    :      0.01s CPU      0.01s WALL (      76 calls)
     cegterg      :      0.15s CPU      0.16s WALL (      32 calls)

     Called by sum_band:
     sum_band:bec :      0.00s CPU      0.00s WALL (      32 calls)
     addusdens    :      0.03s CPU      0.03s WALL (       8 calls)

     Called by *egterg:
     h_psi        :      0.11s CPU      0.12s WALL (     104 calls)
     s_psi        :      0.00s CPU      0.00s WALL (     104 calls)
     g_psi        :      0.00s CPU      0.00s WALL (      68 calls)
     cdiaghg      :      0.02s CPU      0.02s WALL (      96 calls)

     Called by h_psi:
     h_psi:pot    :      0.11s CPU      0.12s WALL (     104 calls)
     h_psi:calbec :      0.01s CPU      0.01s WALL (     104 calls)
     vloc_psi     :      0.10s CPU      0.11s WALL (     104 calls)
     add_vuspsi   :      0.00s CPU      0.00s WALL (     104 calls)

     General routines
     calbec       :      0.01s CPU      0.01s WALL (     156 calls)
     fft          :      0.01s CPU      0.01s WALL (     115 calls)
     ffts         :      0.00s CPU      0.00s WALL (       8 calls)
     fftw         :      0.11s CPU      0.12s WALL (    1890 calls)

     Parallel routines
     fft_scatt_xy :      0.01s CPU      0.01s WALL (    2013 calls)
     fft_scatt_yz :      0.04s CPU      0.04s WALL (    2013 calls)

     PWSCF        :     1.96s CPU         2.13s WALL


   This run was terminated on:  23:22: 0  25Mar2024            

=------------------------------------------------------------------------------=
   JOB DONE.
=------------------------------------------------------------------------------=
