
     Program PWSCF v.6.3MaX starts on 25Mar2024 at 23: 6:17 

     This program is part of the open-source Quantum ESPRESSO suite
     for quantum simulation of materials; please cite
         "P. Giannozzi et al., J. Phys.:Condens. Matter 21 395502 (2009);
         "P. Giannozzi et al., J. Phys.:Condens. Matter 29 465901 (2017);
          URL http://www.quantum-espresso.org", 
     in publications or presentations arising from this work. More details at
     http://www.quantum-espresso.org/quote

     Parallel version (MPI), running on     5 processors

     MPI processes distributed on     1 nodes
     R & G space division:  proc/nbgrp/npool/nimage =       5
     Waiting for input...
     Reading input from standard input

     Current dimensions of program PWSCF are:
     Max number of different atomic species (ntypx) = 10
     Max number of k-points (npk) =  40000
     Max angular momentum in pseudopotentials (lmaxx) =  3
               file Cu.pbesol-dn-kjpaw_psl.1.0.0.UPF: wavefunction(s)  4S 3D renormalized

     Subspace diagonalization in iterative solution of the eigenvalue problem:
     a serial algorithm will be used


     Parallelization info
     --------------------
     sticks:   dense  smooth     PW     G-vecs:    dense   smooth      PW
     Min         129     129     39                 2168     2168     381
     Max         130     130     40                 2171     2171     384
     Sum         649     649    199                10849    10849    1917



     bravais-lattice index     =            2
     lattice parameter (alat)  =       6.8300  a.u.
     unit-cell volume          =      79.6530 (a.u.)^3
     number of atoms/cell      =            1
     number of atomic types    =            1
     number of electrons       =        11.00
     number of Kohn-Sham states=           10
     kinetic-energy cutoff     =     100.0000  Ry
     charge density cutoff     =     400.0000  Ry
     convergence threshold     =      1.0E-08
     mixing beta               =       0.7000
     number of iterations used =            8  plain     mixing
     Exchange-correlation      = SLA PW PSX PSC ( 1  4 10  8 0 0)

     celldm(1)=   6.830000  celldm(2)=   0.000000  celldm(3)=   0.000000
     celldm(4)=   0.000000  celldm(5)=   0.000000  celldm(6)=   0.000000

     crystal axes: (cart. coord. in units of alat)
               a(1) = (  -0.500000   0.000000   0.500000 )  
               a(2) = (   0.000000   0.500000   0.500000 )  
               a(3) = (  -0.500000   0.500000   0.000000 )  

     reciprocal axes: (cart. coord. in units 2 pi/alat)
               b(1) = ( -1.000000 -1.000000  1.000000 )  
               b(2) = (  1.000000  1.000000  1.000000 )  
               b(3) = ( -1.000000  1.000000 -1.000000 )  


     PseudoPot. # 1 for Cu read from file:
     /home/lorenzo/pseudos/Cu/Cu.pbesol-dn-kjpaw_psl.1.0.0.UPF
     MD5 check sum: 1e9735a74797514c934643dbd229f231
     Pseudo is Projector augmented-wave + core cor, Zval = 11.0
     Generated using "atomic" code by A. Dal Corso v.6.3
     Shape of augmentation charge: PSQ
     Using radial grid of 1199 points,  6 beta functions with: 
                l(1) =   0
                l(2) =   0
                l(3) =   1
                l(4) =   1
                l(5) =   2
                l(6) =   2
     Q(r) pseudized with 0 coefficients 


     atomic species   valence    mass     pseudopotential
        Cu            11.00    63.54600     Cu( 1.00)

     48 Sym. Ops., with inversion, found



   Cartesian axes

     site n.     atom                  positions (alat units)
         1           Cu  tau(   1) = (   0.0000000   0.0000000   0.0000000  )

     number of k points=    56  gaussian smearing, width (Ry)=  0.0100
                       cart. coord. in units 2pi/alat
        k(    1) = (   0.0000000   0.0000000   0.0000000), wk =   0.0015026
        k(    2) = (  -0.0909091   0.0909091  -0.0909091), wk =   0.0120210
        k(    3) = (  -0.1818182   0.1818182  -0.1818182), wk =   0.0120210
        k(    4) = (  -0.2727273   0.2727273  -0.2727273), wk =   0.0120210
        k(    5) = (  -0.3636364   0.3636364  -0.3636364), wk =   0.0120210
        k(    6) = (  -0.4545455   0.4545455  -0.4545455), wk =   0.0120210
        k(    7) = (   0.0000000   0.1818182   0.0000000), wk =   0.0090158
        k(    8) = (  -0.0909091   0.2727273  -0.0909091), wk =   0.0360631
        k(    9) = (  -0.1818182   0.3636364  -0.1818182), wk =   0.0360631
        k(   10) = (  -0.2727273   0.4545455  -0.2727273), wk =   0.0360631
        k(   11) = (  -0.3636364   0.5454545  -0.3636364), wk =   0.0360631
        k(   12) = (   0.5454545  -0.3636364   0.5454545), wk =   0.0360631
        k(   13) = (   0.4545455  -0.2727273   0.4545455), wk =   0.0360631
        k(   14) = (   0.3636364  -0.1818182   0.3636364), wk =   0.0360631
        k(   15) = (   0.2727273  -0.0909091   0.2727273), wk =   0.0360631
        k(   16) = (   0.1818182  -0.0000000   0.1818182), wk =   0.0180316
        k(   17) = (   0.0000000   0.3636364   0.0000000), wk =   0.0090158
        k(   18) = (  -0.0909091   0.4545455  -0.0909091), wk =   0.0360631
        k(   19) = (  -0.1818182   0.5454545  -0.1818182), wk =   0.0360631
        k(   20) = (  -0.2727273   0.6363636  -0.2727273), wk =   0.0360631
        k(   21) = (   0.6363636  -0.2727273   0.6363636), wk =   0.0360631
        k(   22) = (   0.5454545  -0.1818182   0.5454545), wk =   0.0360631
        k(   23) = (   0.4545455  -0.0909091   0.4545455), wk =   0.0360631
        k(   24) = (   0.3636364   0.0000000   0.3636364), wk =   0.0180316
        k(   25) = (   0.0000000   0.5454545   0.0000000), wk =   0.0090158
        k(   26) = (  -0.0909091   0.6363636  -0.0909091), wk =   0.0360631
        k(   27) = (  -0.1818182   0.7272727  -0.1818182), wk =   0.0360631
        k(   28) = (   0.7272727  -0.1818182   0.7272727), wk =   0.0360631
        k(   29) = (   0.6363636  -0.0909091   0.6363636), wk =   0.0360631
        k(   30) = (   0.5454545   0.0000000   0.5454545), wk =   0.0180316
        k(   31) = (   0.0000000   0.7272727   0.0000000), wk =   0.0090158
        k(   32) = (  -0.0909091   0.8181818  -0.0909091), wk =   0.0360631
        k(   33) = (   0.8181818  -0.0909091   0.8181818), wk =   0.0360631
        k(   34) = (   0.7272727   0.0000000   0.7272727), wk =   0.0180316
        k(   35) = (   0.0000000   0.9090909   0.0000000), wk =   0.0090158
        k(   36) = (   0.9090909  -0.0000000   0.9090909), wk =   0.0180316
        k(   37) = (  -0.1818182   0.3636364   0.0000000), wk =   0.0360631
        k(   38) = (  -0.2727273   0.4545455  -0.0909091), wk =   0.0721262
        k(   39) = (  -0.3636364   0.5454545  -0.1818182), wk =   0.0721262
        k(   40) = (   0.5454545  -0.3636364   0.7272727), wk =   0.0721262
        k(   41) = (  -0.1818182   0.5454545   0.0000000), wk =   0.0360631
        k(   42) = (  -0.2727273   0.6363636  -0.0909091), wk =   0.0721262
        k(   43) = (   0.6363636  -0.2727273   0.8181818), wk =   0.0721262
        k(   44) = (   0.5454545  -0.1818182   0.7272727), wk =   0.0721262
        k(   45) = (   0.4545455  -0.0909091   0.6363636), wk =   0.0721262
        k(   46) = (   0.3636364   0.0000000   0.5454545), wk =   0.0360631
        k(   47) = (  -0.1818182   0.7272727   0.0000000), wk =   0.0360631
        k(   48) = (   0.7272727  -0.1818182   0.9090909), wk =   0.0721262
        k(   49) = (   0.6363636  -0.0909091   0.8181818), wk =   0.0721262
        k(   50) = (   0.5454545   0.0000000   0.7272727), wk =   0.0360631
        k(   51) = (   0.8181818  -0.0909091   1.0000000), wk =   0.0360631
        k(   52) = (   0.7272727   0.0000000   0.9090909), wk =   0.0360631
        k(   53) = (   0.6363636  -0.2727273   1.0000000), wk =   0.0360631
        k(   54) = (   0.5454545  -0.1818182   0.9090909), wk =   0.0721262
        k(   55) = (   0.6363636  -0.0909091   1.0000000), wk =   0.0360631
        k(   56) = (   0.5454545   0.0000000   0.9090909), wk =   0.0360631

     Dense  grid:    10849 G-vectors     FFT dimensions: (  32,  32,  32)

     Estimated max dynamical RAM per process >      12.21 MB

     Estimated total dynamical RAM >      61.06 MB

     Initial potential from superposition of free atoms

     starting charge   10.99979, renormalised to   11.00000
     Starting wfcs are    9 randomized atomic wfcs +    1 random wfcs
     Checking if some PAW data can be deallocated... 

     total cpu time spent up to now is        1.3 secs

     Self-consistent Calculation

     iteration #  1     ecut=   100.00 Ry     beta= 0.70
     Davidson diagonalization with overlap
     ethr =  1.00E-02,  avg # of iterations =  3.8

     Threshold (ethr) on eigenvalues was too large:
     Diagonalizing with lowered threshold

     Davidson diagonalization with overlap
     ethr =  6.84E-04,  avg # of iterations =  1.2

     total cpu time spent up to now is        2.8 secs

     total energy              =    -210.37630448 Ry
     Harris-Foulkes estimate   =    -210.43627040 Ry
     estimated scf accuracy    <       0.07498271 Ry

     iteration #  2     ecut=   100.00 Ry     beta= 0.70
     Davidson diagonalization with overlap
     ethr =  6.82E-04,  avg # of iterations =  2.0

     total cpu time spent up to now is        3.6 secs

     total energy              =    -210.37844125 Ry
     Harris-Foulkes estimate   =    -210.48402877 Ry
     estimated scf accuracy    <       0.27454124 Ry

     iteration #  3     ecut=   100.00 Ry     beta= 0.70
     Davidson diagonalization with overlap
     ethr =  6.82E-04,  avg # of iterations =  2.0

     total cpu time spent up to now is        4.5 secs

     total energy              =    -210.42138222 Ry
     Harris-Foulkes estimate   =    -210.42145244 Ry
     estimated scf accuracy    <       0.00014172 Ry

     iteration #  4     ecut=   100.00 Ry     beta= 0.70
     Davidson diagonalization with overlap
     ethr =  1.29E-06,  avg # of iterations =  2.4

     total cpu time spent up to now is        5.4 secs

     total energy              =    -210.42145086 Ry
     Harris-Foulkes estimate   =    -210.42146055 Ry
     estimated scf accuracy    <       0.00002559 Ry

     iteration #  5     ecut=   100.00 Ry     beta= 0.70
     Davidson diagonalization with overlap
     ethr =  2.33E-07,  avg # of iterations =  1.1

     total cpu time spent up to now is        6.1 secs

     total energy              =    -210.42145559 Ry
     Harris-Foulkes estimate   =    -210.42145579 Ry
     estimated scf accuracy    <       0.00000054 Ry

     iteration #  6     ecut=   100.00 Ry     beta= 0.70
     Davidson diagonalization with overlap
     ethr =  4.90E-09,  avg # of iterations =  2.1

     total cpu time spent up to now is        6.8 secs

     End of self-consistent calculation

          k = 0.0000 0.0000 0.0000 (  1363 PWs)   bands (ev):

     3.0428   9.4666   9.4666   9.4666  10.3080  10.3080  35.3785  37.7503
    37.7503  37.7503

          k =-0.0909 0.0909-0.0909 (  1363 PWs)   bands (ev):

     3.3426   9.4039   9.5217   9.5217  10.2879  10.2879  33.0538  36.0702
    36.9083  36.9083

          k =-0.1818 0.1818-0.1818 (  1342 PWs)   bands (ev):

     4.2123   9.2646   9.6200   9.6200  10.2898  10.2898  28.3200  35.6364
    35.8298  35.8298

          k =-0.2727 0.2727-0.2727 (  1351 PWs)   bands (ev):

     5.5180   9.2171   9.6117   9.6117  10.4443  10.4443  23.7996  34.9801
    35.0742  35.0742

          k =-0.3636 0.3636-0.3636 (  1350 PWs)   bands (ev):

     6.7888   9.5178   9.5178   9.7055  10.6888  10.6888  19.7863  34.2766
    34.6611  34.6611

          k =-0.4545 0.4545-0.4545 (  1356 PWs)   bands (ev):

     7.3229   9.4461   9.4461  10.8579  10.8579  11.0454  16.7633  33.8447
    34.5175  34.5175

          k = 0.0000 0.1818 0.0000 (  1343 PWs)   bands (ev):

     3.4420   9.3484   9.5625   9.5625  10.2020  10.3514  34.1513  34.9718
    34.9718  36.3820

          k =-0.0909 0.2727-0.0909 (  1346 PWs)   bands (ev):

     4.1211   9.2075   9.6659   9.6753  10.1275  10.3978  30.0965  33.4960
    34.2708  37.4653

          k =-0.1818 0.3636-0.1818 (  1344 PWs)   bands (ev):

     5.2912   9.0834   9.6280   9.7199  10.2990  10.5287  25.4672  32.5302
    33.6315  36.4573

          k =-0.2727 0.4545-0.2727 (  1345 PWs)   bands (ev):

     6.6318   9.2115   9.4826   9.6527  10.7372  10.7607  21.2499  32.1146
    32.9749  34.4561

          k =-0.3636 0.5455-0.3636 (  1350 PWs)   bands (ev):

     7.3993   9.3513   9.5653   9.8588  10.8778  11.6539  17.7364  31.9117
    32.3049  33.6444

          k = 0.5455-0.3636 0.5455 (  1353 PWs)   bands (ev):

     7.5277   9.3343   9.5286  10.1516  10.8498  12.3785  16.3566  30.8721
    33.1501  33.7981

          k = 0.4545-0.2727 0.4545 (  1348 PWs)   bands (ev):

     7.2436   9.4100   9.5688   9.6807  10.6474  11.4120  18.7998  30.3291
    34.5501  34.6527

          k = 0.3636-0.1818 0.3636 (  1355 PWs)   bands (ev):

     6.2106   9.1549   9.5388   9.6681  10.3523  10.8506  22.6037  30.3347
    35.8127  36.7329

          k = 0.2727-0.0909 0.2727 (  1359 PWs)   bands (ev):

     4.8586   9.1459   9.6349   9.7224  10.1400  10.5255  26.9788  30.8581
    37.2544  38.6154

          k = 0.1818-0.0000 0.1818 (  1357 PWs)   bands (ev):

     3.8330   9.2942   9.6056   9.6078  10.1824  10.3591  31.3785  32.1976
    37.3182  38.8528

          k = 0.0000 0.3636 0.0000 (  1343 PWs)   bands (ev):

     4.5911   9.0364   9.8380   9.8380   9.9517  10.4687  31.6811  31.6811
    32.4624  33.9164

          k =-0.0909 0.4545-0.0909 (  1344 PWs)   bands (ev):

     5.5550   8.8594   9.6915   9.9668  10.2338  10.5806  27.5301  30.4314
    32.0922  33.3356

          k =-0.1818 0.5455-0.1818 (  1341 PWs)   bands (ev):

     6.7821   8.7821   9.4649   9.9500  10.7721  10.9031  23.1906  29.8053
    30.2040  32.7756

          k =-0.2727 0.6364-0.2727 (  1342 PWs)   bands (ev):

     7.6773   8.9160   9.3901   9.8633  10.9019  12.1501  19.3365  28.3633
    29.8648  32.6314

          k = 0.6364-0.2727 0.6364 (  1352 PWs)   bands (ev):

     7.9327   9.0069   9.5558   9.7931  10.8582  13.8240  16.6257  26.9745
    30.6426  32.8939

          k = 0.5455-0.1818 0.5455 (  1346 PWs)   bands (ev):

     7.8626   9.1176   9.3969   9.7844  10.6348  12.8672  18.2524  26.1408
    32.1121  33.6303

          k = 0.4545-0.0909 0.4545 (  1341 PWs)   bands (ev):

     7.2139   9.0157   9.3220   9.8508  10.3046  11.6176  21.8748  25.9029
    34.1901  34.9000

          k = 0.3636 0.0000 0.3636 (  1350 PWs)   bands (ev):

     5.9685   8.9966   9.5270   9.9667   9.9833  10.9432  25.7963  26.5371
    36.6524  36.7609

          k = 0.0000 0.5455 0.0000 (  1343 PWs)   bands (ev):

     6.2328   8.6391   9.8668  10.2470  10.2470  10.6239  28.8853  28.8853
    29.5572  31.2173

          k =-0.0909 0.6364-0.0909 (  1344 PWs)   bands (ev):

     7.0972   8.4874   9.8151  10.3389  10.7785  10.9135  25.4661  27.1403
    27.9887  31.7192

          k =-0.1818 0.7273-0.1818 (  1339 PWs)   bands (ev):

     7.7921   8.4696   9.6518  10.2711  10.9219  12.4259  21.5287  25.0688
    27.8302  31.8336

          k = 0.7273-0.1818 0.7273 (  1341 PWs)   bands (ev):

     8.1764   8.5686   9.5004  10.1757  10.8848  14.6878  18.0893  23.4984
    28.4470  32.0672

          k = 0.6364-0.0909 0.6364 (  1339 PWs)   bands (ev):

     8.3547   8.7264   9.2753  10.0962  10.6736  14.8827  18.0118  22.5029
    29.7920  32.6314

          k = 0.5455 0.0000 0.5455 (  1336 PWs)   bands (ev):

     8.1109   8.9998   9.0116  10.0193  10.4114  12.8974  21.0419  22.5320
    31.7527  33.5981

          k = 0.0000 0.7273 0.0000 (  1347 PWs)   bands (ev):

     7.3918   8.2848  10.6849  10.6849  10.7683  10.9492  24.4573  26.8034
    26.8034  30.4445

          k =-0.0909 0.8182-0.0909 (  1341 PWs)   bands (ev):

     7.6517   8.2093  10.4593  10.6669  10.9339  12.6412  22.3191  24.0910
    26.3780  31.0775

          k = 0.8182-0.0909 0.8182 (  1343 PWs)   bands (ev):

     7.9332   8.2821  10.0640  10.5607  10.9314  14.9111  20.5172  20.9038
    26.7793  31.4587

          k = 0.7273 0.0000 0.7273 (  1346 PWs)   bands (ev):

     8.2560   8.4527   9.5984  10.3839  10.7885  17.1808  17.4677  20.4273
    27.9613  31.9069

          k = 0.0000 0.9091 0.0000 (  1338 PWs)   bands (ev):

     7.5822   8.0789  10.8550  10.9819  10.9819  13.3064  20.3648  25.6683
    25.6683  30.0800

          k = 0.9091-0.0000 0.9091 (  1344 PWs)   bands (ev):

     7.6790   8.1073  10.7103  10.7972  10.9970  14.4227  19.6409  23.5854
    25.8086  30.8785

          k =-0.1818 0.3636 0.0000 (  1350 PWs)   bands (ev):

     4.9534   9.0436   9.6648   9.8491  10.0786  10.5495  28.6497  29.2875
    35.5673  36.0432

          k =-0.2727 0.4545-0.0909 (  1352 PWs)   bands (ev):

     6.1867   8.9330   9.4937   9.8944  10.2860  10.9102  24.4183  28.3153
    33.3008  36.1893

          k =-0.3636 0.5455-0.1818 (  1345 PWs)   bands (ev):

     7.3451   9.0787   9.3244   9.8024  10.6317  11.6217  20.3733  28.1557
    31.2596  35.6390

          k = 0.5455-0.3636 0.7273 (  1342 PWs)   bands (ev):

     7.7877   9.1295   9.5901   9.7303  10.8215  13.0206  17.1365  28.5605
    29.7098  35.2773

          k =-0.1818 0.5455 0.0000 (  1339 PWs)   bands (ev):

     6.5367   8.6940   9.5443  10.2473  10.3377  10.9015  26.3648  26.9163
    30.0357  34.3030

          k =-0.2727 0.6364-0.0909 (  1340 PWs)   bands (ev):

     7.5543   8.6478   9.3447  10.2035  10.6701  11.7897  22.4470  26.3307
    27.8105  34.7454

          k = 0.6364-0.2727 0.8182 (  1346 PWs)   bands (ev):

     8.1118   8.7323   9.2897  10.0840  10.8423  13.5343  18.7840  25.9705
    26.6802  34.8769

          k = 0.5455-0.1818 0.7273 (  1348 PWs)   bands (ev):

     8.2680   8.7743   9.3128  10.0059  10.7977  14.9175  16.9755  24.7607
    27.5576  35.3917

          k = 0.4545-0.0909 0.6364 (  1348 PWs)   bands (ev):

     8.1104   8.9131   9.0706  10.0456  10.5812  13.0169  19.9383  24.1130
    29.0275  36.4211

          k = 0.3636 0.0000 0.5455 (  1350 PWs)   bands (ev):

     7.3165   8.8382   9.2492  10.1150  10.2759  11.6679  23.4682  24.4094
    30.9836  37.8906

          k =-0.1818 0.7273 0.0000 (  1342 PWs)   bands (ev):

     7.6248   8.3763   9.8542  10.6604  10.6827  11.9590  24.6325  24.7050
    25.2769  33.1512

          k = 0.7273-0.1818 0.9091 (  1345 PWs)   bands (ev):

     8.0083   8.4095   9.6714  10.4872  10.8915  13.8853  21.1409  22.8903
    25.0776  33.9473

          k = 0.6364-0.0909 0.8182 (  1344 PWs)   bands (ev):

     8.3154   8.5218   9.4149  10.3119  10.8671  16.4128  17.8982  21.5909
    25.8363  34.4797

          k = 0.5455 0.0000 0.7273 (  1338 PWs)   bands (ev):

     8.5410   8.6407   9.0925  10.1973  10.6989  15.0530  19.2010  21.3541
    27.1908  35.3570

          k = 0.8182-0.0909 1.0000 (  1343 PWs)   bands (ev):

     7.7697   8.1904  10.3475  10.7362  10.9816  14.2192  20.5742  23.6666
    24.2729  32.5962

          k = 0.7273 0.0000 0.9091 (  1342 PWs)   bands (ev):

     8.0013   8.3254   9.9207  10.5519  10.9792  15.9437  19.9260  20.7188
    24.6218  33.6928

          k = 0.6364-0.2727 1.0000 (  1349 PWs)   bands (ev):

     8.1778   8.6513   9.1295  10.3674  10.6810  13.3058  21.7386  22.9612
    25.7000  37.6686

          k = 0.5455-0.1818 0.9091 (  1347 PWs)   bands (ev):

     8.4515   8.6959   9.0598  10.2413  10.8548  15.5522  18.6586  23.0181
    24.0952  38.1376

          k = 0.6364-0.0909 1.0000 (  1342 PWs)   bands (ev):

     8.1907   8.5324   9.4487  10.4112  10.9807  15.9892  20.7796  21.2647
    22.2545  37.0402

          k = 0.5455 0.0000 0.9091 (  1346 PWs)   bands (ev):

     8.3534   8.7570   9.1171  10.2770  10.9793  18.1203  18.1513  20.7828
    22.6737  38.3826

     the Fermi energy is    12.5471 ev

!    total energy              =    -210.42145570 Ry
     Harris-Foulkes estimate   =    -210.42145570 Ry
     estimated scf accuracy    <          6.5E-10 Ry

     total all-electron energy =     -3307.300517 Ry

     The total energy is the sum of the following terms:

     one-electron contribution =     -28.01072821 Ry
     hartree contribution      =      30.52617773 Ry
     xc contribution           =     -44.11102454 Ry
     ewald contribution        =     -81.22522855 Ry
     one-center paw contrib.   =     -87.60052064 Ry
     smearing contrib. (-TS)   =      -0.00013149 Ry

     convergence has been achieved in   6 iterations

     Forces acting on atoms (cartesian axes, Ry/au):

     atom    1 type  1   force =     0.00000000    0.00000000    0.00000000

     Total force =     0.000000     Total SCF correction =     0.000000


     Computing stress (Cartesian axis) and pressure

          total   stress  (Ry/bohr**3)                   (kbar)     P=  -65.16
  -0.00044296   0.00000000   0.00000000        -65.16      0.00      0.00
   0.00000000  -0.00044296  -0.00000000          0.00    -65.16     -0.00
   0.00000000  -0.00000000  -0.00044296          0.00     -0.00    -65.16


     Writing output data file Cu.save/

     init_run     :      0.49s CPU      0.53s WALL (       1 calls)
     electrons    :      5.12s CPU      5.52s WALL (       1 calls)
     forces       :      0.07s CPU      0.07s WALL (       1 calls)
     stress       :      0.26s CPU      0.26s WALL (       1 calls)

     Called by init_run:
     wfcinit      :      0.18s CPU      0.20s WALL (       1 calls)
     potinit      :      0.10s CPU      0.11s WALL (       1 calls)
     hinit0       :      0.19s CPU      0.19s WALL (       1 calls)

     Called by electrons:
     c_bands      :      3.70s CPU      4.02s WALL (       7 calls)
     sum_band     :      0.75s CPU      0.81s WALL (       7 calls)
     v_of_rho     :      0.04s CPU      0.04s WALL (       7 calls)
     newd         :      0.07s CPU      0.08s WALL (       7 calls)
     PAW_pot      :      0.64s CPU      0.67s WALL (       7 calls)
     mix_rho      :      0.00s CPU      0.00s WALL (       7 calls)

     Called by c_bands:
     init_us_2    :      0.14s CPU      0.14s WALL (     952 calls)
     cegterg      :      3.50s CPU      3.82s WALL (     392 calls)

     Called by sum_band:
     sum_band:bec :      0.00s CPU      0.00s WALL (     392 calls)
     addusdens    :      0.08s CPU      0.08s WALL (       7 calls)

     Called by *egterg:
     h_psi        :      2.82s CPU      3.10s WALL (    1267 calls)
     s_psi        :      0.10s CPU      0.11s WALL (    1267 calls)
     g_psi        :      0.01s CPU      0.01s WALL (     819 calls)
     cdiaghg      :      0.23s CPU      0.24s WALL (    1155 calls)

     Called by h_psi:
     h_psi:pot    :      2.81s CPU      3.08s WALL (    1267 calls)
     h_psi:calbec :      0.15s CPU      0.16s WALL (    1267 calls)
     vloc_psi     :      2.55s CPU      2.80s WALL (    1267 calls)
     add_vuspsi   :      0.10s CPU      0.11s WALL (    1267 calls)

     General routines
     calbec       :      0.24s CPU      0.26s WALL (    1939 calls)
     fft          :      0.02s CPU      0.03s WALL (     104 calls)
     ffts         :      0.00s CPU      0.00s WALL (       7 calls)
     fftw         :      2.85s CPU      3.13s WALL (   23850 calls)

     Parallel routines
     fft_scatt_xy :      0.28s CPU      0.30s WALL (   23961 calls)
     fft_scatt_yz :      0.92s CPU      1.01s WALL (   23961 calls)

     PWSCF        :     6.75s CPU         7.27s WALL


   This run was terminated on:  23: 6:24  25Mar2024            

=------------------------------------------------------------------------------=
   JOB DONE.
=------------------------------------------------------------------------------=
