
     Program PWSCF v.6.3MaX starts on 25Mar2024 at 23:41:16 

     This program is part of the open-source Quantum ESPRESSO suite
     for quantum simulation of materials; please cite
         "P. Giannozzi et al., J. Phys.:Condens. Matter 21 395502 (2009);
         "P. Giannozzi et al., J. Phys.:Condens. Matter 29 465901 (2017);
          URL http://www.quantum-espresso.org", 
     in publications or presentations arising from this work. More details at
     http://www.quantum-espresso.org/quote

     Parallel version (MPI), running on     5 processors

     MPI processes distributed on     1 nodes
     R & G space division:  proc/nbgrp/npool/nimage =       5
     Waiting for input...
     Reading input from standard input

     Current dimensions of program PWSCF are:
     Max number of different atomic species (ntypx) = 10
     Max number of k-points (npk) =  40000
     Max angular momentum in pseudopotentials (lmaxx) =  3
               file Cu.pbesol-dn-kjpaw_psl.1.0.0.UPF: wavefunction(s)  4S 3D renormalized

     Subspace diagonalization in iterative solution of the eigenvalue problem:
     a serial algorithm will be used


     Parallelization info
     --------------------
     sticks:   dense  smooth     PW     G-vecs:    dense   smooth      PW
     Min         109     109     32                 1677     1677     280
     Max         110     110     33                 1680     1680     283
     Sum         547     547    163                 8393     8393    1411



     bravais-lattice index     =            2
     lattice parameter (alat)  =       6.8300  a.u.
     unit-cell volume          =      79.6530 (a.u.)^3
     number of atoms/cell      =            1
     number of atomic types    =            1
     number of electrons       =        11.00
     number of Kohn-Sham states=           10
     kinetic-energy cutoff     =      85.0000  Ry
     charge density cutoff     =     340.0000  Ry
     convergence threshold     =      1.0E-08
     mixing beta               =       0.7000
     number of iterations used =            8  plain     mixing
     Exchange-correlation      = SLA PW PSX PSC ( 1  4 10  8 0 0)

     celldm(1)=   6.830000  celldm(2)=   0.000000  celldm(3)=   0.000000
     celldm(4)=   0.000000  celldm(5)=   0.000000  celldm(6)=   0.000000

     crystal axes: (cart. coord. in units of alat)
               a(1) = (  -0.500000   0.000000   0.500000 )  
               a(2) = (   0.000000   0.500000   0.500000 )  
               a(3) = (  -0.500000   0.500000   0.000000 )  

     reciprocal axes: (cart. coord. in units 2 pi/alat)
               b(1) = ( -1.000000 -1.000000  1.000000 )  
               b(2) = (  1.000000  1.000000  1.000000 )  
               b(3) = ( -1.000000  1.000000 -1.000000 )  


     PseudoPot. # 1 for Cu read from file:
     /home/lorenzo/pseudos/Cu/Cu.pbesol-dn-kjpaw_psl.1.0.0.UPF
     MD5 check sum: 1e9735a74797514c934643dbd229f231
     Pseudo is Projector augmented-wave + core cor, Zval = 11.0
     Generated using "atomic" code by A. Dal Corso v.6.3
     Shape of augmentation charge: PSQ
     Using radial grid of 1199 points,  6 beta functions with: 
                l(1) =   0
                l(2) =   0
                l(3) =   1
                l(4) =   1
                l(5) =   2
                l(6) =   2
     Q(r) pseudized with 0 coefficients 


     atomic species   valence    mass     pseudopotential
        Cu            11.00    63.54600     Cu( 1.00)

     48 Sym. Ops., with inversion, found



   Cartesian axes

     site n.     atom                  positions (alat units)
         1           Cu  tau(   1) = (   0.0000000   0.0000000   0.0000000  )

     number of k points=     3  gaussian smearing, width (Ry)=  0.0100
                       cart. coord. in units 2pi/alat
        k(    1) = (   0.0000000   0.0000000   0.0000000), wk =   0.2500000
        k(    2) = (   0.5000000  -0.5000000   0.5000000), wk =   1.0000000
        k(    3) = (   0.0000000  -1.0000000   0.0000000), wk =   0.7500000

     Dense  grid:     8393 G-vectors     FFT dimensions: (  30,  30,  30)

     Estimated max dynamical RAM per process >       8.02 MB

     Estimated total dynamical RAM >      40.08 MB

     Initial potential from superposition of free atoms

     starting charge   10.99979, renormalised to   11.00000
     Starting wfcs are    9 randomized atomic wfcs +    1 random wfcs
     Checking if some PAW data can be deallocated... 

     total cpu time spent up to now is        1.2 secs

     Self-consistent Calculation

     iteration #  1     ecut=    85.00 Ry     beta= 0.70
     Davidson diagonalization with overlap
     ethr =  1.00E-02,  avg # of iterations =  4.3

     Threshold (ethr) on eigenvalues was too large:
     Diagonalizing with lowered threshold

     Davidson diagonalization with overlap
     ethr =  6.29E-04,  avg # of iterations =  1.0

     total cpu time spent up to now is        1.4 secs

     total energy              =    -210.23068062 Ry
     Harris-Foulkes estimate   =    -210.28416101 Ry
     estimated scf accuracy    <       0.06930735 Ry

     iteration #  2     ecut=    85.00 Ry     beta= 0.70
     Davidson diagonalization with overlap
     ethr =  6.30E-04,  avg # of iterations =  2.0

     total cpu time spent up to now is        1.5 secs

     total energy              =    -210.24109323 Ry
     Harris-Foulkes estimate   =    -210.34216746 Ry
     estimated scf accuracy    <       0.26729613 Ry

     iteration #  3     ecut=    85.00 Ry     beta= 0.70
     Davidson diagonalization with overlap
     ethr =  6.30E-04,  avg # of iterations =  2.0

     total cpu time spent up to now is        1.7 secs

     total energy              =    -210.26815596 Ry
     Harris-Foulkes estimate   =    -210.27247094 Ry
     estimated scf accuracy    <       0.01180432 Ry

     iteration #  4     ecut=    85.00 Ry     beta= 0.70
     Davidson diagonalization with overlap
     ethr =  1.07E-04,  avg # of iterations =  2.0

     total cpu time spent up to now is        1.9 secs

     total energy              =    -210.26822722 Ry
     Harris-Foulkes estimate   =    -210.27198990 Ry
     estimated scf accuracy    <       0.01938851 Ry

     iteration #  5     ecut=    85.00 Ry     beta= 0.70
     Davidson diagonalization with overlap
     ethr =  1.07E-04,  avg # of iterations =  1.0

     total cpu time spent up to now is        2.0 secs

     total energy              =    -210.27045575 Ry
     Harris-Foulkes estimate   =    -210.27101348 Ry
     estimated scf accuracy    <       0.00506081 Ry

     iteration #  6     ecut=    85.00 Ry     beta= 0.70
     Davidson diagonalization with overlap
     ethr =  4.60E-05,  avg # of iterations =  1.0

     total cpu time spent up to now is        2.2 secs

     total energy              =    -210.27055370 Ry
     Harris-Foulkes estimate   =    -210.27060911 Ry
     estimated scf accuracy    <       0.00056059 Ry

     iteration #  7     ecut=    85.00 Ry     beta= 0.70
     Davidson diagonalization with overlap
     ethr =  5.10E-06,  avg # of iterations =  1.0

     total cpu time spent up to now is        2.3 secs

     total energy              =    -210.27057567 Ry
     Harris-Foulkes estimate   =    -210.27057820 Ry
     estimated scf accuracy    <       0.00000781 Ry

     iteration #  8     ecut=    85.00 Ry     beta= 0.70
     Davidson diagonalization with overlap
     ethr =  7.10E-08,  avg # of iterations =  3.0

     total cpu time spent up to now is        2.5 secs

     total energy              =    -210.27058014 Ry
     Harris-Foulkes estimate   =    -210.27058100 Ry
     estimated scf accuracy    <       0.00004380 Ry

     iteration #  9     ecut=    85.00 Ry     beta= 0.70
     Davidson diagonalization with overlap
     ethr =  7.10E-08,  avg # of iterations =  1.0

     total cpu time spent up to now is        2.6 secs

     total energy              =    -210.27057608 Ry
     Harris-Foulkes estimate   =    -210.27058022 Ry
     estimated scf accuracy    <       0.00002941 Ry

     iteration # 10     ecut=    85.00 Ry     beta= 0.70
     Davidson diagonalization with overlap
     ethr =  7.10E-08,  avg # of iterations =  1.0

     total cpu time spent up to now is        2.8 secs

     total energy              =    -210.27057854 Ry
     Harris-Foulkes estimate   =    -210.27057884 Ry
     estimated scf accuracy    <       0.00000363 Ry

     iteration # 11     ecut=    85.00 Ry     beta= 0.70
     Davidson diagonalization with overlap
     ethr =  3.30E-08,  avg # of iterations =  1.0

     total cpu time spent up to now is        2.9 secs

     total energy              =    -210.27057867 Ry
     Harris-Foulkes estimate   =    -210.27057865 Ry
     estimated scf accuracy    <       0.00000022 Ry

     iteration # 12     ecut=    85.00 Ry     beta= 0.70
     Davidson diagonalization with overlap
     ethr =  1.96E-09,  avg # of iterations =  1.0

     total cpu time spent up to now is        3.1 secs

     total energy              =    -210.27057863 Ry
     Harris-Foulkes estimate   =    -210.27057868 Ry
     estimated scf accuracy    <       0.00000087 Ry

     iteration # 13     ecut=    85.00 Ry     beta= 0.70
     Davidson diagonalization with overlap
     ethr =  1.96E-09,  avg # of iterations =  1.0

     total cpu time spent up to now is        3.2 secs

     total energy              =    -210.27057865 Ry
     Harris-Foulkes estimate   =    -210.27057864 Ry
     estimated scf accuracy    <       0.00000013 Ry

     iteration # 14     ecut=    85.00 Ry     beta= 0.70
     Davidson diagonalization with overlap
     ethr =  1.17E-09,  avg # of iterations =  1.0

     total cpu time spent up to now is        3.4 secs

     total energy              =    -210.27057862 Ry
     Harris-Foulkes estimate   =    -210.27057865 Ry
     estimated scf accuracy    <       0.00000023 Ry

     iteration # 15     ecut=    85.00 Ry     beta= 0.70
     Davidson diagonalization with overlap
     ethr =  1.17E-09,  avg # of iterations =  1.0

     total cpu time spent up to now is        3.5 secs

     End of self-consistent calculation

          k = 0.0000 0.0000 0.0000 (  1067 PWs)   bands (ev):

     3.0503   9.7553   9.7553   9.7553  10.6425  10.6425  35.3275  37.7930
    37.7930  37.7930

          k = 0.5000-0.5000 0.5000 (  1056 PWs)   bands (ev):

     7.5397   9.7349   9.7349  11.2168  11.2168  11.4132  16.3807  33.7717
    34.5433  34.5433

          k = 0.0000-1.0000 0.0000 (  1034 PWs)   bands (ev):

     7.8080   8.2919  11.2152  11.3536  11.3536  13.9061  19.7138  25.5465
    25.5465  30.1337

     the Fermi energy is    11.5073 ev

!    total energy              =    -210.27057864 Ry
     Harris-Foulkes estimate   =    -210.27057864 Ry
     estimated scf accuracy    <          2.7E-12 Ry

     total all-electron energy =     -3307.149640 Ry

     The total energy is the sum of the following terms:

     one-electron contribution =     -28.01134529 Ry
     hartree contribution      =      30.72862019 Ry
     xc contribution           =     -44.16848191 Ry
     ewald contribution        =     -81.22522855 Ry
     one-center paw contrib.   =     -87.59113393 Ry
     smearing contrib. (-TS)   =      -0.00300916 Ry

     convergence has been achieved in  15 iterations

     Forces acting on atoms (cartesian axes, Ry/au):

     atom    1 type  1   force =     0.00000000    0.00000000    0.00000000

     Total force =     0.000000     Total SCF correction =     0.000000


     Computing stress (Cartesian axis) and pressure

          total   stress  (Ry/bohr**3)                   (kbar)     P=  184.56
   0.00125459  -0.00000000  -0.00000000        184.56     -0.00     -0.00
  -0.00000000   0.00125459   0.00000000         -0.00    184.56      0.00
  -0.00000000   0.00000000   0.00125459         -0.00      0.00    184.56


     Writing output data file Cu.save/

     init_run     :      0.31s CPU      0.33s WALL (       1 calls)
     electrons    :      2.18s CPU      2.40s WALL (       1 calls)
     forces       :      0.04s CPU      0.04s WALL (       1 calls)
     stress       :      0.09s CPU      0.09s WALL (       1 calls)

     Called by init_run:
     wfcinit      :      0.01s CPU      0.01s WALL (       1 calls)
     potinit      :      0.10s CPU      0.12s WALL (       1 calls)
     hinit0       :      0.17s CPU      0.17s WALL (       1 calls)

     Called by electrons:
     c_bands      :      0.36s CPU      0.39s WALL (      16 calls)
     sum_band     :      0.23s CPU      0.24s WALL (      16 calls)
     v_of_rho     :      0.08s CPU      0.08s WALL (      16 calls)
     newd         :      0.12s CPU      0.15s WALL (      16 calls)
     PAW_pot      :      1.46s CPU      1.63s WALL (      16 calls)
     mix_rho      :      0.01s CPU      0.01s WALL (      16 calls)

     Called by c_bands:
     init_us_2    :      0.02s CPU      0.02s WALL (     105 calls)
     cegterg      :      0.34s CPU      0.36s WALL (      48 calls)

     Called by sum_band:
     sum_band:bec :      0.00s CPU      0.00s WALL (      48 calls)
     addusdens    :      0.13s CPU      0.13s WALL (      16 calls)

     Called by *egterg:
     h_psi        :      0.28s CPU      0.30s WALL (     124 calls)
     s_psi        :      0.01s CPU      0.01s WALL (     124 calls)
     g_psi        :      0.00s CPU      0.00s WALL (      73 calls)
     cdiaghg      :      0.02s CPU      0.02s WALL (     118 calls)

     Called by h_psi:
     h_psi:pot    :      0.28s CPU      0.29s WALL (     124 calls)
     h_psi:calbec :      0.01s CPU      0.01s WALL (     124 calls)
     vloc_psi     :      0.25s CPU      0.27s WALL (     124 calls)
     add_vuspsi   :      0.01s CPU      0.01s WALL (     124 calls)

     General routines
     calbec       :      0.02s CPU      0.02s WALL (     187 calls)
     fft          :      0.05s CPU      0.05s WALL (     203 calls)
     ffts         :      0.00s CPU      0.00s WALL (      16 calls)
     fftw         :      0.29s CPU      0.31s WALL (    2604 calls)

     Parallel routines
     fft_scatt_xy :      0.03s CPU      0.03s WALL (    2823 calls)
     fft_scatt_yz :      0.09s CPU      0.09s WALL (    2823 calls)

     PWSCF        :     3.43s CPU         3.71s WALL


   This run was terminated on:  23:41:20  25Mar2024            

=------------------------------------------------------------------------------=
   JOB DONE.
=------------------------------------------------------------------------------=
