
     Program PWSCF v.6.3MaX starts on 25Mar2024 at 23:13:51 

     This program is part of the open-source Quantum ESPRESSO suite
     for quantum simulation of materials; please cite
         "P. Giannozzi et al., J. Phys.:Condens. Matter 21 395502 (2009);
         "P. Giannozzi et al., J. Phys.:Condens. Matter 29 465901 (2017);
          URL http://www.quantum-espresso.org", 
     in publications or presentations arising from this work. More details at
     http://www.quantum-espresso.org/quote

     Parallel version (MPI), running on     5 processors

     MPI processes distributed on     1 nodes
     R & G space division:  proc/nbgrp/npool/nimage =       5
     Waiting for input...
     Reading input from standard input

     Current dimensions of program PWSCF are:
     Max number of different atomic species (ntypx) = 10
     Max number of k-points (npk) =  40000
     Max angular momentum in pseudopotentials (lmaxx) =  3
               file Cu.pbe-dn-kjpaw_psl.1.0.0.UPF: wavefunction(s)  4S 3D renormalized

     Subspace diagonalization in iterative solution of the eigenvalue problem:
     a serial algorithm will be used


     Parallelization info
     --------------------
     sticks:   dense  smooth     PW     G-vecs:    dense   smooth      PW
     Min          32      32     12                  272      272      66
     Max          33      33     13                  273      273      67
     Sum         163     163     61                 1363     1363     331



     bravais-lattice index     =            2
     lattice parameter (alat)  =       6.8300  a.u.
     unit-cell volume          =      79.6530 (a.u.)^3
     number of atoms/cell      =            1
     number of atomic types    =            1
     number of electrons       =        11.00
     number of Kohn-Sham states=           10
     kinetic-energy cutoff     =      25.0000  Ry
     charge density cutoff     =     100.0000  Ry
     convergence threshold     =      1.0E-08
     mixing beta               =       0.7000
     number of iterations used =            8  plain     mixing
     Exchange-correlation      = SLA PW PBX PBC ( 1  4  3  4 0 0)

     celldm(1)=   6.830000  celldm(2)=   0.000000  celldm(3)=   0.000000
     celldm(4)=   0.000000  celldm(5)=   0.000000  celldm(6)=   0.000000

     crystal axes: (cart. coord. in units of alat)
               a(1) = (  -0.500000   0.000000   0.500000 )  
               a(2) = (   0.000000   0.500000   0.500000 )  
               a(3) = (  -0.500000   0.500000   0.000000 )  

     reciprocal axes: (cart. coord. in units 2 pi/alat)
               b(1) = ( -1.000000 -1.000000  1.000000 )  
               b(2) = (  1.000000  1.000000  1.000000 )  
               b(3) = ( -1.000000  1.000000 -1.000000 )  


     PseudoPot. # 1 for Cu read from file:
     /home/lorenzo/pseudos/Cu/Cu.pbe-dn-kjpaw_psl.1.0.0.UPF
     MD5 check sum: cfffd1f38ee05704b3e17f46f1730a6f
     Pseudo is Projector augmented-wave + core cor, Zval = 11.0
     Generated using "atomic" code by A. Dal Corso v.6.3
     Shape of augmentation charge: PSQ
     Using radial grid of 1199 points,  6 beta functions with: 
                l(1) =   0
                l(2) =   0
                l(3) =   1
                l(4) =   1
                l(5) =   2
                l(6) =   2
     Q(r) pseudized with 0 coefficients 


     atomic species   valence    mass     pseudopotential
        Cu            11.00    63.54600     Cu( 1.00)

     48 Sym. Ops., with inversion, found



   Cartesian axes

     site n.     atom                  positions (alat units)
         1           Cu  tau(   1) = (   0.0000000   0.0000000   0.0000000  )

     number of k points=    47  gaussian smearing, width (Ry)=  0.0100
                       cart. coord. in units 2pi/alat
        k(    1) = (   0.0000000   0.0000000   0.0000000), wk =   0.0020000
        k(    2) = (  -0.1000000   0.1000000  -0.1000000), wk =   0.0160000
        k(    3) = (  -0.2000000   0.2000000  -0.2000000), wk =   0.0160000
        k(    4) = (  -0.3000000   0.3000000  -0.3000000), wk =   0.0160000
        k(    5) = (  -0.4000000   0.4000000  -0.4000000), wk =   0.0160000
        k(    6) = (   0.5000000  -0.5000000   0.5000000), wk =   0.0080000
        k(    7) = (   0.0000000   0.2000000   0.0000000), wk =   0.0120000
        k(    8) = (  -0.1000000   0.3000000  -0.1000000), wk =   0.0480000
        k(    9) = (  -0.2000000   0.4000000  -0.2000000), wk =   0.0480000
        k(   10) = (  -0.3000000   0.5000000  -0.3000000), wk =   0.0480000
        k(   11) = (   0.6000000  -0.4000000   0.6000000), wk =   0.0480000
        k(   12) = (   0.5000000  -0.3000000   0.5000000), wk =   0.0480000
        k(   13) = (   0.4000000  -0.2000000   0.4000000), wk =   0.0480000
        k(   14) = (   0.3000000  -0.1000000   0.3000000), wk =   0.0480000
        k(   15) = (   0.2000000   0.0000000   0.2000000), wk =   0.0240000
        k(   16) = (   0.0000000   0.4000000   0.0000000), wk =   0.0120000
        k(   17) = (  -0.1000000   0.5000000  -0.1000000), wk =   0.0480000
        k(   18) = (  -0.2000000   0.6000000  -0.2000000), wk =   0.0480000
        k(   19) = (   0.7000000  -0.3000000   0.7000000), wk =   0.0480000
        k(   20) = (   0.6000000  -0.2000000   0.6000000), wk =   0.0480000
        k(   21) = (   0.5000000  -0.1000000   0.5000000), wk =   0.0480000
        k(   22) = (   0.4000000   0.0000000   0.4000000), wk =   0.0240000
        k(   23) = (   0.0000000   0.6000000   0.0000000), wk =   0.0120000
        k(   24) = (  -0.1000000   0.7000000  -0.1000000), wk =   0.0480000
        k(   25) = (   0.8000000  -0.2000000   0.8000000), wk =   0.0480000
        k(   26) = (   0.7000000  -0.1000000   0.7000000), wk =   0.0480000
        k(   27) = (   0.6000000  -0.0000000   0.6000000), wk =   0.0240000
        k(   28) = (   0.0000000   0.8000000   0.0000000), wk =   0.0120000
        k(   29) = (   0.9000000  -0.1000000   0.9000000), wk =   0.0480000
        k(   30) = (   0.8000000   0.0000000   0.8000000), wk =   0.0240000
        k(   31) = (   0.0000000  -1.0000000   0.0000000), wk =   0.0060000
        k(   32) = (  -0.2000000   0.4000000   0.0000000), wk =   0.0480000
        k(   33) = (  -0.3000000   0.5000000  -0.1000000), wk =   0.0960000
        k(   34) = (   0.6000000  -0.4000000   0.8000000), wk =   0.0960000
        k(   35) = (   0.5000000  -0.3000000   0.7000000), wk =   0.0480000
        k(   36) = (  -0.2000000   0.6000000   0.0000000), wk =   0.0480000
        k(   37) = (   0.7000000  -0.3000000   0.9000000), wk =   0.0960000
        k(   38) = (   0.6000000  -0.2000000   0.8000000), wk =   0.0960000
        k(   39) = (   0.5000000  -0.1000000   0.7000000), wk =   0.0960000
        k(   40) = (   0.4000000   0.0000000   0.6000000), wk =   0.0480000
        k(   41) = (   0.8000000  -0.2000000   1.0000000), wk =   0.0480000
        k(   42) = (   0.7000000  -0.1000000   0.9000000), wk =   0.0960000
        k(   43) = (   0.6000000   0.0000000   0.8000000), wk =   0.0480000
        k(   44) = (  -0.2000000  -1.0000000   0.0000000), wk =   0.0240000
        k(   45) = (   0.6000000  -0.2000000   1.0000000), wk =   0.0480000
        k(   46) = (   0.5000000  -0.1000000   0.9000000), wk =   0.0480000
        k(   47) = (  -0.4000000  -1.0000000   0.0000000), wk =   0.0240000

     Dense  grid:     1363 G-vectors     FFT dimensions: (  15,  15,  15)

     Estimated max dynamical RAM per process >       2.12 MB

     Estimated total dynamical RAM >      10.59 MB

     Check: negative/imaginary core charge=   -0.000134    0.000000

     Initial potential from superposition of free atoms

     starting charge   10.99977, renormalised to   11.00000
     Starting wfcs are    9 randomized atomic wfcs +    1 random wfcs
     Checking if some PAW data can be deallocated... 

     total cpu time spent up to now is        1.0 secs

     Self-consistent Calculation

     iteration #  1     ecut=    25.00 Ry     beta= 0.70
     Davidson diagonalization with overlap
     ethr =  1.00E-02,  avg # of iterations =  3.7

     total cpu time spent up to now is        1.3 secs

     total energy              =    -212.88467869 Ry
     Harris-Foulkes estimate   =    -213.00774732 Ry
     estimated scf accuracy    <       0.15252960 Ry

     iteration #  2     ecut=    25.00 Ry     beta= 0.70
     Davidson diagonalization with overlap
     ethr =  1.39E-03,  avg # of iterations =  2.0

     total cpu time spent up to now is        1.6 secs

     total energy              =    -212.91583843 Ry
     Harris-Foulkes estimate   =    -213.08251855 Ry
     estimated scf accuracy    <       0.39534849 Ry

     iteration #  3     ecut=    25.00 Ry     beta= 0.70
     Davidson diagonalization with overlap
     ethr =  1.39E-03,  avg # of iterations =  2.0

     total cpu time spent up to now is        1.8 secs

     total energy              =    -212.97583559 Ry
     Harris-Foulkes estimate   =    -212.97675604 Ry
     estimated scf accuracy    <       0.00154993 Ry

     iteration #  4     ecut=    25.00 Ry     beta= 0.70
     Davidson diagonalization with overlap
     ethr =  1.41E-05,  avg # of iterations =  2.2

     total cpu time spent up to now is        2.1 secs

     total energy              =    -212.97644327 Ry
     Harris-Foulkes estimate   =    -212.97686322 Ry
     estimated scf accuracy    <       0.00124182 Ry

     iteration #  5     ecut=    25.00 Ry     beta= 0.70
     Davidson diagonalization with overlap
     ethr =  1.13E-05,  avg # of iterations =  1.0

     total cpu time spent up to now is        2.3 secs

     total energy              =    -212.97658268 Ry
     Harris-Foulkes estimate   =    -212.97659170 Ry
     estimated scf accuracy    <       0.00003129 Ry

     iteration #  6     ecut=    25.00 Ry     beta= 0.70
     Davidson diagonalization with overlap
     ethr =  2.84E-07,  avg # of iterations =  1.6

     total cpu time spent up to now is        2.5 secs

     total energy              =    -212.97658584 Ry
     Harris-Foulkes estimate   =    -212.97658652 Ry
     estimated scf accuracy    <       0.00000176 Ry

     iteration #  7     ecut=    25.00 Ry     beta= 0.70
     Davidson diagonalization with overlap
     ethr =  1.60E-08,  avg # of iterations =  1.9

     total cpu time spent up to now is        2.8 secs

     End of self-consistent calculation

          k = 0.0000 0.0000 0.0000 (   169 PWs)   bands (ev):

     3.3295   9.3166   9.3166   9.3166  10.0953  10.0953  35.6764  38.0126
    38.0126  38.0126

          k =-0.1000 0.1000-0.1000 (   169 PWs)   bands (ev):

     3.6910   9.2550   9.3870   9.3870  10.0819  10.0819  33.0803  36.3034
    37.2437  37.2437

          k =-0.2000 0.2000-0.2000 (   168 PWs)   bands (ev):

     4.7269   9.1633   9.4764   9.4764  10.1514  10.1514  27.8482  35.8709
    36.1577  36.1577

          k =-0.3000 0.3000-0.3000 (   162 PWs)   bands (ev):

     6.1823   9.2802   9.4682   9.4682  10.4596  10.4596  22.9272  35.0890
    35.3983  35.3983

          k =-0.4000 0.4000-0.4000 (   162 PWs)   bands (ev):

     7.1815   9.4086   9.4086  10.3366  10.7124  10.7124  18.6710  34.3426
    34.9491  34.9491

          k = 0.5000-0.5000 0.5000 (   168 PWs)   bands (ev):

     7.3769   9.3412   9.3412  10.7253  10.7253  11.6783  16.4065  34.0585
    34.7867  34.7867

          k = 0.0000 0.2000 0.0000 (   169 PWs)   bands (ev):

     3.8108   9.1819   9.4457   9.4457   9.9834  10.1556  34.4884  35.1138
    35.1138  36.4502

          k =-0.1000 0.3000-0.1000 (   166 PWs)   bands (ev):

     4.6215   9.0561   9.5706   9.5750  10.0307  10.2175  29.8377  33.5222
    34.5010  37.7994

          k =-0.2000 0.4000-0.2000 (   161 PWs)   bands (ev):

     5.9631   9.0033   9.5046   9.6246  10.3371  10.5497  24.7651  32.5833
    33.8369  35.9720

          k =-0.3000 0.5000-0.3000 (   164 PWs)   bands (ev):

     7.1923   9.3111   9.4269   9.5382  10.7215  11.0317  20.2427  32.2952
    32.8446  34.2072

          k = 0.6000-0.4000 0.6000 (   168 PWs)   bands (ev):

     7.5489   9.2065   9.4833   9.9802  10.7411  12.4754  16.8548  31.4119
    32.8181  33.8952

          k = 0.5000-0.3000 0.5000 (   167 PWs)   bands (ev):

     7.5011   9.2566   9.4725   9.9113  10.6280  12.0184  17.7386  30.5031
    34.1604  34.4303

          k = 0.4000-0.2000 0.4000 (   166 PWs)   bands (ev):

     6.8762   9.2375   9.3798   9.5572  10.3271  10.9347  21.6702  30.2709
    35.6531  36.3102

          k = 0.3000-0.1000 0.3000 (   164 PWs)   bands (ev):

     5.4813   9.0435   9.4948   9.6116  10.0658  10.5146  26.4027  30.7080
    37.4080  38.9590

          k = 0.2000 0.0000 0.2000 (   170 PWs)   bands (ev):

     4.2789   9.1422   9.4734   9.4954   9.9727  10.1811  31.3285  31.9622
    37.7779  39.3920

          k = 0.0000 0.4000 0.0000 (   165 PWs)   bands (ev):

     5.1730   8.8672   9.8201   9.8201   9.8212  10.2825  31.5229  31.5229
    32.9175  33.7898

          k =-0.1000 0.5000-0.1000 (   168 PWs)   bands (ev):

     6.2547   8.6855   9.5648   9.9267  10.2758  10.4709  27.0589  30.2099
    31.6134  33.3497

          k =-0.2000 0.6000-0.2000 (   171 PWs)   bands (ev):

     7.4078   8.6647   9.3445   9.8536  10.7277  11.2878  22.3390  29.2273
    29.6898  33.0146

          k = 0.7000-0.3000 0.7000 (   170 PWs)   bands (ev):

     7.9216   8.8287   9.3596   9.7875  10.7882  13.2715  18.3241  27.3068
    30.0875  33.0161

          k = 0.6000-0.2000 0.6000 (   166 PWs)   bands (ev):

     8.0192   8.9337   9.4153   9.7940  10.6307  14.0814  17.3309  26.0434
    31.4086  33.5331

          k = 0.5000-0.1000 0.5000 (   167 PWs)   bands (ev):

     7.7890   9.0587   9.1070   9.7926  10.2738  12.1611  20.9835  25.4728
    33.5134  34.6272

          k = 0.4000 0.0000 0.4000 (   168 PWs)   bands (ev):

     6.7145   8.8929   9.3356   9.8992   9.9011  11.0420  25.2294  25.9297
    36.2844  36.2994

          k = 0.0000 0.6000 0.0000 (   174 PWs)   bands (ev):

     6.8833   8.4370   9.9598  10.2319  10.2319  10.4645  28.4117  28.5155
    28.5155  31.7631

          k =-0.1000 0.7000-0.1000 (   167 PWs)   bands (ev):

     7.5211   8.3272   9.9559  10.2952  10.8109  11.4695  24.9606  25.8004
    27.6996  32.2429

          k = 0.8000-0.2000 0.8000 (   174 PWs)   bands (ev):

     7.9425   8.3586   9.6690  10.1817  10.7510  13.7191  20.7730  23.6744
    27.8275  32.3282

          k = 0.7000-0.1000 0.7000 (   174 PWs)   bands (ev):

     8.2389   8.4884   9.3862  10.0921  10.6334  16.3841  17.4757  22.2477
    28.9343  32.6775

          k = 0.6000-0.0000 0.6000 (   174 PWs)   bands (ev):

     8.3615   8.7512   9.0123   9.9584  10.3676  14.1386  20.0661  22.0268
    30.8735  33.4461

          k = 0.0000 0.8000 0.0000 (   170 PWs)   bands (ev):

     7.5383   8.1148  10.6389  10.7294  10.7294  12.0653  22.9792  26.5276
    26.5276  31.1569

          k = 0.9000-0.1000 0.9000 (   170 PWs)   bands (ev):

     7.6808   8.0916  10.5073  10.5968  10.8513  14.0309  20.9912  23.7789
    26.3396  31.7995

          k = 0.8000 0.0000 0.8000 (   170 PWs)   bands (ev):

     7.9511   8.2638   9.9492  10.4060  10.7631  16.1642  20.0014  20.4758
    27.1833  32.1852

          k = 0.0000-1.0000 0.0000 (   174 PWs)   bands (ev):

     7.5340   7.9738  10.8328  10.8532  10.8532  14.1906  19.8295  25.8086
    25.8086  30.8889

          k =-0.2000 0.4000 0.0000 (   164 PWs)   bands (ev):

     5.5938   8.9016   9.5300   9.7873  10.0042  10.5285  28.3767  28.8630
    35.1683  36.6712

          k =-0.3000 0.5000-0.1000 (   166 PWs)   bands (ev):

     6.9193   8.8500   9.3192   9.8080  10.2936  11.0714  23.6801  28.0049
    32.5687  36.6475

          k = 0.6000-0.4000 0.8000 (   169 PWs)   bands (ev):

     7.7573   9.0294   9.2496   9.7313  10.6007  12.3136  19.3552  28.0427
    30.4051  36.0203

          k = 0.5000-0.3000 0.7000 (   166 PWs)   bands (ev):

     7.8940   8.9822   9.5421   9.6971  10.7492  13.9376  16.7230  28.7044
    29.0518  35.7604

          k =-0.2000 0.6000 0.0000 (   166 PWs)   bands (ev):

     7.2161   8.5438   9.4592  10.2993  10.3138  11.1489  25.9288  26.4202
    28.9179  35.0723

          k = 0.7000-0.3000 0.9000 (   172 PWs)   bands (ev):

     7.9546   8.5437   9.2574  10.1324  10.6195  12.6331  21.6699  26.0051
    26.5724  35.4675

          k = 0.6000-0.2000 0.8000 (   168 PWs)   bands (ev):

     8.2728   8.6193   9.2357  10.0267  10.7497  15.1341  17.9059  24.8155
    26.6750  35.7553

          k = 0.5000-0.1000 0.7000 (   169 PWs)   bands (ev):

     8.3632   8.7058   9.0625   9.9972  10.5654  14.3644  19.0209  23.7503
    28.0407  36.5740

          k = 0.4000 0.0000 0.6000 (   169 PWs)   bands (ev):

     7.9453   8.7733   9.0053  10.0737  10.2597  12.2627  22.7430  23.8098
    30.0415  37.9181

          k = 0.8000-0.2000 1.0000 (   172 PWs)   bands (ev):

     7.7862   8.2345   9.9065  10.5387  10.7008  13.0651  23.3311  24.2194
    24.8195  34.0536

          k = 0.7000-0.1000 0.9000 (   171 PWs)   bands (ev):

     8.0411   8.3686   9.6232  10.3237  10.8216  15.5733  20.5595  21.5793
    24.9838  34.9481

          k = 0.6000 0.0000 0.8000 (   173 PWs)   bands (ev):

     8.3574   8.5088   9.2199  10.1607  10.6480  17.1040  18.2522  21.0653
    26.1713  35.6252

          k =-0.2000-1.0000 0.0000 (   168 PWs)   bands (ev):

     7.7614   8.1498  10.2585  10.6077  10.9446  15.2771  20.0461  23.6326
    24.2454  33.7930

          k = 0.6000-0.2000 1.0000 (   163 PWs)   bands (ev):

     8.3183   8.6766   9.1042  10.2709  10.7371  14.8462  21.0962  22.5652
    24.4571  39.1954

          k = 0.5000-0.1000 0.9000 (   166 PWs)   bands (ev):

     8.3931   8.7529   8.9871  10.1612  10.8362  17.4992  18.1527  22.8891
    22.9730  39.4088

          k =-0.4000-1.0000 0.0000 (   170 PWs)   bands (ev):

     8.1849   8.6060   9.2670  10.2280  10.8738  17.5485  20.4674  20.6906
    22.1125  38.8173

     the Fermi energy is    12.4525 ev

!    total energy              =    -212.97658623 Ry
     Harris-Foulkes estimate   =    -212.97658624 Ry
     estimated scf accuracy    <          8.8E-09 Ry

     total all-electron energy =     -3309.856352 Ry

     The total energy is the sum of the following terms:

     one-electron contribution =     -27.69134671 Ry
     hartree contribution      =      30.25033070 Ry
     xc contribution           =     -44.50090090 Ry
     ewald contribution        =     -81.22522862 Ry
     one-center paw contrib.   =     -89.80914629 Ry
     smearing contrib. (-TS)   =      -0.00029442 Ry

     convergence has been achieved in   7 iterations

     Forces acting on atoms (cartesian axes, Ry/au):

     atom    1 type  1   force =     0.00000000    0.00000000    0.00000000

     Total force =     0.000000     Total SCF correction =     0.000000


     Computing stress (Cartesian axis) and pressure

          total   stress  (Ry/bohr**3)                   (kbar)     P=-1350.95
  -0.00918358  -0.00000000  -0.00000000      -1350.95     -0.00     -0.00
  -0.00000000  -0.00918358   0.00000000         -0.00  -1350.95      0.00
  -0.00000000   0.00000000  -0.00918358         -0.00      0.00  -1350.95


     Writing output data file Cu.save/

     init_run     :      0.25s CPU      0.27s WALL (       1 calls)
     electrons    :      1.50s CPU      1.74s WALL (       1 calls)
     forces       :      0.02s CPU      0.02s WALL (       1 calls)
     stress       :      0.04s CPU      0.04s WALL (       1 calls)

     Called by init_run:
     wfcinit      :      0.04s CPU      0.04s WALL (       1 calls)
     potinit      :      0.10s CPU      0.12s WALL (       1 calls)
     hinit0       :      0.09s CPU      0.10s WALL (       1 calls)

     Called by electrons:
     c_bands      :      0.72s CPU      0.84s WALL (       7 calls)
     sum_band     :      0.11s CPU      0.13s WALL (       7 calls)
     v_of_rho     :      0.01s CPU      0.01s WALL (       8 calls)
     newd         :      0.01s CPU      0.01s WALL (       8 calls)
     PAW_pot      :      0.74s CPU      0.84s WALL (       8 calls)
     mix_rho      :      0.00s CPU      0.00s WALL (       7 calls)

     Called by c_bands:
     init_us_2    :      0.02s CPU      0.03s WALL (     799 calls)
     cegterg      :      0.69s CPU      0.81s WALL (     329 calls)

     Called by sum_band:
     sum_band:bec :      0.00s CPU      0.00s WALL (     329 calls)
     addusdens    :      0.01s CPU      0.01s WALL (       7 calls)

     Called by *egterg:
     h_psi        :      0.44s CPU      0.52s WALL (    1055 calls)
     s_psi        :      0.02s CPU      0.02s WALL (    1055 calls)
     g_psi        :      0.00s CPU      0.00s WALL (     679 calls)
     cdiaghg      :      0.16s CPU      0.18s WALL (    1008 calls)

     Called by h_psi:
     h_psi:pot    :      0.44s CPU      0.52s WALL (    1055 calls)
     h_psi:calbec :      0.03s CPU      0.03s WALL (    1055 calls)
     vloc_psi     :      0.39s CPU      0.46s WALL (    1055 calls)
     add_vuspsi   :      0.02s CPU      0.02s WALL (    1055 calls)

     General routines
     calbec       :      0.04s CPU      0.05s WALL (    1619 calls)
     fft          :      0.00s CPU      0.00s WALL (     114 calls)
     ffts         :      0.00s CPU      0.00s WALL (       7 calls)
     fftw         :      0.42s CPU      0.49s WALL (   19928 calls)

     Parallel routines
     fft_scatt_xy :      0.05s CPU      0.05s WALL (   20049 calls)
     fft_scatt_yz :      0.17s CPU      0.19s WALL (   20049 calls)

     PWSCF        :     2.58s CPU         2.90s WALL


   This run was terminated on:  23:13:54  25Mar2024            

=------------------------------------------------------------------------------=
   JOB DONE.
=------------------------------------------------------------------------------=
