
     Program PWSCF v.6.3MaX starts on 25Mar2024 at 23:36:56 

     This program is part of the open-source Quantum ESPRESSO suite
     for quantum simulation of materials; please cite
         "P. Giannozzi et al., J. Phys.:Condens. Matter 21 395502 (2009);
         "P. Giannozzi et al., J. Phys.:Condens. Matter 29 465901 (2017);
          URL http://www.quantum-espresso.org", 
     in publications or presentations arising from this work. More details at
     http://www.quantum-espresso.org/quote

     Parallel version (MPI), running on     5 processors

     MPI processes distributed on     1 nodes
     R & G space division:  proc/nbgrp/npool/nimage =       5
     Waiting for input...
     Reading input from standard input

     Current dimensions of program PWSCF are:
     Max number of different atomic species (ntypx) = 10
     Max number of k-points (npk) =  40000
     Max angular momentum in pseudopotentials (lmaxx) =  3
               file Cu.pbesol-dn-kjpaw_psl.1.0.0.UPF: wavefunction(s)  4S 3D renormalized

     Subspace diagonalization in iterative solution of the eigenvalue problem:
     a serial algorithm will be used


     Parallelization info
     --------------------
     sticks:   dense  smooth     PW     G-vecs:    dense   smooth      PW
     Min          95      95     30                 1375     1375     248
     Max          95      95     31                 1376     1376     251
     Sum         475     475    151                 6879     6879    1243



     bravais-lattice index     =            2
     lattice parameter (alat)  =       6.8300  a.u.
     unit-cell volume          =      79.6530 (a.u.)^3
     number of atoms/cell      =            1
     number of atomic types    =            1
     number of electrons       =        11.00
     number of Kohn-Sham states=           10
     kinetic-energy cutoff     =      75.0000  Ry
     charge density cutoff     =     300.0000  Ry
     convergence threshold     =      1.0E-08
     mixing beta               =       0.7000
     number of iterations used =            8  plain     mixing
     Exchange-correlation      = SLA PW PSX PSC ( 1  4 10  8 0 0)

     celldm(1)=   6.830000  celldm(2)=   0.000000  celldm(3)=   0.000000
     celldm(4)=   0.000000  celldm(5)=   0.000000  celldm(6)=   0.000000

     crystal axes: (cart. coord. in units of alat)
               a(1) = (  -0.500000   0.000000   0.500000 )  
               a(2) = (   0.000000   0.500000   0.500000 )  
               a(3) = (  -0.500000   0.500000   0.000000 )  

     reciprocal axes: (cart. coord. in units 2 pi/alat)
               b(1) = ( -1.000000 -1.000000  1.000000 )  
               b(2) = (  1.000000  1.000000  1.000000 )  
               b(3) = ( -1.000000  1.000000 -1.000000 )  


     PseudoPot. # 1 for Cu read from file:
     /home/lorenzo/pseudos/Cu/Cu.pbesol-dn-kjpaw_psl.1.0.0.UPF
     MD5 check sum: 1e9735a74797514c934643dbd229f231
     Pseudo is Projector augmented-wave + core cor, Zval = 11.0
     Generated using "atomic" code by A. Dal Corso v.6.3
     Shape of augmentation charge: PSQ
     Using radial grid of 1199 points,  6 beta functions with: 
                l(1) =   0
                l(2) =   0
                l(3) =   1
                l(4) =   1
                l(5) =   2
                l(6) =   2
     Q(r) pseudized with 0 coefficients 


     atomic species   valence    mass     pseudopotential
        Cu            11.00    63.54600     Cu( 1.00)

     48 Sym. Ops., with inversion, found



   Cartesian axes

     site n.     atom                  positions (alat units)
         1           Cu  tau(   1) = (   0.0000000   0.0000000   0.0000000  )

     number of k points=    29  gaussian smearing, width (Ry)=  0.0100
                       cart. coord. in units 2pi/alat
        k(    1) = (   0.0000000   0.0000000   0.0000000), wk =   0.0039062
        k(    2) = (  -0.1250000   0.1250000  -0.1250000), wk =   0.0312500
        k(    3) = (  -0.2500000   0.2500000  -0.2500000), wk =   0.0312500
        k(    4) = (  -0.3750000   0.3750000  -0.3750000), wk =   0.0312500
        k(    5) = (   0.5000000  -0.5000000   0.5000000), wk =   0.0156250
        k(    6) = (   0.0000000   0.2500000   0.0000000), wk =   0.0234375
        k(    7) = (  -0.1250000   0.3750000  -0.1250000), wk =   0.0937500
        k(    8) = (  -0.2500000   0.5000000  -0.2500000), wk =   0.0937500
        k(    9) = (   0.6250000  -0.3750000   0.6250000), wk =   0.0937500
        k(   10) = (   0.5000000  -0.2500000   0.5000000), wk =   0.0937500
        k(   11) = (   0.3750000  -0.1250000   0.3750000), wk =   0.0937500
        k(   12) = (   0.2500000   0.0000000   0.2500000), wk =   0.0468750
        k(   13) = (   0.0000000   0.5000000   0.0000000), wk =   0.0234375
        k(   14) = (  -0.1250000   0.6250000  -0.1250000), wk =   0.0937500
        k(   15) = (   0.7500000  -0.2500000   0.7500000), wk =   0.0937500
        k(   16) = (   0.6250000  -0.1250000   0.6250000), wk =   0.0937500
        k(   17) = (   0.5000000   0.0000000   0.5000000), wk =   0.0468750
        k(   18) = (   0.0000000   0.7500000   0.0000000), wk =   0.0234375
        k(   19) = (   0.8750000  -0.1250000   0.8750000), wk =   0.0937500
        k(   20) = (   0.7500000   0.0000000   0.7500000), wk =   0.0468750
        k(   21) = (   0.0000000  -1.0000000   0.0000000), wk =   0.0117188
        k(   22) = (  -0.2500000   0.5000000   0.0000000), wk =   0.0937500
        k(   23) = (   0.6250000  -0.3750000   0.8750000), wk =   0.1875000
        k(   24) = (   0.5000000  -0.2500000   0.7500000), wk =   0.0937500
        k(   25) = (   0.7500000  -0.2500000   1.0000000), wk =   0.0937500
        k(   26) = (   0.6250000  -0.1250000   0.8750000), wk =   0.1875000
        k(   27) = (   0.5000000   0.0000000   0.7500000), wk =   0.0937500
        k(   28) = (  -0.2500000  -1.0000000   0.0000000), wk =   0.0468750
        k(   29) = (  -0.5000000  -1.0000000   0.0000000), wk =   0.0234375

     Dense  grid:     6879 G-vectors     FFT dimensions: (  27,  27,  27)

     Estimated max dynamical RAM per process >       7.45 MB

     Estimated total dynamical RAM >      37.24 MB

     Initial potential from superposition of free atoms

     starting charge   10.99979, renormalised to   11.00000
     Starting wfcs are    9 randomized atomic wfcs +    1 random wfcs
     Checking if some PAW data can be deallocated... 

     total cpu time spent up to now is        1.2 secs

     Self-consistent Calculation

     iteration #  1     ecut=    75.00 Ry     beta= 0.70
     Davidson diagonalization with overlap
     ethr =  1.00E-02,  avg # of iterations =  3.6

     Threshold (ethr) on eigenvalues was too large:
     Diagonalizing with lowered threshold

     Davidson diagonalization with overlap
     ethr =  6.91E-04,  avg # of iterations =  1.0

     total cpu time spent up to now is        1.9 secs

     total energy              =    -210.37275859 Ry
     Harris-Foulkes estimate   =    -210.43330049 Ry
     estimated scf accuracy    <       0.07568931 Ry

     iteration #  2     ecut=    75.00 Ry     beta= 0.70
     Davidson diagonalization with overlap
     ethr =  6.88E-04,  avg # of iterations =  2.0

     total cpu time spent up to now is        2.2 secs

     total energy              =    -210.37494714 Ry
     Harris-Foulkes estimate   =    -210.48310055 Ry
     estimated scf accuracy    <       0.28281566 Ry

     iteration #  3     ecut=    75.00 Ry     beta= 0.70
     Davidson diagonalization with overlap
     ethr =  6.88E-04,  avg # of iterations =  2.1

     total cpu time spent up to now is        2.6 secs

     total energy              =    -210.41854781 Ry
     Harris-Foulkes estimate   =    -210.41865514 Ry
     estimated scf accuracy    <       0.00022017 Ry

     iteration #  4     ecut=    75.00 Ry     beta= 0.70
     Davidson diagonalization with overlap
     ethr =  2.00E-06,  avg # of iterations =  2.6

     total cpu time spent up to now is        3.0 secs

     total energy              =    -210.41863118 Ry
     Harris-Foulkes estimate   =    -210.41864260 Ry
     estimated scf accuracy    <       0.00003035 Ry

     iteration #  5     ecut=    75.00 Ry     beta= 0.70
     Davidson diagonalization with overlap
     ethr =  2.76E-07,  avg # of iterations =  1.1

     total cpu time spent up to now is        3.4 secs

     total energy              =    -210.41863675 Ry
     Harris-Foulkes estimate   =    -210.41863695 Ry
     estimated scf accuracy    <       0.00000051 Ry

     iteration #  6     ecut=    75.00 Ry     beta= 0.70
     Davidson diagonalization with overlap
     ethr =  4.68E-09,  avg # of iterations =  2.3

     total cpu time spent up to now is        3.7 secs

     End of self-consistent calculation

          k = 0.0000 0.0000 0.0000 (   893 PWs)   bands (ev):

     3.0436   9.4815   9.4815   9.4815  10.3239  10.3239  35.3782  37.7519
    37.7519  37.7519

          k =-0.1250 0.1250-0.1250 (   893 PWs)   bands (ev):

     3.6066   9.3694   9.5766   9.5766  10.2944  10.2944  31.2977  35.9108
    36.4780  36.4780

          k =-0.2500 0.2500-0.2500 (   881 PWs)   bands (ev):

     5.1679   9.2171   9.6417   9.6417  10.4064  10.4064  24.8947  35.1629
    35.2330  35.2330

          k =-0.3750 0.3750-0.3750 (   869 PWs)   bands (ev):

     6.9067   9.5210   9.5210   9.8461  10.7333  10.7333  19.3409  34.2024
    34.6337  34.6337

          k = 0.5000-0.5000 0.5000 (   862 PWs)   bands (ev):

     7.3795   9.4509   9.4509  10.8980  10.8980  11.4039  16.2222  33.7866
    34.5073  34.5073

          k = 0.0000 0.2500 0.0000 (   889 PWs)   bands (ev):

     3.7923   9.2639   9.6613   9.6613  10.1319  10.4043  33.4846  33.6994
    33.6994  35.5365

          k =-0.1250 0.3750-0.1250 (   873 PWs)   bands (ev):

     5.0226   9.0463   9.6969   9.8099  10.1977  10.5264  27.3448  31.9016
    33.2946  35.7164

          k =-0.2500 0.5000-0.2500 (   876 PWs)   bands (ev):

     6.8083   9.0725   9.4566   9.7519  10.7927  10.9347  21.4298  31.1867
    31.9145  33.5577

          k = 0.6250-0.3750 0.6250 (   869 PWs)   bands (ev):

     7.6399   9.2468   9.6408   9.8069  10.9094  12.5901  16.8982  29.9304
    31.6935  33.2917

          k = 0.5000-0.2500 0.5000 (   873 PWs)   bands (ev):

     7.5289   9.3198   9.6405   9.6559  10.6888  12.0496  18.1501  28.7723
    33.4934  34.1395

          k = 0.3750-0.1250 0.3750 (   877 PWs)   bands (ev):

     6.2382   9.0769   9.5285   9.7702  10.2624  10.9799  23.3176  28.6888
    36.0570  36.4819

          k = 0.2500 0.0000 0.2500 (   887 PWs)   bands (ev):

     4.5094   9.1889   9.6575   9.7364  10.1140  10.4947  29.2073  29.9203
    38.0793  39.0897

          k = 0.0000 0.5000 0.0000 (   881 PWs)   bands (ev):

     5.8126   8.7531   9.8485  10.1523  10.1523  10.6003  29.5286  29.5286
    30.8376  31.4864

          k =-0.1250 0.6250-0.1250 (   868 PWs)   bands (ev):

     7.1381   8.5574   9.6615  10.2490  10.8202  11.0748  24.3795  27.6007
    28.3381  32.0002

          k = 0.7500-0.2500 0.7500 (   866 PWs)   bands (ev):

     8.0359   8.6223   9.4906  10.1331  10.9388  13.4077  19.1551  25.0173
    28.5301  32.0976

          k = 0.6250-0.1250 0.6250 (   870 PWs)   bands (ev):

     8.2846   8.8103   9.3177  10.0355  10.7085  14.5922  17.7025  23.4248
    30.1270  32.7634

          k = 0.5000 0.0000 0.5000 (   883 PWs)   bands (ev):

     7.7322   8.9637   9.1792   9.9926  10.3171  12.1923  22.1529  23.3564
    32.9044  34.2293

          k = 0.0000 0.7500 0.0000 (   870 PWs)   bands (ev):

     7.4585   8.2623  10.7500  10.7500  10.7996  11.2182  23.8670  26.6068
    26.6068  30.3833

          k = 0.8750-0.1250 0.8750 (   873 PWs)   bands (ev):

     7.7675   8.2146  10.3866  10.6771  10.9801  13.7549  21.1962  22.6823
    26.3288  31.2139

          k = 0.7500 0.0000 0.7500 (   874 PWs)   bands (ev):

     8.1859   8.4167   9.7318  10.4585  10.8418  16.7700  18.1797  20.2884
    27.5935  31.7735

          k = 0.0000-1.0000 0.0000 (   846 PWs)   bands (ev):

     7.5961   8.0647  10.8831  11.0407  11.0407  13.9041  19.5746  25.5223
    25.5223  30.0415

          k =-0.2500 0.5000 0.0000 (   866 PWs)   bands (ev):

     6.4062   8.8316   9.4754  10.1618  10.2048  11.0100  25.7590  26.4371
    31.7302  36.3347

          k = 0.6250-0.3750 0.8750 (   873 PWs)   bands (ev):

     7.8237   8.8782   9.2015  10.0399  10.6618  12.3422  20.4445  25.9103
    28.8276  36.3992

          k = 0.5000-0.2500 0.7500 (   870 PWs)   bands (ev):

     8.1587   8.8757   9.3989   9.9377  10.8408  14.5619  16.7106  26.6470
    27.0061  36.1219

          k = 0.7500-0.2500 1.0000 (   863 PWs)   bands (ev):

     7.8655   8.4424   9.6273  10.5985  10.7466  12.6992  23.3613  24.0967
    24.5194  34.6374

          k = 0.6250-0.1250 0.8750 (   873 PWs)   bands (ev):

     8.3016   8.5666   9.3670  10.3479  10.9203  15.7867  18.8222  22.2179
    24.4496  35.7634

          k = 0.5000 0.0000 0.7500 (   872 PWs)   bands (ev):

     8.5354   8.7417   8.9801  10.2342  10.7509  14.9033  19.6221  21.5828
    26.1699  36.9204

          k =-0.2500-1.0000 0.0000 (   876 PWs)   bands (ev):

     7.9218   8.2814  10.0910  10.6318  11.0411  15.5277  19.8655  22.4533
    23.3601  34.0792

          k =-0.5000-1.0000 0.0000 (   876 PWs)   bands (ev):

     8.3469   8.9570   8.9570  10.2796  11.0415  18.6426  18.6426  20.7732
    21.2309  40.8384

     the Fermi energy is    12.4334 ev

!    total energy              =    -210.41863689 Ry
     Harris-Foulkes estimate   =    -210.41863689 Ry
     estimated scf accuracy    <          2.7E-10 Ry

     total all-electron energy =     -3307.297698 Ry

     The total energy is the sum of the following terms:

     one-electron contribution =     -28.01554726 Ry
     hartree contribution      =      30.53655605 Ry
     xc contribution           =     -44.11340041 Ry
     ewald contribution        =     -81.22522855 Ry
     one-center paw contrib.   =     -87.60059734 Ry
     smearing contrib. (-TS)   =      -0.00041938 Ry

     convergence has been achieved in   6 iterations

     Forces acting on atoms (cartesian axes, Ry/au):

     atom    1 type  1   force =     0.00000000    0.00000000    0.00000000

     Total force =     0.000000     Total SCF correction =     0.000000


     Computing stress (Cartesian axis) and pressure

          total   stress  (Ry/bohr**3)                   (kbar)     P=  -57.13
  -0.00038835  -0.00000000  -0.00000000        -57.13     -0.00     -0.00
  -0.00000000  -0.00038835  -0.00000000         -0.00    -57.13     -0.00
  -0.00000000  -0.00000000  -0.00038835         -0.00     -0.00    -57.13


     Writing output data file Cu.save/

     init_run     :      0.38s CPU      0.41s WALL (       1 calls)
     electrons    :      2.36s CPU      2.53s WALL (       1 calls)
     forces       :      0.04s CPU      0.04s WALL (       1 calls)
     stress       :      0.11s CPU      0.12s WALL (       1 calls)

     Called by init_run:
     wfcinit      :      0.08s CPU      0.08s WALL (       1 calls)
     potinit      :      0.11s CPU      0.13s WALL (       1 calls)
     hinit0       :      0.17s CPU      0.17s WALL (       1 calls)

     Called by electrons:
     c_bands      :      1.43s CPU      1.51s WALL (       7 calls)
     sum_band     :      0.32s CPU      0.33s WALL (       7 calls)
     v_of_rho     :      0.03s CPU      0.03s WALL (       7 calls)
     newd         :      0.05s CPU      0.06s WALL (       7 calls)
     PAW_pot      :      0.64s CPU      0.73s WALL (       7 calls)
     mix_rho      :      0.00s CPU      0.00s WALL (       7 calls)

     Called by c_bands:
     init_us_2    :      0.05s CPU      0.05s WALL (     493 calls)
     cegterg      :      1.36s CPU      1.44s WALL (     203 calls)

     Called by sum_band:
     sum_band:bec :      0.00s CPU      0.00s WALL (     203 calls)
     addusdens    :      0.04s CPU      0.04s WALL (       7 calls)

     Called by *egterg:
     h_psi        :      1.12s CPU      1.18s WALL (     659 calls)
     s_psi        :      0.04s CPU      0.04s WALL (     659 calls)
     g_psi        :      0.00s CPU      0.00s WALL (     427 calls)
     cdiaghg      :      0.12s CPU      0.12s WALL (     601 calls)

     Called by h_psi:
     h_psi:pot    :      1.11s CPU      1.18s WALL (     659 calls)
     h_psi:calbec :      0.05s CPU      0.05s WALL (     659 calls)
     vloc_psi     :      1.02s CPU      1.08s WALL (     659 calls)
     add_vuspsi   :      0.04s CPU      0.04s WALL (     659 calls)

     General routines
     calbec       :      0.08s CPU      0.08s WALL (    1007 calls)
     fft          :      0.02s CPU      0.02s WALL (     104 calls)
     ffts         :      0.00s CPU      0.00s WALL (       7 calls)
     fftw         :      1.16s CPU      1.22s WALL (   12350 calls)

     Parallel routines
     fft_scatt_xy :      0.11s CPU      0.11s WALL (   12461 calls)
     fft_scatt_yz :      0.25s CPU      0.26s WALL (   12461 calls)

     PWSCF        :     3.71s CPU         3.97s WALL


   This run was terminated on:  23:37: 0  25Mar2024            

=------------------------------------------------------------------------------=
   JOB DONE.
=------------------------------------------------------------------------------=
