
     Program PWSCF v.6.3MaX starts on 25Mar2024 at 23:11:29 

     This program is part of the open-source Quantum ESPRESSO suite
     for quantum simulation of materials; please cite
         "P. Giannozzi et al., J. Phys.:Condens. Matter 21 395502 (2009);
         "P. Giannozzi et al., J. Phys.:Condens. Matter 29 465901 (2017);
          URL http://www.quantum-espresso.org", 
     in publications or presentations arising from this work. More details at
     http://www.quantum-espresso.org/quote

     Parallel version (MPI), running on     5 processors

     MPI processes distributed on     1 nodes
     R & G space division:  proc/nbgrp/npool/nimage =       5
     Waiting for input...
     Reading input from standard input

     Current dimensions of program PWSCF are:
     Max number of different atomic species (ntypx) = 10
     Max number of k-points (npk) =  40000
     Max angular momentum in pseudopotentials (lmaxx) =  3
               file Cu.pbesol-dn-rrkjus_psl.1.0.0.UPF: wavefunction(s)  3D renormalized

     Subspace diagonalization in iterative solution of the eigenvalue problem:
     a serial algorithm will be used


     Parallelization info
     --------------------
     sticks:   dense  smooth     PW     G-vecs:    dense   smooth      PW
     Min          18      18      7                  121      121      33
     Max          19      19      8                  123      123      35
     Sum          91      91     37                  609      609     169



     bravais-lattice index     =            2
     lattice parameter (alat)  =       6.8300  a.u.
     unit-cell volume          =      79.6530 (a.u.)^3
     number of atoms/cell      =            1
     number of atomic types    =            1
     number of electrons       =        11.00
     number of Kohn-Sham states=           10
     kinetic-energy cutoff     =      15.0000  Ry
     charge density cutoff     =      60.0000  Ry
     convergence threshold     =      1.0E-08
     mixing beta               =       0.7000
     number of iterations used =            8  plain     mixing
     Exchange-correlation      = PBESOL ( 1  4 10  8 0 0)

     celldm(1)=   6.830000  celldm(2)=   0.000000  celldm(3)=   0.000000
     celldm(4)=   0.000000  celldm(5)=   0.000000  celldm(6)=   0.000000

     crystal axes: (cart. coord. in units of alat)
               a(1) = (  -0.500000   0.000000   0.500000 )  
               a(2) = (   0.000000   0.500000   0.500000 )  
               a(3) = (  -0.500000   0.500000   0.000000 )  

     reciprocal axes: (cart. coord. in units 2 pi/alat)
               b(1) = ( -1.000000 -1.000000  1.000000 )  
               b(2) = (  1.000000  1.000000  1.000000 )  
               b(3) = ( -1.000000  1.000000 -1.000000 )  


     PseudoPot. # 1 for Cu read from file:
     /home/lorenzo/pseudos/Cu/Cu.pbesol-dn-rrkjus_psl.1.0.0.UPF
     MD5 check sum: bfa4c7aafbc42e028d5f4ccf7ceed93d
     Pseudo is Ultrasoft + core correction, Zval = 11.0
     Generated using "atomic" code by A. Dal Corso v.6.3
     Using radial grid of 1199 points,  6 beta functions with: 
                l(1) =   0
                l(2) =   0
                l(3) =   1
                l(4) =   1
                l(5) =   2
                l(6) =   2
     Q(r) pseudized with 0 coefficients 


     atomic species   valence    mass     pseudopotential
        Cu            11.00    63.54600     Cu( 1.00)

     48 Sym. Ops., with inversion, found



   Cartesian axes

     site n.     atom                  positions (alat units)
         1           Cu  tau(   1) = (   0.0000000   0.0000000   0.0000000  )

     number of k points=    16  gaussian smearing, width (Ry)=  0.0100
                       cart. coord. in units 2pi/alat
        k(    1) = (   0.0000000   0.0000000   0.0000000), wk =   0.0092593
        k(    2) = (  -0.1666667   0.1666667  -0.1666667), wk =   0.0740741
        k(    3) = (  -0.3333333   0.3333333  -0.3333333), wk =   0.0740741
        k(    4) = (   0.5000000  -0.5000000   0.5000000), wk =   0.0370370
        k(    5) = (   0.0000000   0.3333333   0.0000000), wk =   0.0555556
        k(    6) = (  -0.1666667   0.5000000  -0.1666667), wk =   0.2222222
        k(    7) = (   0.6666667  -0.3333333   0.6666667), wk =   0.2222222
        k(    8) = (   0.5000000  -0.1666667   0.5000000), wk =   0.2222222
        k(    9) = (   0.3333333   0.0000000   0.3333333), wk =   0.1111111
        k(   10) = (   0.0000000   0.6666667   0.0000000), wk =   0.0555556
        k(   11) = (   0.8333333  -0.1666667   0.8333333), wk =   0.2222222
        k(   12) = (   0.6666667  -0.0000000   0.6666667), wk =   0.1111111
        k(   13) = (   0.0000000  -1.0000000   0.0000000), wk =   0.0277778
        k(   14) = (   0.6666667  -0.3333333   1.0000000), wk =   0.2222222
        k(   15) = (   0.5000000  -0.1666667   0.8333333), wk =   0.2222222
        k(   16) = (  -0.3333333  -1.0000000   0.0000000), wk =   0.1111111

     Dense  grid:      609 G-vectors     FFT dimensions: (  12,  12,  12)

     Estimated max dynamical RAM per process >       1.18 MB

     Estimated total dynamical RAM >       5.89 MB

     Check: negative/imaginary core charge=   -0.001129    0.000000

     Initial potential from superposition of free atoms

     starting charge   10.99979, renormalised to   11.00000
     Starting wfcs are    9 randomized atomic wfcs +    1 random wfcs

     total cpu time spent up to now is        0.8 secs

     Self-consistent Calculation

     iteration #  1     ecut=    15.00 Ry     beta= 0.70
     Davidson diagonalization with overlap
     ethr =  1.00E-02,  avg # of iterations =  3.9

     total cpu time spent up to now is        0.9 secs

     total energy              =    -117.34884103 Ry
     Harris-Foulkes estimate   =    -120.37683554 Ry
     estimated scf accuracy    <       3.67796488 Ry

     iteration #  2     ecut=    15.00 Ry     beta= 0.70
     Davidson diagonalization with overlap
     ethr =  1.00E-02,  avg # of iterations =  2.3

     total cpu time spent up to now is        0.9 secs

     total energy              =    -119.09070162 Ry
     Harris-Foulkes estimate   =    -119.95539198 Ry
     estimated scf accuracy    <       1.50475410 Ry

     iteration #  3     ecut=    15.00 Ry     beta= 0.70
     Davidson diagonalization with overlap
     ethr =  1.00E-02,  avg # of iterations =  1.7

     total cpu time spent up to now is        1.0 secs

     total energy              =    -119.16228856 Ry
     Harris-Foulkes estimate   =    -119.24503980 Ry
     estimated scf accuracy    <       0.11947616 Ry

     iteration #  4     ecut=    15.00 Ry     beta= 0.70
     Davidson diagonalization with overlap
     ethr =  1.09E-03,  avg # of iterations =  2.3

     total cpu time spent up to now is        1.0 secs

     total energy              =    -119.18224939 Ry
     Harris-Foulkes estimate   =    -119.24566939 Ry
     estimated scf accuracy    <       0.12025598 Ry

     iteration #  5     ecut=    15.00 Ry     beta= 0.70
     Davidson diagonalization with overlap
     ethr =  1.09E-03,  avg # of iterations =  1.7

     total cpu time spent up to now is        1.1 secs

     total energy              =    -119.20589681 Ry
     Harris-Foulkes estimate   =    -119.20576107 Ry
     estimated scf accuracy    <       0.00007290 Ry

     iteration #  6     ecut=    15.00 Ry     beta= 0.70
     Davidson diagonalization with overlap
     ethr =  6.63E-07,  avg # of iterations =  3.1

     total cpu time spent up to now is        1.1 secs

     total energy              =    -119.20580724 Ry
     Harris-Foulkes estimate   =    -119.20607804 Ry
     estimated scf accuracy    <       0.00045274 Ry

     iteration #  7     ecut=    15.00 Ry     beta= 0.70
     Davidson diagonalization with overlap
     ethr =  6.63E-07,  avg # of iterations =  2.1

     total cpu time spent up to now is        1.2 secs

     total energy              =    -119.20590628 Ry
     Harris-Foulkes estimate   =    -119.20590677 Ry
     estimated scf accuracy    <       0.00000065 Ry

     iteration #  8     ecut=    15.00 Ry     beta= 0.70
     Davidson diagonalization with overlap
     ethr =  5.94E-09,  avg # of iterations =  2.0

     total cpu time spent up to now is        1.2 secs

     total energy              =    -119.20590650 Ry
     Harris-Foulkes estimate   =    -119.20590656 Ry
     estimated scf accuracy    <       0.00000010 Ry

     iteration #  9     ecut=    15.00 Ry     beta= 0.70
     Davidson diagonalization with overlap
     ethr =  9.49E-10,  avg # of iterations =  1.4

     total cpu time spent up to now is        1.2 secs

     End of self-consistent calculation

          k = 0.0000 0.0000 0.0000 (    65 PWs)   bands (ev):

     3.2541   7.8544   7.8544   8.9406   8.9406   8.9406  36.8037  36.8037
    36.8037  36.8136

          k =-0.1667 0.1667-0.1667 (    71 PWs)   bands (ev):

     4.1890   7.1211   7.1211   7.2121   8.2241   8.2241  30.0374  36.1299
    36.1299  37.1948

          k =-0.3333 0.3333-0.3333 (    74 PWs)   bands (ev):

     5.4256   6.1459   6.1459   7.9705   7.9705   8.3219  21.3549  34.3013
    34.3013  35.8913

          k = 0.5000-0.5000 0.5000 (    76 PWs)   bands (ev):

     5.1189   5.7675   5.7675   7.7955   7.7955  11.7044  15.6647  33.3808
    33.3808  34.9712

          k = 0.0000 0.3333 0.0000 (    76 PWs)   bands (ev):

     4.4626   5.8798   5.8798   6.8854   6.8927   7.9532  32.2988  32.2988
    34.6218  36.5310

          k =-0.1667 0.5000-0.1667 (    79 PWs)   bands (ev):

     5.1227   5.5477   5.6036   6.1134   7.3501   8.0547  24.5079  30.2040
    32.2403  34.9465

          k = 0.6667-0.3333 0.6667 (    78 PWs)   bands (ev):

     5.2880   5.8118   6.2480   6.5851   6.9460  12.1534  17.3066  28.6607
    30.4478  34.5171

          k = 0.5000-0.1667 0.5000 (    78 PWs)   bands (ev):

     5.3408   5.7965   6.1252   6.4755   7.0945  10.7340  19.4257  27.0447
    33.0582  35.4699

          k = 0.3333 0.0000 0.3333 (    75 PWs)   bands (ev):

     5.2684   5.6148   6.3655   7.4007   7.7397   8.0416  27.4802  27.6131
    37.1609  38.2459

          k = 0.0000 0.6667 0.0000 (    76 PWs)   bands (ev):

     5.3746   6.3522   6.3522   7.2435   7.2596   9.4550  26.5740  27.2040
    27.2040  33.4697

          k = 0.8333-0.1667 0.8333 (    78 PWs)   bands (ev):

     5.1687   5.6642   6.4997   6.7879   7.2302  13.0728  21.4073  22.6549
    26.7077  34.3261

          k = 0.6667-0.0000 0.6667 (    81 PWs)   bands (ev):

     5.1868   5.4924   5.7263   5.7450   6.7542  15.2164  18.2581  20.8810
    28.8791  34.7470

          k = 0.0000-1.0000 0.0000 (    80 PWs)   bands (ev):

     5.0367   5.7018   5.7018   6.5766   6.6029  14.0810  20.2338  25.1851
    25.1851  33.9217

          k = 0.6667-0.3333 1.0000 (    78 PWs)   bands (ev):

     5.4584   5.6645   5.9580   7.0013   7.0913  11.0839  23.3132  23.4261
    27.7560  38.2111

          k = 0.5000-0.1667 0.8333 (    82 PWs)   bands (ev):

     5.1096   5.2940   5.5677   5.8520   6.3807  15.6936  16.7847  23.8315
    25.1870  38.0621

          k =-0.3333-1.0000 0.0000 (    80 PWs)   bands (ev):

     4.6576   6.2166   6.2904   6.3615   6.4414  16.4073  19.7181  21.6267
    22.2350  38.5737

     the Fermi energy is    11.1620 ev

!    total energy              =    -119.20590651 Ry
     Harris-Foulkes estimate   =    -119.20590652 Ry
     estimated scf accuracy    <          5.6E-09 Ry

     The total energy is the sum of the following terms:

     one-electron contribution =     -20.40552237 Ry
     hartree contribution      =      24.80742022 Ry
     xc contribution           =     -42.38212174 Ry
     ewald contribution        =     -81.22523186 Ry
     smearing contrib. (-TS)   =      -0.00045077 Ry

     convergence has been achieved in   9 iterations

     Forces acting on atoms (cartesian axes, Ry/au):

     atom    1 type  1   force =     0.00000000    0.00000000    0.00000000

     Total force =     0.000000     Total SCF correction =     0.000000


     Computing stress (Cartesian axis) and pressure

          total   stress  (Ry/bohr**3)                   (kbar)     P=********
  -0.12095173  -0.00000000  -0.00000000     -17792.61     -0.00     -0.00
  -0.00000000  -0.12095173   0.00000000         -0.00 -17792.61      0.00
  -0.00000000   0.00000000  -0.12095173         -0.00      0.00 -17792.61


     Writing output data file Cu.save/

     init_run     :      0.07s CPU      0.08s WALL (       1 calls)
     electrons    :      0.36s CPU      0.43s WALL (       1 calls)
     forces       :      0.01s CPU      0.01s WALL (       1 calls)
     stress       :      0.02s CPU      0.02s WALL (       1 calls)

     Called by init_run:
     wfcinit      :      0.01s CPU      0.01s WALL (       1 calls)
     potinit      :      0.00s CPU      0.00s WALL (       1 calls)
     hinit0       :      0.06s CPU      0.06s WALL (       1 calls)

     Called by electrons:
     c_bands      :      0.31s CPU      0.35s WALL (       9 calls)
     sum_band     :      0.04s CPU      0.06s WALL (       9 calls)
     v_of_rho     :      0.01s CPU      0.01s WALL (      10 calls)
     newd         :      0.01s CPU      0.01s WALL (      10 calls)
     mix_rho      :      0.00s CPU      0.00s WALL (       9 calls)

     Called by c_bands:
     init_us_2    :      0.01s CPU      0.01s WALL (     336 calls)
     cegterg      :      0.30s CPU      0.34s WALL (     144 calls)

     Called by sum_band:
     sum_band:bec :      0.00s CPU      0.00s WALL (     144 calls)
     addusdens    :      0.00s CPU      0.01s WALL (       9 calls)

     Called by *egterg:
     h_psi        :      0.17s CPU      0.19s WALL (     487 calls)
     s_psi        :      0.01s CPU      0.01s WALL (     487 calls)
     g_psi        :      0.00s CPU      0.00s WALL (     327 calls)
     cdiaghg      :      0.09s CPU      0.10s WALL (     471 calls)

     Called by h_psi:
     h_psi:pot    :      0.17s CPU      0.19s WALL (     487 calls)
     h_psi:calbec :      0.01s CPU      0.01s WALL (     487 calls)
     vloc_psi     :      0.15s CPU      0.17s WALL (     487 calls)
     add_vuspsi   :      0.01s CPU      0.01s WALL (     487 calls)

     General routines
     calbec       :      0.02s CPU      0.02s WALL (     711 calls)
     fft          :      0.01s CPU      0.01s WALL (     136 calls)
     ffts         :      0.00s CPU      0.00s WALL (       9 calls)
     fftw         :      0.16s CPU      0.19s WALL (    9130 calls)

     Parallel routines
     fft_scatt_xy :      0.02s CPU      0.02s WALL (    9275 calls)
     fft_scatt_yz :      0.07s CPU      0.09s WALL (    9275 calls)

     PWSCF        :     1.21s CPU         1.33s WALL


   This run was terminated on:  23:11:30  25Mar2024            

=------------------------------------------------------------------------------=
   JOB DONE.
=------------------------------------------------------------------------------=
