
     Program PWSCF v.6.3MaX starts on 25Mar2024 at 23:34:49 

     This program is part of the open-source Quantum ESPRESSO suite
     for quantum simulation of materials; please cite
         "P. Giannozzi et al., J. Phys.:Condens. Matter 21 395502 (2009);
         "P. Giannozzi et al., J. Phys.:Condens. Matter 29 465901 (2017);
          URL http://www.quantum-espresso.org", 
     in publications or presentations arising from this work. More details at
     http://www.quantum-espresso.org/quote

     Parallel version (MPI), running on     5 processors

     MPI processes distributed on     1 nodes
     R & G space division:  proc/nbgrp/npool/nimage =       5
     Waiting for input...
     Reading input from standard input

     Current dimensions of program PWSCF are:
     Max number of different atomic species (ntypx) = 10
     Max number of k-points (npk) =  40000
     Max angular momentum in pseudopotentials (lmaxx) =  3
               file Cu.pbe-dn-rrkjus_psl.1.0.0.UPF: wavefunction(s)  3D renormalized

     Subspace diagonalization in iterative solution of the eigenvalue problem:
     a serial algorithm will be used


     Parallelization info
     --------------------
     sticks:   dense  smooth     PW     G-vecs:    dense   smooth      PW
     Min          95      95     30                 1375     1375     248
     Max          95      95     31                 1376     1376     251
     Sum         475     475    151                 6879     6879    1243



     bravais-lattice index     =            2
     lattice parameter (alat)  =       6.8300  a.u.
     unit-cell volume          =      79.6530 (a.u.)^3
     number of atoms/cell      =            1
     number of atomic types    =            1
     number of electrons       =        11.00
     number of Kohn-Sham states=           10
     kinetic-energy cutoff     =      75.0000  Ry
     charge density cutoff     =     300.0000  Ry
     convergence threshold     =      1.0E-08
     mixing beta               =       0.7000
     number of iterations used =            8  plain     mixing
     Exchange-correlation      = PBE ( 1  4  3  4 0 0)

     celldm(1)=   6.830000  celldm(2)=   0.000000  celldm(3)=   0.000000
     celldm(4)=   0.000000  celldm(5)=   0.000000  celldm(6)=   0.000000

     crystal axes: (cart. coord. in units of alat)
               a(1) = (  -0.500000   0.000000   0.500000 )  
               a(2) = (   0.000000   0.500000   0.500000 )  
               a(3) = (  -0.500000   0.500000   0.000000 )  

     reciprocal axes: (cart. coord. in units 2 pi/alat)
               b(1) = ( -1.000000 -1.000000  1.000000 )  
               b(2) = (  1.000000  1.000000  1.000000 )  
               b(3) = ( -1.000000  1.000000 -1.000000 )  


     PseudoPot. # 1 for Cu read from file:
     /home/lorenzo/pseudos/Cu/Cu.pbe-dn-rrkjus_psl.1.0.0.UPF
     MD5 check sum: ba3d6c84e19846e79d48cdc68ff7152b
     Pseudo is Ultrasoft + core correction, Zval = 11.0
     Generated using "atomic" code by A. Dal Corso v.6.3
     Using radial grid of 1199 points,  6 beta functions with: 
                l(1) =   0
                l(2) =   0
                l(3) =   1
                l(4) =   1
                l(5) =   2
                l(6) =   2
     Q(r) pseudized with 0 coefficients 


     atomic species   valence    mass     pseudopotential
        Cu            11.00    63.54600     Cu( 1.00)

     48 Sym. Ops., with inversion, found



   Cartesian axes

     site n.     atom                  positions (alat units)
         1           Cu  tau(   1) = (   0.0000000   0.0000000   0.0000000  )

     number of k points=    47  gaussian smearing, width (Ry)=  0.0100
                       cart. coord. in units 2pi/alat
        k(    1) = (   0.0000000   0.0000000   0.0000000), wk =   0.0020000
        k(    2) = (  -0.1000000   0.1000000  -0.1000000), wk =   0.0160000
        k(    3) = (  -0.2000000   0.2000000  -0.2000000), wk =   0.0160000
        k(    4) = (  -0.3000000   0.3000000  -0.3000000), wk =   0.0160000
        k(    5) = (  -0.4000000   0.4000000  -0.4000000), wk =   0.0160000
        k(    6) = (   0.5000000  -0.5000000   0.5000000), wk =   0.0080000
        k(    7) = (   0.0000000   0.2000000   0.0000000), wk =   0.0120000
        k(    8) = (  -0.1000000   0.3000000  -0.1000000), wk =   0.0480000
        k(    9) = (  -0.2000000   0.4000000  -0.2000000), wk =   0.0480000
        k(   10) = (  -0.3000000   0.5000000  -0.3000000), wk =   0.0480000
        k(   11) = (   0.6000000  -0.4000000   0.6000000), wk =   0.0480000
        k(   12) = (   0.5000000  -0.3000000   0.5000000), wk =   0.0480000
        k(   13) = (   0.4000000  -0.2000000   0.4000000), wk =   0.0480000
        k(   14) = (   0.3000000  -0.1000000   0.3000000), wk =   0.0480000
        k(   15) = (   0.2000000   0.0000000   0.2000000), wk =   0.0240000
        k(   16) = (   0.0000000   0.4000000   0.0000000), wk =   0.0120000
        k(   17) = (  -0.1000000   0.5000000  -0.1000000), wk =   0.0480000
        k(   18) = (  -0.2000000   0.6000000  -0.2000000), wk =   0.0480000
        k(   19) = (   0.7000000  -0.3000000   0.7000000), wk =   0.0480000
        k(   20) = (   0.6000000  -0.2000000   0.6000000), wk =   0.0480000
        k(   21) = (   0.5000000  -0.1000000   0.5000000), wk =   0.0480000
        k(   22) = (   0.4000000   0.0000000   0.4000000), wk =   0.0240000
        k(   23) = (   0.0000000   0.6000000   0.0000000), wk =   0.0120000
        k(   24) = (  -0.1000000   0.7000000  -0.1000000), wk =   0.0480000
        k(   25) = (   0.8000000  -0.2000000   0.8000000), wk =   0.0480000
        k(   26) = (   0.7000000  -0.1000000   0.7000000), wk =   0.0480000
        k(   27) = (   0.6000000  -0.0000000   0.6000000), wk =   0.0240000
        k(   28) = (   0.0000000   0.8000000   0.0000000), wk =   0.0120000
        k(   29) = (   0.9000000  -0.1000000   0.9000000), wk =   0.0480000
        k(   30) = (   0.8000000   0.0000000   0.8000000), wk =   0.0240000
        k(   31) = (   0.0000000  -1.0000000   0.0000000), wk =   0.0060000
        k(   32) = (  -0.2000000   0.4000000   0.0000000), wk =   0.0480000
        k(   33) = (  -0.3000000   0.5000000  -0.1000000), wk =   0.0960000
        k(   34) = (   0.6000000  -0.4000000   0.8000000), wk =   0.0960000
        k(   35) = (   0.5000000  -0.3000000   0.7000000), wk =   0.0480000
        k(   36) = (  -0.2000000   0.6000000   0.0000000), wk =   0.0480000
        k(   37) = (   0.7000000  -0.3000000   0.9000000), wk =   0.0960000
        k(   38) = (   0.6000000  -0.2000000   0.8000000), wk =   0.0960000
        k(   39) = (   0.5000000  -0.1000000   0.7000000), wk =   0.0960000
        k(   40) = (   0.4000000   0.0000000   0.6000000), wk =   0.0480000
        k(   41) = (   0.8000000  -0.2000000   1.0000000), wk =   0.0480000
        k(   42) = (   0.7000000  -0.1000000   0.9000000), wk =   0.0960000
        k(   43) = (   0.6000000   0.0000000   0.8000000), wk =   0.0480000
        k(   44) = (  -0.2000000  -1.0000000   0.0000000), wk =   0.0240000
        k(   45) = (   0.6000000  -0.2000000   1.0000000), wk =   0.0480000
        k(   46) = (   0.5000000  -0.1000000   0.9000000), wk =   0.0480000
        k(   47) = (  -0.4000000  -1.0000000   0.0000000), wk =   0.0240000

     Dense  grid:     6879 G-vectors     FFT dimensions: (  27,  27,  27)

     Estimated max dynamical RAM per process >       7.93 MB

     Estimated total dynamical RAM >      39.63 MB

     Initial potential from superposition of free atoms

     starting charge   10.99977, renormalised to   11.00000
     Starting wfcs are    9 randomized atomic wfcs +    1 random wfcs

     total cpu time spent up to now is        1.0 secs

     Self-consistent Calculation

     iteration #  1     ecut=    75.00 Ry     beta= 0.70
     Davidson diagonalization with overlap
     ethr =  1.00E-02,  avg # of iterations =  3.6

     Threshold (ethr) on eigenvalues was too large:
     Diagonalizing with lowered threshold

     Davidson diagonalization with overlap
     ethr =  5.76E-04,  avg # of iterations =  1.1

     total cpu time spent up to now is        1.9 secs

     total energy              =    -122.70880036 Ry
     Harris-Foulkes estimate   =    -122.75822714 Ry
     estimated scf accuracy    <       0.06306452 Ry

     iteration #  2     ecut=    75.00 Ry     beta= 0.70
     Davidson diagonalization with overlap
     ethr =  5.73E-04,  avg # of iterations =  2.0

     total cpu time spent up to now is        2.3 secs

     total energy              =    -122.70966846 Ry
     Harris-Foulkes estimate   =    -122.79800142 Ry
     estimated scf accuracy    <       0.23015053 Ry

     iteration #  3     ecut=    75.00 Ry     beta= 0.70
     Davidson diagonalization with overlap
     ethr =  5.73E-04,  avg # of iterations =  2.1

     total cpu time spent up to now is        2.8 secs

     total energy              =    -122.74594112 Ry
     Harris-Foulkes estimate   =    -122.74595371 Ry
     estimated scf accuracy    <       0.00005912 Ry

     iteration #  4     ecut=    75.00 Ry     beta= 0.70
     Davidson diagonalization with overlap
     ethr =  5.37E-07,  avg # of iterations =  2.5

     total cpu time spent up to now is        3.3 secs

     total energy              =    -122.74599018 Ry
     Harris-Foulkes estimate   =    -122.74599409 Ry
     estimated scf accuracy    <       0.00001268 Ry

     iteration #  5     ecut=    75.00 Ry     beta= 0.70
     Davidson diagonalization with overlap
     ethr =  1.15E-07,  avg # of iterations =  1.3

     total cpu time spent up to now is        3.6 secs

     total energy              =    -122.74599266 Ry
     Harris-Foulkes estimate   =    -122.74599290 Ry
     estimated scf accuracy    <       0.00000074 Ry

     iteration #  6     ecut=    75.00 Ry     beta= 0.70
     Davidson diagonalization with overlap
     ethr =  6.72E-09,  avg # of iterations =  1.1

     total cpu time spent up to now is        4.0 secs

     End of self-consistent calculation

          k = 0.0000 0.0000 0.0000 (   893 PWs)   bands (ev):

     3.2750   9.6761   9.6761   9.6761  10.5031  10.5031  35.5974  37.9927
    37.9927  37.9927

          k =-0.1000 0.1000-0.1000 (   887 PWs)   bands (ev):

     3.6372   9.6016   9.7410   9.7410  10.4803  10.4803  32.8278  36.2460
    37.0357  37.0357

          k =-0.2000 0.2000-0.2000 (   887 PWs)   bands (ev):

     4.6784   9.4504   9.8374   9.8374  10.5030  10.5030  27.6176  35.7437
    35.8963  35.8963

          k =-0.3000 0.3000-0.3000 (   875 PWs)   bands (ev):

     6.1715   9.4890   9.7913   9.7913  10.7155  10.7155  22.7598  34.9736
    35.1643  35.1643

          k =-0.4000 0.4000-0.4000 (   869 PWs)   bands (ev):

     7.3222   9.6861   9.6861  10.4112  10.9719  10.9719  18.6237  34.2743
    34.8296  34.8296

          k = 0.5000-0.5000 0.5000 (   862 PWs)   bands (ev):

     7.5911   9.6397   9.6397  11.0804  11.0804  11.6352  16.4326  34.0030
    34.7586  34.7586

          k = 0.0000 0.2000 0.0000 (   889 PWs)   bands (ev):

     3.7572   9.5345   9.7914   9.7914  10.3768  10.5551  34.1959  34.8733
    34.8733  36.3907

          k =-0.1000 0.3000-0.1000 (   889 PWs)   bands (ev):

     4.5714   9.3725   9.8952   9.9162  10.3148  10.6177  29.5808  33.2942
    34.2334  37.4948

          k =-0.2000 0.4000-0.2000 (   876 PWs)   bands (ev):

     5.9352   9.2649   9.7879   9.9342  10.6107  10.7925  24.5665  32.3527
    33.5217  35.7278

          k =-0.3000 0.5000-0.3000 (   872 PWs)   bands (ev):

     7.2796   9.5243   9.6668   9.8421  11.0113  11.2805  20.1190  32.1088
    32.5580  34.0341

          k = 0.6000-0.4000 0.6000 (   865 PWs)   bands (ev):

     7.7620   9.5117   9.7620  10.2219  11.0878  12.5548  16.8581  31.1993
    32.6371  33.7791

          k = 0.5000-0.3000 0.5000 (   872 PWs)   bands (ev):

     7.6922   9.5514   9.7626  10.1217  10.9441  12.1659  17.7127  30.2948
    33.9779  34.3414

          k = 0.4000-0.2000 0.4000 (   879 PWs)   bands (ev):

     6.9095   9.4471   9.6856   9.8519  10.6374  11.2529  21.5281  30.0580
    35.5790  36.0919

          k = 0.3000-0.1000 0.3000 (   883 PWs)   bands (ev):

     5.4410   9.3213   9.8224   9.9497  10.3460  10.8143  26.1954  30.4710
    37.3064  38.7647

          k = 0.2000 0.0000 0.2000 (   891 PWs)   bands (ev):

     4.2270   9.4737   9.8313   9.8423  10.3562  10.5771  31.0260  31.8101
    37.7237  39.3205

          k = 0.0000 0.4000 0.0000 (   869 PWs)   bands (ev):

     5.1280   9.1710  10.1017  10.1194  10.1194  10.6923  31.3195  31.3195
    32.3987  33.4731

          k =-0.1000 0.5000-0.1000 (   864 PWs)   bands (ev):

     6.2355   8.9813   9.8510  10.2464  10.5921  10.8347  26.8673  30.0469
    31.2840  32.9924

          k =-0.2000 0.6000-0.2000 (   876 PWs)   bands (ev):

     7.4942   8.9402   9.6306  10.1960  11.0421  11.5539  22.2329  28.9928
    29.5650  32.7053

          k = 0.7000-0.3000 0.7000 (   868 PWs)   bands (ev):

     8.1445   9.0813   9.6456  10.0978  11.1080  13.3695  18.2823  27.1173
    29.9492  32.7589

          k = 0.6000-0.2000 0.6000 (   857 PWs)   bands (ev):

     8.2511   9.1850   9.6703  10.0430  10.9464  14.1345  17.3035  25.8678
    31.2051  33.3020

          k = 0.5000-0.1000 0.5000 (   876 PWs)   bands (ev):

     7.9048   9.2842   9.4015  10.0696  10.6156  12.3697  20.8538  25.3280
    33.2446  34.4372

          k = 0.4000 0.0000 0.4000 (   871 PWs)   bands (ev):

     6.7083   9.1726   9.6537  10.1610  10.2612  11.3770  25.0069  25.8180
    35.9202  36.1599

          k = 0.0000 0.6000 0.0000 (   866 PWs)   bands (ev):

     6.9260   8.7355  10.2099  10.5881  10.5881  10.8640  28.2194  28.4205
    28.4205  31.1629

          k =-0.1000 0.7000-0.1000 (   873 PWs)   bands (ev):

     7.6625   8.5967  10.1943  10.6452  11.0471  11.6362  24.8069  25.6264
    27.6179  31.7300

          k = 0.8000-0.2000 0.8000 (   873 PWs)   bands (ev):

     8.1760   8.6240   9.9599  10.5480  11.1365  13.7900  20.6796  23.5420
    27.7520  31.9417

          k = 0.7000-0.1000 0.7000 (   879 PWs)   bands (ev):

     8.5228   8.7577   9.6697  10.4321  10.9937  16.4028  17.4577  22.1436
    28.8265  32.3565

          k = 0.6000-0.0000 0.6000 (   871 PWs)   bands (ev):

     8.5898   9.0208   9.3230  10.2959  10.7426  14.2265  20.0170  21.9349
    30.7185  33.1851

          k = 0.0000 0.8000 0.0000 (   882 PWs)   bands (ev):

     7.7431   8.3940  11.0047  11.0351  11.0351  12.0826  22.8378  26.4687
    26.4687  30.4764

          k = 0.9000-0.1000 0.9000 (   873 PWs)   bands (ev):

     7.9067   8.3638  10.7863  10.9342  11.1770  14.0259  20.8629  23.6781
    26.2881  31.2348

          k = 0.8000 0.0000 0.8000 (   870 PWs)   bands (ev):

     8.2004   8.5107  10.2229  10.7651  11.0990  16.1418  19.8868  20.3981
    27.1174  31.7263

          k = 0.0000-1.0000 0.0000 (   846 PWs)   bands (ev):

     7.7945   8.2662  11.0589  11.2268  11.2268  14.1405  19.7829  25.7676
    25.7676  30.2586

          k =-0.2000 0.4000 0.0000 (   877 PWs)   bands (ev):

     5.5538   9.1908   9.8313  10.1306  10.2939  10.8324  28.0802  28.7101
    34.8274  36.3196

          k =-0.3000 0.5000-0.1000 (   871 PWs)   bands (ev):

     6.9296   9.1076   9.6092  10.1313  10.5893  11.3501  23.5075  27.8159
    32.2970  36.4144

          k = 0.6000-0.4000 0.8000 (   877 PWs)   bands (ev):

     7.9221   9.2888   9.5313  10.0262  10.9269  12.4887  19.2817  27.8691
    30.2037  35.8970

          k = 0.5000-0.3000 0.7000 (   868 PWs)   bands (ev):

     8.1253   9.2556   9.7991   9.9651  11.0374  13.9797  16.7226  28.4502
    28.9247  35.6780

          k =-0.2000 0.6000 0.0000 (   872 PWs)   bands (ev):

     7.2635   8.8168   9.7203  10.5870  10.6338  11.3738  25.7101  26.2982
    28.7026  34.5477

          k = 0.7000-0.3000 0.9000 (   875 PWs)   bands (ev):

     8.1315   8.8117   9.5388  10.4739  10.9644  12.7889  21.5575  25.8554
    26.4263  35.1202

          k = 0.6000-0.2000 0.8000 (   870 PWs)   bands (ev):

     8.5189   8.8689   9.5015  10.3262  11.0497  15.1623  17.8631  24.6493
    26.5330  35.4792

          k = 0.5000-0.1000 0.7000 (   871 PWs)   bands (ev):

     8.5815   8.9759   9.3300  10.2928  10.8983  14.4321  18.9457  23.6281
    27.8669  36.3599

          k = 0.4000 0.0000 0.6000 (   878 PWs)   bands (ev):

     8.0484   9.0418   9.3109  10.3475  10.6101  12.4662  22.5803  23.7156
    29.8269  37.7717

          k = 0.8000-0.2000 1.0000 (   866 PWs)   bands (ev):

     7.9928   8.5172  10.2048  10.8860  11.0332  13.1466  23.1695  24.0840
    24.7554  33.4974

          k = 0.7000-0.1000 0.9000 (   874 PWs)   bands (ev):

     8.2917   8.6159   9.9169  10.6802  11.1447  15.5898  20.4514  21.4696
    24.8823  34.5019

          k = 0.6000 0.0000 0.8000 (   875 PWs)   bands (ev):

     8.6209   8.7768   9.5092  10.4831  11.0364  17.0914  18.2116  20.9654
    26.0539  35.2937

          k =-0.2000-1.0000 0.0000 (   874 PWs)   bands (ev):

     8.0109   8.4041  10.5448  10.8941  11.2270  15.2551  19.9661  23.4887
    24.1765  33.1570

          k = 0.6000-0.2000 1.0000 (   878 PWs)   bands (ev):

     8.5311   8.8923   9.3216  10.5431  11.0298  14.8728  20.9344  22.4415
    24.2711  38.5782

          k = 0.5000-0.1000 0.9000 (   870 PWs)   bands (ev):

     8.6300   9.0008   9.2320  10.4463  11.1348  17.4737  18.0884  22.6654
    22.9066  39.1264

          k =-0.4000-1.0000 0.0000 (   880 PWs)   bands (ev):

     8.4478   8.8299   9.5611  10.5396  11.2275  17.5203  20.3303  20.5993
    22.0527  38.1927

     the Fermi energy is    12.5911 ev

!    total energy              =    -122.74599277 Ry
     Harris-Foulkes estimate   =    -122.74599277 Ry
     estimated scf accuracy    <          4.6E-10 Ry

     The total energy is the sum of the following terms:

     one-electron contribution =     -27.50352465 Ry
     hartree contribution      =      30.61034077 Ry
     xc contribution           =     -44.62719985 Ry
     ewald contribution        =     -81.22522855 Ry
     smearing contrib. (-TS)   =      -0.00038049 Ry

     convergence has been achieved in   6 iterations

     Forces acting on atoms (cartesian axes, Ry/au):

     atom    1 type  1   force =     0.00000000    0.00000000    0.00000000

     Total force =     0.000000     Total SCF correction =     0.000000


     Computing stress (Cartesian axis) and pressure

          total   stress  (Ry/bohr**3)                   (kbar)     P=   26.53
   0.00018038   0.00000000   0.00000000         26.53      0.00      0.00
   0.00000000   0.00018038   0.00000000          0.00     26.53      0.00
   0.00000000   0.00000000   0.00018038          0.00      0.00     26.53


     Writing output data file Cu.save/

     init_run     :      0.31s CPU      0.33s WALL (       1 calls)
     electrons    :      2.87s CPU      3.02s WALL (       1 calls)
     forces       :      0.05s CPU      0.05s WALL (       1 calls)
     stress       :      0.16s CPU      0.16s WALL (       1 calls)

     Called by init_run:
     wfcinit      :      0.13s CPU      0.14s WALL (       1 calls)
     potinit      :      0.01s CPU      0.01s WALL (       1 calls)
     hinit0       :      0.16s CPU      0.16s WALL (       1 calls)

     Called by electrons:
     c_bands      :      2.33s CPU      2.46s WALL (       7 calls)
     sum_band     :      0.48s CPU      0.50s WALL (       7 calls)
     v_of_rho     :      0.03s CPU      0.03s WALL (       7 calls)
     newd         :      0.05s CPU      0.05s WALL (       7 calls)
     mix_rho      :      0.00s CPU      0.00s WALL (       7 calls)

     Called by c_bands:
     init_us_2    :      0.08s CPU      0.09s WALL (     799 calls)
     cegterg      :      2.22s CPU      2.34s WALL (     329 calls)

     Called by sum_band:
     sum_band:bec :      0.00s CPU      0.00s WALL (     329 calls)
     addusdens    :      0.04s CPU      0.05s WALL (       7 calls)

     Called by *egterg:
     h_psi        :      1.83s CPU      1.94s WALL (    1022 calls)
     s_psi        :      0.06s CPU      0.06s WALL (    1022 calls)
     g_psi        :      0.00s CPU      0.01s WALL (     646 calls)
     cdiaghg      :      0.17s CPU      0.18s WALL (     928 calls)

     Called by h_psi:
     h_psi:pot    :      1.83s CPU      1.93s WALL (    1022 calls)
     h_psi:calbec :      0.08s CPU      0.08s WALL (    1022 calls)
     vloc_psi     :      1.69s CPU      1.78s WALL (    1022 calls)
     add_vuspsi   :      0.06s CPU      0.06s WALL (    1022 calls)

     General routines
     calbec       :      0.12s CPU      0.13s WALL (    1586 calls)
     fft          :      0.02s CPU      0.02s WALL (     104 calls)
     ffts         :      0.00s CPU      0.00s WALL (       7 calls)
     fftw         :      1.91s CPU      2.01s WALL (   19886 calls)

     Parallel routines
     fft_scatt_xy :      0.17s CPU      0.17s WALL (   19997 calls)
     fft_scatt_yz :      0.45s CPU      0.47s WALL (   19997 calls)

     PWSCF        :     4.11s CPU         4.34s WALL


   This run was terminated on:  23:34:54  25Mar2024            

=------------------------------------------------------------------------------=
   JOB DONE.
=------------------------------------------------------------------------------=
