
     Program PWSCF v.6.3MaX starts on 25Mar2024 at 23:37:17 

     This program is part of the open-source Quantum ESPRESSO suite
     for quantum simulation of materials; please cite
         "P. Giannozzi et al., J. Phys.:Condens. Matter 21 395502 (2009);
         "P. Giannozzi et al., J. Phys.:Condens. Matter 29 465901 (2017);
          URL http://www.quantum-espresso.org", 
     in publications or presentations arising from this work. More details at
     http://www.quantum-espresso.org/quote

     Parallel version (MPI), running on     5 processors

     MPI processes distributed on     1 nodes
     R & G space division:  proc/nbgrp/npool/nimage =       5
     Waiting for input...
     Reading input from standard input

     Current dimensions of program PWSCF are:
     Max number of different atomic species (ntypx) = 10
     Max number of k-points (npk) =  40000
     Max angular momentum in pseudopotentials (lmaxx) =  3
               file Cu.pbesol-dn-rrkjus_psl.1.0.0.UPF: wavefunction(s)  3D renormalized

     Subspace diagonalization in iterative solution of the eigenvalue problem:
     a serial algorithm will be used


     Parallelization info
     --------------------
     sticks:   dense  smooth     PW     G-vecs:    dense   smooth      PW
     Min          95      95     30                 1375     1375     248
     Max          95      95     31                 1376     1376     251
     Sum         475     475    151                 6879     6879    1243



     bravais-lattice index     =            2
     lattice parameter (alat)  =       6.8300  a.u.
     unit-cell volume          =      79.6530 (a.u.)^3
     number of atoms/cell      =            1
     number of atomic types    =            1
     number of electrons       =        11.00
     number of Kohn-Sham states=           10
     kinetic-energy cutoff     =      75.0000  Ry
     charge density cutoff     =     300.0000  Ry
     convergence threshold     =      1.0E-08
     mixing beta               =       0.7000
     number of iterations used =            8  plain     mixing
     Exchange-correlation      = PBESOL ( 1  4 10  8 0 0)

     celldm(1)=   6.830000  celldm(2)=   0.000000  celldm(3)=   0.000000
     celldm(4)=   0.000000  celldm(5)=   0.000000  celldm(6)=   0.000000

     crystal axes: (cart. coord. in units of alat)
               a(1) = (  -0.500000   0.000000   0.500000 )  
               a(2) = (   0.000000   0.500000   0.500000 )  
               a(3) = (  -0.500000   0.500000   0.000000 )  

     reciprocal axes: (cart. coord. in units 2 pi/alat)
               b(1) = ( -1.000000 -1.000000  1.000000 )  
               b(2) = (  1.000000  1.000000  1.000000 )  
               b(3) = ( -1.000000  1.000000 -1.000000 )  


     PseudoPot. # 1 for Cu read from file:
     /home/lorenzo/pseudos/Cu/Cu.pbesol-dn-rrkjus_psl.1.0.0.UPF
     MD5 check sum: bfa4c7aafbc42e028d5f4ccf7ceed93d
     Pseudo is Ultrasoft + core correction, Zval = 11.0
     Generated using "atomic" code by A. Dal Corso v.6.3
     Using radial grid of 1199 points,  6 beta functions with: 
                l(1) =   0
                l(2) =   0
                l(3) =   1
                l(4) =   1
                l(5) =   2
                l(6) =   2
     Q(r) pseudized with 0 coefficients 


     atomic species   valence    mass     pseudopotential
        Cu            11.00    63.54600     Cu( 1.00)

     48 Sym. Ops., with inversion, found



   Cartesian axes

     site n.     atom                  positions (alat units)
         1           Cu  tau(   1) = (   0.0000000   0.0000000   0.0000000  )

     number of k points=    35  gaussian smearing, width (Ry)=  0.0100
                       cart. coord. in units 2pi/alat
        k(    1) = (   0.0000000   0.0000000   0.0000000), wk =   0.0027435
        k(    2) = (  -0.1111111   0.1111111  -0.1111111), wk =   0.0219479
        k(    3) = (  -0.2222222   0.2222222  -0.2222222), wk =   0.0219479
        k(    4) = (  -0.3333333   0.3333333  -0.3333333), wk =   0.0219479
        k(    5) = (  -0.4444444   0.4444444  -0.4444444), wk =   0.0219479
        k(    6) = (   0.0000000   0.2222222   0.0000000), wk =   0.0164609
        k(    7) = (  -0.1111111   0.3333333  -0.1111111), wk =   0.0658436
        k(    8) = (  -0.2222222   0.4444444  -0.2222222), wk =   0.0658436
        k(    9) = (  -0.3333333   0.5555556  -0.3333333), wk =   0.0658436
        k(   10) = (   0.5555556  -0.3333333   0.5555556), wk =   0.0658436
        k(   11) = (   0.4444444  -0.2222222   0.4444444), wk =   0.0658436
        k(   12) = (   0.3333333  -0.1111111   0.3333333), wk =   0.0658436
        k(   13) = (   0.2222222  -0.0000000   0.2222222), wk =   0.0329218
        k(   14) = (   0.0000000   0.4444444   0.0000000), wk =   0.0164609
        k(   15) = (  -0.1111111   0.5555556  -0.1111111), wk =   0.0658436
        k(   16) = (  -0.2222222   0.6666667  -0.2222222), wk =   0.0658436
        k(   17) = (   0.6666667  -0.2222222   0.6666667), wk =   0.0658436
        k(   18) = (   0.5555556  -0.1111111   0.5555556), wk =   0.0658436
        k(   19) = (   0.4444444   0.0000000   0.4444444), wk =   0.0329218
        k(   20) = (   0.0000000   0.6666667   0.0000000), wk =   0.0164609
        k(   21) = (  -0.1111111   0.7777778  -0.1111111), wk =   0.0658436
        k(   22) = (   0.7777778  -0.1111111   0.7777778), wk =   0.0658436
        k(   23) = (   0.6666667  -0.0000000   0.6666667), wk =   0.0329218
        k(   24) = (   0.0000000   0.8888889   0.0000000), wk =   0.0164609
        k(   25) = (   0.8888889   0.0000000   0.8888889), wk =   0.0329218
        k(   26) = (  -0.2222222   0.4444444   0.0000000), wk =   0.0658436
        k(   27) = (  -0.3333333   0.5555556  -0.1111111), wk =   0.1316872
        k(   28) = (   0.5555556  -0.3333333   0.7777778), wk =   0.1316872
        k(   29) = (  -0.2222222   0.6666667   0.0000000), wk =   0.0658436
        k(   30) = (   0.6666667  -0.2222222   0.8888889), wk =   0.1316872
        k(   31) = (   0.5555556  -0.1111111   0.7777778), wk =   0.1316872
        k(   32) = (   0.4444444   0.0000000   0.6666667), wk =   0.0658436
        k(   33) = (   0.7777778  -0.1111111   1.0000000), wk =   0.0658436
        k(   34) = (   0.6666667  -0.0000000   0.8888889), wk =   0.0658436
        k(   35) = (   0.5555556  -0.1111111   1.0000000), wk =   0.0658436

     Dense  grid:     6879 G-vectors     FFT dimensions: (  27,  27,  27)

     Estimated max dynamical RAM per process >       7.61 MB

     Estimated total dynamical RAM >      38.04 MB

     Initial potential from superposition of free atoms

     starting charge   10.99979, renormalised to   11.00000
     Starting wfcs are    9 randomized atomic wfcs +    1 random wfcs

     total cpu time spent up to now is        1.0 secs

     Self-consistent Calculation

     iteration #  1     ecut=    75.00 Ry     beta= 0.70
     Davidson diagonalization with overlap
     ethr =  1.00E-02,  avg # of iterations =  3.7

     Threshold (ethr) on eigenvalues was too large:
     Diagonalizing with lowered threshold

     Davidson diagonalization with overlap
     ethr =  6.72E-04,  avg # of iterations =  1.0

     total cpu time spent up to now is        1.6 secs

     total energy              =    -122.36700423 Ry
     Harris-Foulkes estimate   =    -122.42545990 Ry
     estimated scf accuracy    <       0.07353268 Ry

     iteration #  2     ecut=    75.00 Ry     beta= 0.70
     Davidson diagonalization with overlap
     ethr =  6.68E-04,  avg # of iterations =  2.1

     total cpu time spent up to now is        2.0 secs

     total energy              =    -122.36936990 Ry
     Harris-Foulkes estimate   =    -122.47164884 Ry
     estimated scf accuracy    <       0.26509779 Ry

     iteration #  3     ecut=    75.00 Ry     beta= 0.70
     Davidson diagonalization with overlap
     ethr =  6.68E-04,  avg # of iterations =  2.1

     total cpu time spent up to now is        2.4 secs

     total energy              =    -122.41090860 Ry
     Harris-Foulkes estimate   =    -122.41095899 Ry
     estimated scf accuracy    <       0.00012935 Ry

     iteration #  4     ecut=    75.00 Ry     beta= 0.70
     Davidson diagonalization with overlap
     ethr =  1.18E-06,  avg # of iterations =  2.5

     total cpu time spent up to now is        2.8 secs

     total energy              =    -122.41098037 Ry
     Harris-Foulkes estimate   =    -122.41098508 Ry
     estimated scf accuracy    <       0.00001420 Ry

     iteration #  5     ecut=    75.00 Ry     beta= 0.70
     Davidson diagonalization with overlap
     ethr =  1.29E-07,  avg # of iterations =  1.1

     total cpu time spent up to now is        3.1 secs

     total energy              =    -122.41098290 Ry
     Harris-Foulkes estimate   =    -122.41098298 Ry
     estimated scf accuracy    <       0.00000021 Ry

     iteration #  6     ecut=    75.00 Ry     beta= 0.70
     Davidson diagonalization with overlap
     ethr =  1.89E-09,  avg # of iterations =  2.3

     total cpu time spent up to now is        3.4 secs

     End of self-consistent calculation

          k = 0.0000 0.0000 0.0000 (   893 PWs)   bands (ev):

     3.0506   9.4951   9.4951   9.4951  10.3294  10.3294  35.3894  37.7553
    37.7553  37.7553

          k =-0.1111 0.1111-0.1111 (   893 PWs)   bands (ev):

     3.4967   9.4041   9.5734   9.5734  10.3031  10.3031  32.0308  35.9787
    36.6563  36.6563

          k =-0.2222 0.2222-0.2222 (   887 PWs)   bands (ev):

     4.7624   9.2427   9.6612   9.6612  10.3599  10.3599  26.2720  35.3822
    35.4579  35.4579

          k =-0.3333 0.3333-0.3333 (   878 PWs)   bands (ev):

     6.4350   9.4597   9.5756   9.5756  10.6342  10.6342  21.0626  34.5025
    34.7710  34.7710

          k =-0.4444 0.4444-0.4444 (   874 PWs)   bands (ev):

     7.3180   9.4749   9.4749  10.8732  10.8732  10.9074  17.0221  33.8808
    34.5306  34.5306

          k = 0.0000 0.2222 0.0000 (   889 PWs)   bands (ev):

     3.6443   9.3210   9.6377   9.6377  10.1746  10.3935  33.7649  34.2196
    34.2196  35.8938

          k =-0.1111 0.3333-0.1111 (   880 PWs)   bands (ev):

     4.6365   9.1321   9.7257   9.7758  10.1493  10.4801  28.4539  32.5310
    33.7028  36.7289

          k =-0.2222 0.4444-0.2222 (   868 PWs)   bands (ev):

     6.2218   9.0633   9.5438   9.7600  10.6180  10.7038  23.0146  31.6590
    32.8320  34.4414

          k =-0.3333 0.5556-0.3333 (   878 PWs)   bands (ev):

     7.4210   9.3207   9.6388   9.6506  10.9017  11.6618  18.4004  31.2984
    31.6956  33.4237

          k = 0.5556-0.3333 0.5556 (   872 PWs)   bands (ev):

     7.6236   9.3069   9.5963  10.0085  10.8617  12.6750  16.4497  29.9011
    32.7303  33.6807

          k = 0.4444-0.2222 0.4444 (   874 PWs)   bands (ev):

     7.1642   9.4189   9.4339   9.6547  10.5709  11.4123  19.8204  29.2976
    34.7632  34.7929

          k = 0.3333-0.1111 0.3333 (   877 PWs)   bands (ev):

     5.6684   9.1041   9.6046   9.7819  10.2028  10.7763  24.7694  29.5260
    36.6944  37.6831

          k = 0.2222-0.0000 0.2222 (   895 PWs)   bands (ev):

     4.2189   9.2522   9.6641   9.6994  10.1540  10.4398  30.0920  30.8346
    37.7441  39.3850

          k = 0.0000 0.4444 0.0000 (   877 PWs)   bands (ev):

     5.3010   8.8902   9.8773  10.0369  10.0369  10.5572  30.3720  30.3720
    31.8612  32.2862

          k =-0.1111 0.5556-0.1111 (   865 PWs)   bands (ev):

     6.5543   8.6908   9.6411  10.1560  10.6567  10.7374  25.5998  29.1076
    29.5525  32.3564

          k =-0.2222 0.6667-0.2222 (   876 PWs)   bands (ev):

     7.7250   8.6967   9.4498  10.0719  10.9309  12.1221  20.6665  27.0478
    28.8730  32.2548

          k = 0.6667-0.2222 0.6667 (   862 PWs)   bands (ev):

     8.1384   8.8360   9.4678   9.9707  10.8784  14.5016  16.9091  25.2349
    29.7441  32.5610

          k = 0.5556-0.1111 0.5556 (   863 PWs)   bands (ev):

     8.0740   9.0340   9.2142   9.9409  10.5708  13.0993  19.2344  24.2617
    31.6525  33.4950

          k = 0.4444 0.0000 0.4444 (   873 PWs)   bands (ev):

     7.0908   8.9647   9.3572   9.9779  10.1930  11.5655  23.5866  24.5311
    34.4086  35.1296

          k = 0.0000 0.6667 0.0000 (   866 PWs)   bands (ev):

     7.1563   8.4177  10.3941  10.5748  10.5748  10.7461  26.1147  27.4113
    27.4113  30.6682

          k =-0.1111 0.7778-0.1111 (   863 PWs)   bands (ev):

     7.6777   8.3081  10.2250  10.5804  10.9459  12.3458  23.3494  23.6820
    26.7912  31.3367

          k = 0.7778-0.1111 0.7778 (   871 PWs)   bands (ev):

     8.0918   8.4032   9.8250  10.4505  10.9283  15.1975  19.3261  21.4690
    27.3751  31.6907

          k = 0.6667-0.0000 0.6667 (   866 PWs)   bands (ev):

     8.4455   8.6094   9.3516  10.2564  10.7080  15.7085  18.3773  20.9421
    29.0766  32.3504

          k = 0.0000 0.8889 0.0000 (   878 PWs)   bands (ev):

     7.5963   8.1187  10.8709  10.9918  10.9918  13.0705  20.7192  25.7473
    25.7473  30.1173

          k = 0.8889 0.0000 0.8889 (   874 PWs)   bands (ev):

     7.7409   8.1602  10.6149  10.7862  11.0142  14.6584  19.6870  22.9238
    25.9556  31.0446

          k =-0.2222 0.4444 0.0000 (   870 PWs)   bands (ev):

     5.8048   8.9311   9.5845  10.0480  10.1530  10.7930  26.9056  27.5406
    33.3371  36.1805

          k =-0.3333 0.5556-0.1111 (   877 PWs)   bands (ev):

     7.2831   8.8983   9.3193   9.9948  10.5387  11.5813  21.9703  26.7825
    30.5913  36.2408

          k = 0.5556-0.3333 0.7778 (   869 PWs)   bands (ev):

     7.9835   9.0074   9.4199   9.8810  10.8246  13.3631  17.6673  27.1572
    28.5134  35.7994

          k =-0.2222 0.6667 0.0000 (   864 PWs)   bands (ev):

     7.5298   8.5382   9.5528  10.5486  10.5723  11.7097  24.4819  25.1369
    26.6384  34.4139

          k = 0.6667-0.2222 0.8889 (   875 PWs)   bands (ev):

     8.1727   8.5834   9.3753  10.3507  10.8714  13.8646  20.1157  24.2611
    25.0406  35.1973

          k = 0.5556-0.1111 0.7778 (   875 PWs)   bands (ev):

     8.5252   8.6061   9.2208  10.1966  10.8396  15.9151  17.5062  22.7456
    26.0997  35.8989

          k = 0.4444 0.0000 0.6667 (   874 PWs)   bands (ev):

     8.2827   8.8861   8.9489  10.2077  10.5874  13.2686  21.0825  22.5328
    28.0028  37.1999

          k = 0.7778-0.1111 1.0000 (   875 PWs)   bands (ev):

     7.8727   8.2836  10.1303  10.6954  10.9911  14.3238  21.0614  23.0921
    23.8602  33.5443

          k = 0.6667-0.0000 0.8889 (   877 PWs)   bands (ev):

     8.1778   8.4734   9.6488  10.4547  10.9883  16.7135  19.3462  20.2776
    24.3960  34.8422

          k = 0.5556-0.1111 1.0000 (   877 PWs)   bands (ev):

     8.3665   8.7928   9.1095  10.3170  10.9890  16.5751  19.6431  21.5192
    22.2828  39.3380

     the Fermi energy is    12.5419 ev

!    total energy              =    -122.41098297 Ry
     Harris-Foulkes estimate   =    -122.41098297 Ry
     estimated scf accuracy    <          1.6E-10 Ry

     The total energy is the sum of the following terms:

     one-electron contribution =     -27.60549466 Ry
     hartree contribution      =      30.53178687 Ry
     xc contribution           =     -44.11195203 Ry
     ewald contribution        =     -81.22522855 Ry
     smearing contrib. (-TS)   =      -0.00009461 Ry

     convergence has been achieved in   6 iterations

     Forces acting on atoms (cartesian axes, Ry/au):

     atom    1 type  1   force =     0.00000000    0.00000000    0.00000000

     Total force =     0.000000     Total SCF correction =     0.000000


     Computing stress (Cartesian axis) and pressure

          total   stress  (Ry/bohr**3)                   (kbar)     P=  -57.43
  -0.00039042  -0.00000000   0.00000000        -57.43     -0.00      0.00
  -0.00000000  -0.00039042   0.00000000         -0.00    -57.43      0.00
   0.00000000  -0.00000000  -0.00039042          0.00     -0.00    -57.43


     Writing output data file Cu.save/

     init_run     :      0.28s CPU      0.28s WALL (       1 calls)
     electrons    :      2.31s CPU      2.42s WALL (       1 calls)
     forces       :      0.04s CPU      0.04s WALL (       1 calls)
     stress       :      0.14s CPU      0.14s WALL (       1 calls)

     Called by init_run:
     wfcinit      :      0.09s CPU      0.10s WALL (       1 calls)
     potinit      :      0.01s CPU      0.01s WALL (       1 calls)
     hinit0       :      0.17s CPU      0.17s WALL (       1 calls)

     Called by electrons:
     c_bands      :      1.84s CPU      1.93s WALL (       7 calls)
     sum_band     :      0.40s CPU      0.42s WALL (       7 calls)
     v_of_rho     :      0.03s CPU      0.03s WALL (       7 calls)
     newd         :      0.05s CPU      0.05s WALL (       7 calls)
     mix_rho      :      0.00s CPU      0.00s WALL (       7 calls)

     Called by c_bands:
     init_us_2    :      0.06s CPU      0.06s WALL (     595 calls)
     cegterg      :      1.75s CPU      1.84s WALL (     245 calls)

     Called by sum_band:
     sum_band:bec :      0.00s CPU      0.00s WALL (     245 calls)
     addusdens    :      0.05s CPU      0.05s WALL (       7 calls)

     Called by *egterg:
     h_psi        :      1.44s CPU      1.51s WALL (     800 calls)
     s_psi        :      0.04s CPU      0.04s WALL (     800 calls)
     g_psi        :      0.00s CPU      0.00s WALL (     520 calls)
     cdiaghg      :      0.14s CPU      0.15s WALL (     730 calls)

     Called by h_psi:
     h_psi:pot    :      1.43s CPU      1.50s WALL (     800 calls)
     h_psi:calbec :      0.06s CPU      0.07s WALL (     800 calls)
     vloc_psi     :      1.32s CPU      1.38s WALL (     800 calls)
     add_vuspsi   :      0.04s CPU      0.04s WALL (     800 calls)

     General routines
     calbec       :      0.11s CPU      0.12s WALL (    1220 calls)
     fft          :      0.02s CPU      0.02s WALL (     104 calls)
     ffts         :      0.00s CPU      0.00s WALL (       7 calls)
     fftw         :      1.50s CPU      1.57s WALL (   14938 calls)

     Parallel routines
     fft_scatt_xy :      0.13s CPU      0.14s WALL (   15049 calls)
     fft_scatt_yz :      0.38s CPU      0.40s WALL (   15049 calls)

     PWSCF        :     3.48s CPU         3.65s WALL


   This run was terminated on:  23:37:21  25Mar2024            

=------------------------------------------------------------------------------=
   JOB DONE.
=------------------------------------------------------------------------------=
