
     Program PWSCF v.6.3MaX starts on 25Mar2024 at 23:16:29 

     This program is part of the open-source Quantum ESPRESSO suite
     for quantum simulation of materials; please cite
         "P. Giannozzi et al., J. Phys.:Condens. Matter 21 395502 (2009);
         "P. Giannozzi et al., J. Phys.:Condens. Matter 29 465901 (2017);
          URL http://www.quantum-espresso.org", 
     in publications or presentations arising from this work. More details at
     http://www.quantum-espresso.org/quote

     Parallel version (MPI), running on     5 processors

     MPI processes distributed on     1 nodes
     R & G space division:  proc/nbgrp/npool/nimage =       5
     Waiting for input...
     Reading input from standard input

     Current dimensions of program PWSCF are:
     Max number of different atomic species (ntypx) = 10
     Max number of k-points (npk) =  40000
     Max angular momentum in pseudopotentials (lmaxx) =  3
               file Cu.pbe-dn-rrkjus_psl.1.0.0.UPF: wavefunction(s)  3D renormalized

     Subspace diagonalization in iterative solution of the eigenvalue problem:
     a serial algorithm will be used


     Parallelization info
     --------------------
     sticks:   dense  smooth     PW     G-vecs:    dense   smooth      PW
     Min          39      39     12                  361      361      67
     Max          40      40     13                  363      363      70
     Sum         199     199     61                 1807     1807     339



     bravais-lattice index     =            2
     lattice parameter (alat)  =       6.8300  a.u.
     unit-cell volume          =      79.6530 (a.u.)^3
     number of atoms/cell      =            1
     number of atomic types    =            1
     number of electrons       =        11.00
     number of Kohn-Sham states=           10
     kinetic-energy cutoff     =      30.0000  Ry
     charge density cutoff     =     120.0000  Ry
     convergence threshold     =      1.0E-08
     mixing beta               =       0.7000
     number of iterations used =            8  plain     mixing
     Exchange-correlation      = PBE ( 1  4  3  4 0 0)

     celldm(1)=   6.830000  celldm(2)=   0.000000  celldm(3)=   0.000000
     celldm(4)=   0.000000  celldm(5)=   0.000000  celldm(6)=   0.000000

     crystal axes: (cart. coord. in units of alat)
               a(1) = (  -0.500000   0.000000   0.500000 )  
               a(2) = (   0.000000   0.500000   0.500000 )  
               a(3) = (  -0.500000   0.500000   0.000000 )  

     reciprocal axes: (cart. coord. in units 2 pi/alat)
               b(1) = ( -1.000000 -1.000000  1.000000 )  
               b(2) = (  1.000000  1.000000  1.000000 )  
               b(3) = ( -1.000000  1.000000 -1.000000 )  


     PseudoPot. # 1 for Cu read from file:
     /home/lorenzo/pseudos/Cu/Cu.pbe-dn-rrkjus_psl.1.0.0.UPF
     MD5 check sum: ba3d6c84e19846e79d48cdc68ff7152b
     Pseudo is Ultrasoft + core correction, Zval = 11.0
     Generated using "atomic" code by A. Dal Corso v.6.3
     Using radial grid of 1199 points,  6 beta functions with: 
                l(1) =   0
                l(2) =   0
                l(3) =   1
                l(4) =   1
                l(5) =   2
                l(6) =   2
     Q(r) pseudized with 0 coefficients 


     atomic species   valence    mass     pseudopotential
        Cu            11.00    63.54600     Cu( 1.00)

     48 Sym. Ops., with inversion, found



   Cartesian axes

     site n.     atom                  positions (alat units)
         1           Cu  tau(   1) = (   0.0000000   0.0000000   0.0000000  )

     number of k points=     8  gaussian smearing, width (Ry)=  0.0100
                       cart. coord. in units 2pi/alat
        k(    1) = (   0.0000000   0.0000000   0.0000000), wk =   0.0312500
        k(    2) = (  -0.2500000   0.2500000  -0.2500000), wk =   0.2500000
        k(    3) = (   0.5000000  -0.5000000   0.5000000), wk =   0.1250000
        k(    4) = (   0.0000000   0.5000000   0.0000000), wk =   0.1875000
        k(    5) = (   0.7500000  -0.2500000   0.7500000), wk =   0.7500000
        k(    6) = (   0.5000000   0.0000000   0.5000000), wk =   0.3750000
        k(    7) = (   0.0000000  -1.0000000   0.0000000), wk =   0.0937500
        k(    8) = (  -0.5000000  -1.0000000   0.0000000), wk =   0.1875000

     Dense  grid:     1807 G-vectors     FFT dimensions: (  18,  18,  18)

     Estimated max dynamical RAM per process >       2.38 MB

     Estimated total dynamical RAM >      11.91 MB

     Check: negative/imaginary core charge=   -0.000038    0.000000

     Initial potential from superposition of free atoms

     starting charge   10.99977, renormalised to   11.00000
     Starting wfcs are    9 randomized atomic wfcs +    1 random wfcs

     total cpu time spent up to now is        0.8 secs

     Self-consistent Calculation

     iteration #  1     ecut=    30.00 Ry     beta= 0.70
     Davidson diagonalization with overlap
     ethr =  1.00E-02,  avg # of iterations =  3.4

     Threshold (ethr) on eigenvalues was too large:
     Diagonalizing with lowered threshold

     Davidson diagonalization with overlap
     ethr =  6.33E-04,  avg # of iterations =  1.0

     total cpu time spent up to now is        0.9 secs

     total energy              =    -122.67814801 Ry
     Harris-Foulkes estimate   =    -122.73328366 Ry
     estimated scf accuracy    <       0.06958631 Ry

     iteration #  2     ecut=    30.00 Ry     beta= 0.70
     Davidson diagonalization with overlap
     ethr =  6.33E-04,  avg # of iterations =  2.5

     total cpu time spent up to now is        0.9 secs

     total energy              =    -122.68375226 Ry
     Harris-Foulkes estimate   =    -122.77080948 Ry
     estimated scf accuracy    <       0.21768184 Ry

     iteration #  3     ecut=    30.00 Ry     beta= 0.70
     Davidson diagonalization with overlap
     ethr =  6.33E-04,  avg # of iterations =  2.0

     total cpu time spent up to now is        1.0 secs

     total energy              =    -122.71909891 Ry
     Harris-Foulkes estimate   =    -122.71911569 Ry
     estimated scf accuracy    <       0.00008535 Ry

     iteration #  4     ecut=    30.00 Ry     beta= 0.70
     Davidson diagonalization with overlap
     ethr =  7.76E-07,  avg # of iterations =  2.4

     total cpu time spent up to now is        1.0 secs

     total energy              =    -122.71917117 Ry
     Harris-Foulkes estimate   =    -122.71917381 Ry
     estimated scf accuracy    <       0.00001187 Ry

     iteration #  5     ecut=    30.00 Ry     beta= 0.70
     Davidson diagonalization with overlap
     ethr =  1.08E-07,  avg # of iterations =  1.2

     total cpu time spent up to now is        1.0 secs

     total energy              =    -122.71917318 Ry
     Harris-Foulkes estimate   =    -122.71917319 Ry
     estimated scf accuracy    <       0.00000013 Ry

     iteration #  6     ecut=    30.00 Ry     beta= 0.70
     Davidson diagonalization with overlap
     ethr =  1.17E-09,  avg # of iterations =  2.6

     total cpu time spent up to now is        1.1 secs

     End of self-consistent calculation

          k = 0.0000 0.0000 0.0000 (   229 PWs)   bands (ev):

     3.2839   9.6235   9.6235   9.6235  10.4437  10.4437  35.6109  37.9953
    37.9953  37.9953

          k =-0.2500 0.2500-0.2500 (   217 PWs)   bands (ev):

     5.4050   9.3643   9.7775   9.7775  10.5330  10.5330  25.1862  35.4159
    35.5842  35.5842

          k = 0.5000-0.5000 0.5000 (   228 PWs)   bands (ev):

     7.5556   9.5796   9.5796  11.0027  11.0027  11.6422  16.4283  34.0112
    34.7632  34.7632

          k = 0.0000 0.5000 0.0000 (   218 PWs)   bands (ev):

     6.0459   8.8962   9.9791  10.2821  10.2821  10.7246  29.8217  29.8217
    31.1616  31.8988

          k = 0.7500-0.2500 0.7500 (   223 PWs)   bands (ev):

     8.1997   8.7730   9.6365  10.2564  11.0513  13.5958  19.3986  25.2915
    28.8075  32.4284

          k = 0.5000 0.0000 0.5000 (   218 PWs)   bands (ev):

     7.9382   9.1144   9.3192  10.1129  10.4432  12.3478  22.4424  23.6229
    33.2269  34.5360

          k = 0.0000-1.0000 0.0000 (   222 PWs)   bands (ev):

     7.7513   8.2112  10.9988  11.1470  11.1470  14.1492  19.8185  25.7746
    25.7746  30.4444

          k =-0.5000-1.0000 0.0000 (   224 PWs)   bands (ev):

     8.4938   9.1044   9.1044  10.3891  11.1510  18.8868  18.8868  21.0367
    21.4680  41.2472

     the Fermi energy is    13.4292 ev

!    total energy              =    -122.71917322 Ry
     Harris-Foulkes estimate   =    -122.71917322 Ry
     estimated scf accuracy    <          1.4E-09 Ry

     The total energy is the sum of the following terms:

     one-electron contribution =     -27.43614444 Ry
     hartree contribution      =      30.55117300 Ry
     xc contribution           =     -44.60850081 Ry
     ewald contribution        =     -81.22522858 Ry
     smearing contrib. (-TS)   =      -0.00047239 Ry

     convergence has been achieved in   6 iterations

     Forces acting on atoms (cartesian axes, Ry/au):

     atom    1 type  1   force =     0.00000000    0.00000000    0.00000000

     Total force =     0.000000     Total SCF correction =     0.000000


     Computing stress (Cartesian axis) and pressure

          total   stress  (Ry/bohr**3)                   (kbar)     P= -193.22
  -0.00131345  -0.00000000  -0.00000000       -193.22     -0.00     -0.00
  -0.00000000  -0.00131345   0.00000000         -0.00   -193.22      0.00
  -0.00000000   0.00000000  -0.00131345         -0.00      0.00   -193.22


     Writing output data file Cu.save/

     init_run     :      0.11s CPU      0.11s WALL (       1 calls)
     electrons    :      0.24s CPU      0.28s WALL (       1 calls)
     forces       :      0.01s CPU      0.01s WALL (       1 calls)
     stress       :      0.02s CPU      0.02s WALL (       1 calls)

     Called by init_run:
     wfcinit      :      0.01s CPU      0.01s WALL (       1 calls)
     potinit      :      0.00s CPU      0.00s WALL (       1 calls)
     hinit0       :      0.09s CPU      0.09s WALL (       1 calls)

     Called by electrons:
     c_bands      :      0.18s CPU      0.20s WALL (       7 calls)
     sum_band     :      0.04s CPU      0.05s WALL (       7 calls)
     v_of_rho     :      0.01s CPU      0.01s WALL (       7 calls)
     newd         :      0.01s CPU      0.01s WALL (       7 calls)
     mix_rho      :      0.00s CPU      0.00s WALL (       7 calls)

     Called by c_bands:
     init_us_2    :      0.00s CPU      0.01s WALL (     136 calls)
     cegterg      :      0.17s CPU      0.19s WALL (      56 calls)

     Called by sum_band:
     sum_band:bec :      0.00s CPU      0.00s WALL (      56 calls)
     addusdens    :      0.01s CPU      0.01s WALL (       7 calls)

     Called by *egterg:
     h_psi        :      0.13s CPU      0.14s WALL (     185 calls)
     s_psi        :      0.00s CPU      0.00s WALL (     185 calls)
     g_psi        :      0.00s CPU      0.00s WALL (     121 calls)
     cdiaghg      :      0.03s CPU      0.04s WALL (     169 calls)

     Called by h_psi:
     h_psi:pot    :      0.13s CPU      0.14s WALL (     185 calls)
     h_psi:calbec :      0.01s CPU      0.01s WALL (     185 calls)
     vloc_psi     :      0.11s CPU      0.13s WALL (     185 calls)
     add_vuspsi   :      0.00s CPU      0.00s WALL (     185 calls)

     General routines
     calbec       :      0.01s CPU      0.01s WALL (     281 calls)
     fft          :      0.01s CPU      0.01s WALL (     104 calls)
     ffts         :      0.00s CPU      0.00s WALL (       7 calls)
     fftw         :      0.12s CPU      0.14s WALL (    3442 calls)

     Parallel routines
     fft_scatt_xy :      0.01s CPU      0.01s WALL (    3553 calls)
     fft_scatt_yz :      0.05s CPU      0.05s WALL (    3553 calls)

     PWSCF        :     1.05s CPU         1.14s WALL


   This run was terminated on:  23:16:30  25Mar2024            

=------------------------------------------------------------------------------=
   JOB DONE.
=------------------------------------------------------------------------------=
