
     Program PWSCF v.6.3MaX starts on 25Mar2024 at 23:22:59 

     This program is part of the open-source Quantum ESPRESSO suite
     for quantum simulation of materials; please cite
         "P. Giannozzi et al., J. Phys.:Condens. Matter 21 395502 (2009);
         "P. Giannozzi et al., J. Phys.:Condens. Matter 29 465901 (2017);
          URL http://www.quantum-espresso.org", 
     in publications or presentations arising from this work. More details at
     http://www.quantum-espresso.org/quote

     Parallel version (MPI), running on     5 processors

     MPI processes distributed on     1 nodes
     R & G space division:  proc/nbgrp/npool/nimage =       5
     Waiting for input...
     Reading input from standard input

     Current dimensions of program PWSCF are:
     Max number of different atomic species (ntypx) = 10
     Max number of k-points (npk) =  40000
     Max angular momentum in pseudopotentials (lmaxx) =  3
               file Cu.pbe-dn-kjpaw_psl.1.0.0.UPF: wavefunction(s)  4S 3D renormalized

     Subspace diagonalization in iterative solution of the eigenvalue problem:
     a serial algorithm will be used


     Parallelization info
     --------------------
     sticks:   dense  smooth     PW     G-vecs:    dense   smooth      PW
     Min          59      59     19                  657      657     128
     Max          59      59     20                  658      658     130
     Sum         295     295     97                 3287     3287     645



     bravais-lattice index     =            2
     lattice parameter (alat)  =       6.8300  a.u.
     unit-cell volume          =      79.6530 (a.u.)^3
     number of atoms/cell      =            1
     number of atomic types    =            1
     number of electrons       =        11.00
     number of Kohn-Sham states=           10
     kinetic-energy cutoff     =      45.0000  Ry
     charge density cutoff     =     180.0000  Ry
     convergence threshold     =      1.0E-08
     mixing beta               =       0.7000
     number of iterations used =            8  plain     mixing
     Exchange-correlation      = SLA PW PBX PBC ( 1  4  3  4 0 0)

     celldm(1)=   6.830000  celldm(2)=   0.000000  celldm(3)=   0.000000
     celldm(4)=   0.000000  celldm(5)=   0.000000  celldm(6)=   0.000000

     crystal axes: (cart. coord. in units of alat)
               a(1) = (  -0.500000   0.000000   0.500000 )  
               a(2) = (   0.000000   0.500000   0.500000 )  
               a(3) = (  -0.500000   0.500000   0.000000 )  

     reciprocal axes: (cart. coord. in units 2 pi/alat)
               b(1) = ( -1.000000 -1.000000  1.000000 )  
               b(2) = (  1.000000  1.000000  1.000000 )  
               b(3) = ( -1.000000  1.000000 -1.000000 )  


     PseudoPot. # 1 for Cu read from file:
     /home/lorenzo/pseudos/Cu/Cu.pbe-dn-kjpaw_psl.1.0.0.UPF
     MD5 check sum: cfffd1f38ee05704b3e17f46f1730a6f
     Pseudo is Projector augmented-wave + core cor, Zval = 11.0
     Generated using "atomic" code by A. Dal Corso v.6.3
     Shape of augmentation charge: PSQ
     Using radial grid of 1199 points,  6 beta functions with: 
                l(1) =   0
                l(2) =   0
                l(3) =   1
                l(4) =   1
                l(5) =   2
                l(6) =   2
     Q(r) pseudized with 0 coefficients 


     atomic species   valence    mass     pseudopotential
        Cu            11.00    63.54600     Cu( 1.00)

     48 Sym. Ops., with inversion, found



   Cartesian axes

     site n.     atom                  positions (alat units)
         1           Cu  tau(   1) = (   0.0000000   0.0000000   0.0000000  )

     number of k points=    35  gaussian smearing, width (Ry)=  0.0100
                       cart. coord. in units 2pi/alat
        k(    1) = (   0.0000000   0.0000000   0.0000000), wk =   0.0027435
        k(    2) = (  -0.1111111   0.1111111  -0.1111111), wk =   0.0219479
        k(    3) = (  -0.2222222   0.2222222  -0.2222222), wk =   0.0219479
        k(    4) = (  -0.3333333   0.3333333  -0.3333333), wk =   0.0219479
        k(    5) = (  -0.4444444   0.4444444  -0.4444444), wk =   0.0219479
        k(    6) = (   0.0000000   0.2222222   0.0000000), wk =   0.0164609
        k(    7) = (  -0.1111111   0.3333333  -0.1111111), wk =   0.0658436
        k(    8) = (  -0.2222222   0.4444444  -0.2222222), wk =   0.0658436
        k(    9) = (  -0.3333333   0.5555556  -0.3333333), wk =   0.0658436
        k(   10) = (   0.5555556  -0.3333333   0.5555556), wk =   0.0658436
        k(   11) = (   0.4444444  -0.2222222   0.4444444), wk =   0.0658436
        k(   12) = (   0.3333333  -0.1111111   0.3333333), wk =   0.0658436
        k(   13) = (   0.2222222  -0.0000000   0.2222222), wk =   0.0329218
        k(   14) = (   0.0000000   0.4444444   0.0000000), wk =   0.0164609
        k(   15) = (  -0.1111111   0.5555556  -0.1111111), wk =   0.0658436
        k(   16) = (  -0.2222222   0.6666667  -0.2222222), wk =   0.0658436
        k(   17) = (   0.6666667  -0.2222222   0.6666667), wk =   0.0658436
        k(   18) = (   0.5555556  -0.1111111   0.5555556), wk =   0.0658436
        k(   19) = (   0.4444444   0.0000000   0.4444444), wk =   0.0329218
        k(   20) = (   0.0000000   0.6666667   0.0000000), wk =   0.0164609
        k(   21) = (  -0.1111111   0.7777778  -0.1111111), wk =   0.0658436
        k(   22) = (   0.7777778  -0.1111111   0.7777778), wk =   0.0658436
        k(   23) = (   0.6666667  -0.0000000   0.6666667), wk =   0.0329218
        k(   24) = (   0.0000000   0.8888889   0.0000000), wk =   0.0164609
        k(   25) = (   0.8888889   0.0000000   0.8888889), wk =   0.0329218
        k(   26) = (  -0.2222222   0.4444444   0.0000000), wk =   0.0658436
        k(   27) = (  -0.3333333   0.5555556  -0.1111111), wk =   0.1316872
        k(   28) = (   0.5555556  -0.3333333   0.7777778), wk =   0.1316872
        k(   29) = (  -0.2222222   0.6666667   0.0000000), wk =   0.0658436
        k(   30) = (   0.6666667  -0.2222222   0.8888889), wk =   0.1316872
        k(   31) = (   0.5555556  -0.1111111   0.7777778), wk =   0.1316872
        k(   32) = (   0.4444444   0.0000000   0.6666667), wk =   0.0658436
        k(   33) = (   0.7777778  -0.1111111   1.0000000), wk =   0.0658436
        k(   34) = (   0.6666667  -0.0000000   0.8888889), wk =   0.0658436
        k(   35) = (   0.5555556  -0.1111111   1.0000000), wk =   0.0658436

     Dense  grid:     3287 G-vectors     FFT dimensions: (  24,  24,  24)

     Estimated max dynamical RAM per process >       4.12 MB

     Estimated total dynamical RAM >      20.62 MB

     Check: negative/imaginary core charge=   -0.000008    0.000000

     Initial potential from superposition of free atoms

     starting charge   10.99977, renormalised to   11.00000
     Starting wfcs are    9 randomized atomic wfcs +    1 random wfcs
     Checking if some PAW data can be deallocated... 

     total cpu time spent up to now is        1.1 secs

     Self-consistent Calculation

     iteration #  1     ecut=    45.00 Ry     beta= 0.70
     Davidson diagonalization with overlap
     ethr =  1.00E-02,  avg # of iterations =  3.7

     Threshold (ethr) on eigenvalues was too large:
     Diagonalizing with lowered threshold

     Davidson diagonalization with overlap
     ethr =  5.46E-04,  avg # of iterations =  1.0

     total cpu time spent up to now is        1.7 secs

     total energy              =    -213.05994685 Ry
     Harris-Foulkes estimate   =    -213.10691053 Ry
     estimated scf accuracy    <       0.05974662 Ry

     iteration #  2     ecut=    45.00 Ry     beta= 0.70
     Davidson diagonalization with overlap
     ethr =  5.43E-04,  avg # of iterations =  2.1

     total cpu time spent up to now is        2.0 secs

     total energy              =    -213.06161560 Ry
     Harris-Foulkes estimate   =    -213.14387744 Ry
     estimated scf accuracy    <       0.21284260 Ry

     iteration #  3     ecut=    45.00 Ry     beta= 0.70
     Davidson diagonalization with overlap
     ethr =  5.43E-04,  avg # of iterations =  2.0

     total cpu time spent up to now is        2.3 secs

     total energy              =    -213.09525487 Ry
     Harris-Foulkes estimate   =    -213.09528712 Ry
     estimated scf accuracy    <       0.00008397 Ry

     iteration #  4     ecut=    45.00 Ry     beta= 0.70
     Davidson diagonalization with overlap
     ethr =  7.63E-07,  avg # of iterations =  2.6

     total cpu time spent up to now is        2.7 secs

     total energy              =    -213.09530408 Ry
     Harris-Foulkes estimate   =    -213.09531186 Ry
     estimated scf accuracy    <       0.00002217 Ry

     iteration #  5     ecut=    45.00 Ry     beta= 0.70
     Davidson diagonalization with overlap
     ethr =  2.02E-07,  avg # of iterations =  1.1

     total cpu time spent up to now is        3.1 secs

     total energy              =    -213.09530811 Ry
     Harris-Foulkes estimate   =    -213.09530828 Ry
     estimated scf accuracy    <       0.00000046 Ry

     iteration #  6     ecut=    45.00 Ry     beta= 0.70
     Davidson diagonalization with overlap
     ethr =  4.14E-09,  avg # of iterations =  2.0

     total cpu time spent up to now is        3.4 secs

     End of self-consistent calculation

          k = 0.0000 0.0000 0.0000 (   411 PWs)   bands (ev):

     3.2707   9.6842   9.6842   9.6842  10.5155  10.5155  35.5889  37.9906
    37.9906  37.9906

          k =-0.1111 0.1111-0.1111 (   402 PWs)   bands (ev):

     3.7170   9.5942   9.7624   9.7624  10.4896  10.4896  32.2547  36.1871
    36.8949  36.8949

          k =-0.2222 0.2222-0.2222 (   398 PWs)   bands (ev):

     4.9825   9.4341   9.8498   9.8498  10.5466  10.5466  26.4941  35.5848
    35.6987  35.6987

          k =-0.3333 0.3333-0.3333 (   401 PWs)   bands (ev):

     6.6509   9.6579   9.7653   9.7653  10.8187  10.8187  21.2798  34.7035
    35.0150  35.0150

          k =-0.4444 0.4444-0.4444 (   407 PWs)   bands (ev):

     7.5226   9.6646   9.6646  11.0562  11.0562  11.1237  17.2321  34.0816
    34.7781  34.7781

          k = 0.0000 0.2222 0.0000 (   391 PWs)   bands (ev):

     3.8646   9.5107   9.8274   9.8274  10.3624  10.5798  33.9740  34.4585
    34.4585  36.1112

          k =-0.1111 0.3333-0.1111 (   400 PWs)   bands (ev):

     4.8567   9.3228   9.9145   9.9642  10.3372  10.6659  28.6784  32.7694
    33.9142  36.9540

          k =-0.2222 0.4444-0.2222 (   401 PWs)   bands (ev):

     6.4398   9.2566   9.7337   9.9487  10.8055  10.8882  23.2345  31.8982
    33.0408  34.6785

          k =-0.3333 0.5556-0.3333 (   412 PWs)   bands (ev):

     7.6270   9.5127   9.8351   9.8396  11.0844  11.8584  18.6144  31.5189
    31.9361  33.6483

          k = 0.5556-0.3333 0.5556 (   408 PWs)   bands (ev):

     7.8256   9.4980   9.7856  10.2038  11.0447  12.8822  16.6584  30.1268
    32.9725  33.8995

          k = 0.4444-0.2222 0.4444 (   406 PWs)   bands (ev):

     7.3750   9.6146   9.6265   9.8440  10.7553  11.6019  20.0365  29.5242
    35.0071  35.0098

          k = 0.3333-0.1111 0.3333 (   400 PWs)   bands (ev):

     5.8879   9.2959   9.7943   9.9706  10.3898  10.9616  24.9906  29.7523
    36.9103  37.9301

          k = 0.2222-0.0000 0.2222 (   395 PWs)   bands (ev):

     4.4392   9.4428   9.8529   9.8881  10.3421  10.6261  30.3158  31.0620
    37.9603  39.6210

          k = 0.0000 0.4444 0.0000 (   415 PWs)   bands (ev):

     5.5208   9.0812  10.0668  10.2235  10.2235  10.7424  30.6093  30.6093
    32.0731  32.4976

          k =-0.1111 0.5556-0.1111 (   409 PWs)   bands (ev):

     6.7711   8.8829   9.8323  10.3425  10.8453  10.9219  25.8247  29.3452
    29.7726  32.5748

          k =-0.2222 0.6667-0.2222 (   410 PWs)   bands (ev):

     7.9311   8.8910   9.6422  10.2592  11.1136  12.3200  20.8859  27.2695
    29.1113  32.4707

          k = 0.6667-0.2222 0.6667 (   401 PWs)   bands (ev):

     8.3371   9.0310   9.6606  10.1590  11.0614  14.7106  17.1221  25.4570
    29.9832  32.7765

          k = 0.5556-0.1111 0.5556 (   406 PWs)   bands (ev):

     8.2775   9.2279   9.4071  10.1290  10.7550  13.2999  19.4507  24.4838
    31.8924  33.7109

          k = 0.4444 0.0000 0.4444 (   409 PWs)   bands (ev):

     7.3066   9.1561   9.5480  10.1660  10.3791  11.7539  23.8071  24.7536
    34.6499  35.3465

          k = 0.0000 0.6667 0.0000 (   419 PWs)   bands (ev):

     7.3662   8.6100  10.5974  10.7587  10.7587  10.9303  26.3336  27.6488
    27.6488  30.8802

          k =-0.1111 0.7778-0.1111 (   412 PWs)   bands (ev):

     7.8793   8.5012  10.4167  10.7652  11.1288  12.5515  23.5652  23.9111
    27.0292  31.5509

          k = 0.7778-0.1111 0.7778 (   408 PWs)   bands (ev):

     8.2886   8.5979  10.0167  10.6364  11.1107  15.4103  19.5454  21.6862
    27.6133  31.9043

          k = 0.6667-0.0000 0.6667 (   403 PWs)   bands (ev):

     8.6410   8.8059   9.5441  10.4435  10.8914  15.9196  18.5947  21.1593
    29.3151  32.5647

          k = 0.0000 0.8889 0.0000 (   404 PWs)   bands (ev):

     7.7957   8.3127  11.0554  11.1739  11.1739  13.2921  20.9322  25.9858
    25.9858  30.3298

          k = 0.8889 0.0000 0.8889 (   412 PWs)   bands (ev):

     7.9387   8.3539  10.8017  10.9704  11.1961  14.8794  19.8970  23.1522
    26.1941  31.2584

          k =-0.2222 0.4444 0.0000 (   402 PWs)   bands (ev):

     6.0242   9.1227   9.7741  10.2349  10.3415  10.9785  27.1296  27.7665
    33.5627  36.4053

          k =-0.3333 0.5556-0.1111 (   408 PWs)   bands (ev):

     7.4964   9.0917   9.5099  10.1828  10.7241  11.7716  22.1900  27.0079
    30.8182  36.4691

          k = 0.5556-0.3333 0.7778 (   407 PWs)   bands (ev):

     8.1847   9.2012   9.6134  10.0695  11.0079  13.5675  17.8811  27.3816
    28.7421  36.0275

          k =-0.2222 0.6667 0.0000 (   407 PWs)   bands (ev):

     7.7388   8.7310   9.7457  10.7359  10.7564  11.9039  24.7069  25.3622
    26.8626  34.6385

          k = 0.6667-0.2222 0.8889 (   411 PWs)   bands (ev):

     8.3718   8.7772   9.5684  10.5373  11.0541  14.0710  20.3354  24.4801
    25.2693  35.4223

          k = 0.5556-0.1111 0.7778 (   407 PWs)   bands (ev):

     8.7207   8.8020   9.4135  10.3840  11.0225  16.1264  17.7219  22.9658
    26.3265  36.1253

          k = 0.4444 0.0000 0.6667 (   410 PWs)   bands (ev):

     8.4871   9.0787   9.1409  10.3952  10.7714  13.4700  21.3020  22.7537
    28.2293  37.4287

          k = 0.7778-0.1111 1.0000 (   412 PWs)   bands (ev):

     8.0708   8.4769  10.3203  10.8804  11.1731  14.5379  21.2755  23.3185
    24.0897  33.7677

          k = 0.6667-0.0000 0.8889 (   406 PWs)   bands (ev):

     8.3738   8.6675   9.8406  10.6410  11.1703  16.9314  19.5628  20.4944
    24.6235  35.0664

          k = 0.5556-0.1111 1.0000 (   404 PWs)   bands (ev):

     8.5622   8.9862   9.3031  10.5042  11.1711  16.7893  19.8632  21.7360
    22.5059  39.5686

     the Fermi energy is    12.7487 ev

!    total energy              =    -213.09530820 Ry
     Harris-Foulkes estimate   =    -213.09530820 Ry
     estimated scf accuracy    <          2.9E-10 Ry

     total all-electron energy =     -3309.975074 Ry

     The total energy is the sum of the following terms:

     one-electron contribution =     -28.01763860 Ry
     hartree contribution      =      30.62641473 Ry
     xc contribution           =     -44.63138770 Ry
     ewald contribution        =     -81.22522862 Ry
     one-center paw contrib.   =     -89.84737432 Ry
     smearing contrib. (-TS)   =      -0.00009370 Ry

     convergence has been achieved in   6 iterations

     Forces acting on atoms (cartesian axes, Ry/au):

     atom    1 type  1   force =     0.00000000    0.00000000    0.00000000

     Total force =     0.000000     Total SCF correction =     0.000000


     Computing stress (Cartesian axis) and pressure

          total   stress  (Ry/bohr**3)                   (kbar)     P=    0.18
   0.00000125   0.00000000   0.00000000          0.18      0.00      0.00
   0.00000000   0.00000125  -0.00000000          0.00      0.18     -0.00
   0.00000000  -0.00000000   0.00000125          0.00     -0.00      0.18


     Writing output data file Cu.save/

     init_run     :      0.34s CPU      0.36s WALL (       1 calls)
     electrons    :      2.07s CPU      2.26s WALL (       1 calls)
     forces       :      0.03s CPU      0.03s WALL (       1 calls)
     stress       :      0.08s CPU      0.08s WALL (       1 calls)

     Called by init_run:
     wfcinit      :      0.09s CPU      0.10s WALL (       1 calls)
     potinit      :      0.10s CPU      0.11s WALL (       1 calls)
     hinit0       :      0.12s CPU      0.12s WALL (       1 calls)

     Called by electrons:
     c_bands      :      1.21s CPU      1.30s WALL (       7 calls)
     sum_band     :      0.24s CPU      0.26s WALL (       7 calls)
     v_of_rho     :      0.02s CPU      0.02s WALL (       7 calls)
     newd         :      0.02s CPU      0.02s WALL (       7 calls)
     PAW_pot      :      0.67s CPU      0.76s WALL (       7 calls)
     mix_rho      :      0.00s CPU      0.00s WALL (       7 calls)

     Called by c_bands:
     init_us_2    :      0.03s CPU      0.04s WALL (     595 calls)
     cegterg      :      1.16s CPU      1.25s WALL (     245 calls)

     Called by sum_band:
     sum_band:bec :      0.00s CPU      0.00s WALL (     245 calls)
     addusdens    :      0.02s CPU      0.02s WALL (       7 calls)

     Called by *egterg:
     h_psi        :      0.95s CPU      1.02s WALL (     785 calls)
     s_psi        :      0.03s CPU      0.03s WALL (     785 calls)
     g_psi        :      0.00s CPU      0.00s WALL (     505 calls)
     cdiaghg      :      0.13s CPU      0.14s WALL (     715 calls)

     Called by h_psi:
     h_psi:pot    :      0.94s CPU      1.01s WALL (     785 calls)
     h_psi:calbec :      0.04s CPU      0.04s WALL (     785 calls)
     vloc_psi     :      0.87s CPU      0.93s WALL (     785 calls)
     add_vuspsi   :      0.03s CPU      0.03s WALL (     785 calls)

     General routines
     calbec       :      0.07s CPU      0.07s WALL (    1205 calls)
     fft          :      0.01s CPU      0.01s WALL (     104 calls)
     ffts         :      0.00s CPU      0.00s WALL (       7 calls)
     fftw         :      0.96s CPU      1.03s WALL (   14836 calls)

     Parallel routines
     fft_scatt_xy :      0.09s CPU      0.10s WALL (   14947 calls)
     fft_scatt_yz :      0.27s CPU      0.29s WALL (   14947 calls)

     PWSCF        :     3.28s CPU         3.57s WALL


   This run was terminated on:  23:23: 2  25Mar2024            

=------------------------------------------------------------------------------=
   JOB DONE.
=------------------------------------------------------------------------------=
