
     Program PWSCF v.6.3MaX starts on 25Mar2024 at 23:33:40 

     This program is part of the open-source Quantum ESPRESSO suite
     for quantum simulation of materials; please cite
         "P. Giannozzi et al., J. Phys.:Condens. Matter 21 395502 (2009);
         "P. Giannozzi et al., J. Phys.:Condens. Matter 29 465901 (2017);
          URL http://www.quantum-espresso.org", 
     in publications or presentations arising from this work. More details at
     http://www.quantum-espresso.org/quote

     Parallel version (MPI), running on     5 processors

     MPI processes distributed on     1 nodes
     R & G space division:  proc/nbgrp/npool/nimage =       5
     Waiting for input...
     Reading input from standard input

     Current dimensions of program PWSCF are:
     Max number of different atomic species (ntypx) = 10
     Max number of k-points (npk) =  40000
     Max angular momentum in pseudopotentials (lmaxx) =  3
               file Cu.pbe-dn-rrkjus_psl.1.0.0.UPF: wavefunction(s)  3D renormalized

     Subspace diagonalization in iterative solution of the eigenvalue problem:
     a serial algorithm will be used


     Parallelization info
     --------------------
     sticks:   dense  smooth     PW     G-vecs:    dense   smooth      PW
     Min          87      87     30                 1245     1245     227
     Max          88      88     31                 1247     1247     228
     Sum         439     439    151                 6231     6231    1139



     bravais-lattice index     =            2
     lattice parameter (alat)  =       6.8300  a.u.
     unit-cell volume          =      79.6530 (a.u.)^3
     number of atoms/cell      =            1
     number of atomic types    =            1
     number of electrons       =        11.00
     number of Kohn-Sham states=           10
     kinetic-energy cutoff     =      70.0000  Ry
     charge density cutoff     =     280.0000  Ry
     convergence threshold     =      1.0E-08
     mixing beta               =       0.7000
     number of iterations used =            8  plain     mixing
     Exchange-correlation      = PBE ( 1  4  3  4 0 0)

     celldm(1)=   6.830000  celldm(2)=   0.000000  celldm(3)=   0.000000
     celldm(4)=   0.000000  celldm(5)=   0.000000  celldm(6)=   0.000000

     crystal axes: (cart. coord. in units of alat)
               a(1) = (  -0.500000   0.000000   0.500000 )  
               a(2) = (   0.000000   0.500000   0.500000 )  
               a(3) = (  -0.500000   0.500000   0.000000 )  

     reciprocal axes: (cart. coord. in units 2 pi/alat)
               b(1) = ( -1.000000 -1.000000  1.000000 )  
               b(2) = (  1.000000  1.000000  1.000000 )  
               b(3) = ( -1.000000  1.000000 -1.000000 )  


     PseudoPot. # 1 for Cu read from file:
     /home/lorenzo/pseudos/Cu/Cu.pbe-dn-rrkjus_psl.1.0.0.UPF
     MD5 check sum: ba3d6c84e19846e79d48cdc68ff7152b
     Pseudo is Ultrasoft + core correction, Zval = 11.0
     Generated using "atomic" code by A. Dal Corso v.6.3
     Using radial grid of 1199 points,  6 beta functions with: 
                l(1) =   0
                l(2) =   0
                l(3) =   1
                l(4) =   1
                l(5) =   2
                l(6) =   2
     Q(r) pseudized with 0 coefficients 


     atomic species   valence    mass     pseudopotential
        Cu            11.00    63.54600     Cu( 1.00)

     48 Sym. Ops., with inversion, found



   Cartesian axes

     site n.     atom                  positions (alat units)
         1           Cu  tau(   1) = (   0.0000000   0.0000000   0.0000000  )

     number of k points=    10  gaussian smearing, width (Ry)=  0.0100
                       cart. coord. in units 2pi/alat
        k(    1) = (   0.0000000   0.0000000   0.0000000), wk =   0.0160000
        k(    2) = (  -0.2000000   0.2000000  -0.2000000), wk =   0.1280000
        k(    3) = (  -0.4000000   0.4000000  -0.4000000), wk =   0.1280000
        k(    4) = (   0.0000000   0.4000000   0.0000000), wk =   0.0960000
        k(    5) = (  -0.2000000   0.6000000  -0.2000000), wk =   0.3840000
        k(    6) = (   0.6000000  -0.2000000   0.6000000), wk =   0.3840000
        k(    7) = (   0.4000000   0.0000000   0.4000000), wk =   0.1920000
        k(    8) = (   0.0000000   0.8000000   0.0000000), wk =   0.0960000
        k(    9) = (   0.8000000   0.0000000   0.8000000), wk =   0.1920000
        k(   10) = (   0.6000000  -0.2000000   1.0000000), wk =   0.3840000

     Dense  grid:     6231 G-vectors     FFT dimensions: (  25,  25,  25)

     Estimated max dynamical RAM per process >       6.32 MB

     Estimated total dynamical RAM >      31.58 MB

     Initial potential from superposition of free atoms

     starting charge   10.99977, renormalised to   11.00000
     Starting wfcs are    9 randomized atomic wfcs +    1 random wfcs

     total cpu time spent up to now is        0.9 secs

     Self-consistent Calculation

     iteration #  1     ecut=    70.00 Ry     beta= 0.70
     Davidson diagonalization with overlap
     ethr =  1.00E-02,  avg # of iterations =  3.5

     Threshold (ethr) on eigenvalues was too large:
     Diagonalizing with lowered threshold

     Davidson diagonalization with overlap
     ethr =  5.48E-04,  avg # of iterations =  1.4

     total cpu time spent up to now is        1.1 secs

     total energy              =    -122.71797791 Ry
     Harris-Foulkes estimate   =    -122.76498947 Ry
     estimated scf accuracy    <       0.06000054 Ry

     iteration #  2     ecut=    70.00 Ry     beta= 0.70
     Davidson diagonalization with overlap
     ethr =  5.45E-04,  avg # of iterations =  2.0

     total cpu time spent up to now is        1.2 secs

     total energy              =    -122.72042669 Ry
     Harris-Foulkes estimate   =    -122.80401160 Ry
     estimated scf accuracy    <       0.21728960 Ry

     iteration #  3     ecut=    70.00 Ry     beta= 0.70
     Davidson diagonalization with overlap
     ethr =  5.45E-04,  avg # of iterations =  2.2

     total cpu time spent up to now is        1.3 secs

     total energy              =    -122.75406157 Ry
     Harris-Foulkes estimate   =    -122.75413884 Ry
     estimated scf accuracy    <       0.00019724 Ry

     iteration #  4     ecut=    70.00 Ry     beta= 0.70
     Davidson diagonalization with overlap
     ethr =  1.79E-06,  avg # of iterations =  2.3

     total cpu time spent up to now is        1.4 secs

     total energy              =    -122.75413834 Ry
     Harris-Foulkes estimate   =    -122.75414338 Ry
     estimated scf accuracy    <       0.00001636 Ry

     iteration #  5     ecut=    70.00 Ry     beta= 0.70
     Davidson diagonalization with overlap
     ethr =  1.49E-07,  avg # of iterations =  1.5

     total cpu time spent up to now is        1.5 secs

     total energy              =    -122.75414152 Ry
     Harris-Foulkes estimate   =    -122.75414158 Ry
     estimated scf accuracy    <       0.00000021 Ry

     iteration #  6     ecut=    70.00 Ry     beta= 0.70
     Davidson diagonalization with overlap
     ethr =  1.87E-09,  avg # of iterations =  2.4

     total cpu time spent up to now is        1.6 secs

     End of self-consistent calculation

          k = 0.0000 0.0000 0.0000 (   749 PWs)   bands (ev):

     3.2799   9.7297   9.7297   9.7297  10.5588  10.5588  35.5984  37.9992
    37.9992  37.9992

          k =-0.2000 0.2000-0.2000 (   794 PWs)   bands (ev):

     4.6838   9.5009   9.8912   9.8912  10.5586  10.5586  27.6311  35.7455
    35.9086  35.9086

          k =-0.4000 0.4000-0.4000 (   790 PWs)   bands (ev):

     7.3484   9.7385   9.7385  10.4322  11.0297  11.0297  18.6460  34.2738
    34.8415  34.8415

          k = 0.0000 0.4000 0.0000 (   801 PWs)   bands (ev):

     5.1336   9.2217  10.1538  10.1741  10.1741  10.7486  31.3312  31.3312
    32.4117  33.4785

          k =-0.2000 0.6000-0.2000 (   797 PWs)   bands (ev):

     7.5126   8.9860   9.6796  10.2503  11.1002  11.5998  22.2488  29.0052
    29.5759  32.7173

          k = 0.6000-0.2000 0.6000 (   785 PWs)   bands (ev):

     8.2892   9.2292   9.7148  10.0963  11.0044  14.1602  17.3279  25.8812
    31.2169  33.3107

          k = 0.4000 0.0000 0.4000 (   789 PWs)   bands (ev):

     6.7177   9.2214   9.7045  10.2145  10.3169  11.4310  25.0238  25.8296
    35.9335  36.1656

          k = 0.0000 0.8000 0.0000 (   789 PWs)   bands (ev):

     7.7762   8.4410  11.0621  11.0936  11.0936  12.0996  22.8556  26.4769
    26.4769  30.4959

          k = 0.8000 0.0000 0.8000 (   782 PWs)   bands (ev):

     8.2408   8.5558  10.2716  10.8210  11.1580  16.1583  19.9061  20.4151
    27.1264  31.7408

          k = 0.6000-0.2000 1.0000 (   776 PWs)   bands (ev):

     8.5692   8.9388   9.3671  10.5974  11.0884  14.8987  20.9513  22.4552
    24.2858  38.5884

     the Fermi energy is    12.1199 ev

!    total energy              =    -122.75414157 Ry
     Harris-Foulkes estimate   =    -122.75414157 Ry
     estimated scf accuracy    <          6.6E-10 Ry

     The total energy is the sum of the following terms:

     one-electron contribution =     -27.54236100 Ry
     hartree contribution      =      30.64879588 Ry
     xc contribution           =     -44.63508302 Ry
     ewald contribution        =     -81.22522855 Ry
     smearing contrib. (-TS)   =      -0.00026488 Ry

     convergence has been achieved in   6 iterations

     Forces acting on atoms (cartesian axes, Ry/au):

     atom    1 type  1   force =     0.00000000    0.00000000    0.00000000

     Total force =     0.000000     Total SCF correction =     0.000000


     Computing stress (Cartesian axis) and pressure

          total   stress  (Ry/bohr**3)                   (kbar)     P=   19.15
   0.00013015  -0.00000000   0.00000000         19.15     -0.00      0.00
  -0.00000000   0.00013015  -0.00000000         -0.00     19.15     -0.00
   0.00000000  -0.00000000   0.00013015          0.00     -0.00     19.15


     Writing output data file Cu.save/

     init_run     :      0.25s CPU      0.26s WALL (       1 calls)
     electrons    :      0.63s CPU      0.66s WALL (       1 calls)
     forces       :      0.03s CPU      0.03s WALL (       1 calls)
     stress       :      0.11s CPU      0.11s WALL (       1 calls)

     Called by init_run:
     wfcinit      :      0.04s CPU      0.04s WALL (       1 calls)
     potinit      :      0.01s CPU      0.01s WALL (       1 calls)
     hinit0       :      0.19s CPU      0.20s WALL (       1 calls)

     Called by electrons:
     c_bands      :      0.45s CPU      0.47s WALL (       7 calls)
     sum_band     :      0.12s CPU      0.13s WALL (       7 calls)
     v_of_rho     :      0.02s CPU      0.02s WALL (       7 calls)
     newd         :      0.04s CPU      0.04s WALL (       7 calls)
     mix_rho      :      0.00s CPU      0.00s WALL (       7 calls)

     Called by c_bands:
     init_us_2    :      0.02s CPU      0.02s WALL (     170 calls)
     cegterg      :      0.43s CPU      0.45s WALL (      70 calls)

     Called by sum_band:
     sum_band:bec :      0.00s CPU      0.00s WALL (      70 calls)
     addusdens    :      0.04s CPU      0.04s WALL (       7 calls)

     Called by *egterg:
     h_psi        :      0.35s CPU      0.37s WALL (     233 calls)
     s_psi        :      0.01s CPU      0.01s WALL (     233 calls)
     g_psi        :      0.00s CPU      0.00s WALL (     153 calls)
     cdiaghg      :      0.04s CPU      0.04s WALL (     213 calls)

     Called by h_psi:
     h_psi:pot    :      0.35s CPU      0.37s WALL (     233 calls)
     h_psi:calbec :      0.02s CPU      0.02s WALL (     233 calls)
     vloc_psi     :      0.32s CPU      0.33s WALL (     233 calls)
     add_vuspsi   :      0.01s CPU      0.01s WALL (     233 calls)

     General routines
     calbec       :      0.03s CPU      0.03s WALL (     353 calls)
     fft          :      0.02s CPU      0.02s WALL (     104 calls)
     ffts         :      0.00s CPU      0.00s WALL (       7 calls)
     fftw         :      0.36s CPU      0.37s WALL (    4256 calls)

     Parallel routines
     fft_scatt_xy :      0.03s CPU      0.03s WALL (    4367 calls)
     fft_scatt_yz :      0.10s CPU      0.10s WALL (    4367 calls)

     PWSCF        :     1.70s CPU         1.78s WALL


   This run was terminated on:  23:33:42  25Mar2024            

=------------------------------------------------------------------------------=
   JOB DONE.
=------------------------------------------------------------------------------=
