
     Program PWSCF v.6.3MaX starts on 25Mar2024 at 23:11:16 

     This program is part of the open-source Quantum ESPRESSO suite
     for quantum simulation of materials; please cite
         "P. Giannozzi et al., J. Phys.:Condens. Matter 21 395502 (2009);
         "P. Giannozzi et al., J. Phys.:Condens. Matter 29 465901 (2017);
          URL http://www.quantum-espresso.org", 
     in publications or presentations arising from this work. More details at
     http://www.quantum-espresso.org/quote

     Parallel version (MPI), running on     5 processors

     MPI processes distributed on     1 nodes
     R & G space division:  proc/nbgrp/npool/nimage =       5
     Waiting for input...
     Reading input from standard input

     Current dimensions of program PWSCF are:
     Max number of different atomic species (ntypx) = 10
     Max number of k-points (npk) =  40000
     Max angular momentum in pseudopotentials (lmaxx) =  3
               file Cu.pbe-dn-rrkjus_psl.1.0.0.UPF: wavefunction(s)  3D renormalized

     Subspace diagonalization in iterative solution of the eigenvalue problem:
     a serial algorithm will be used


     Parallelization info
     --------------------
     sticks:   dense  smooth     PW     G-vecs:    dense   smooth      PW
     Min          18      18      7                  121      121      33
     Max          19      19      8                  123      123      35
     Sum          91      91     37                  609      609     169



     bravais-lattice index     =            2
     lattice parameter (alat)  =       6.8300  a.u.
     unit-cell volume          =      79.6530 (a.u.)^3
     number of atoms/cell      =            1
     number of atomic types    =            1
     number of electrons       =        11.00
     number of Kohn-Sham states=           10
     kinetic-energy cutoff     =      15.0000  Ry
     charge density cutoff     =      60.0000  Ry
     convergence threshold     =      1.0E-08
     mixing beta               =       0.7000
     number of iterations used =            8  plain     mixing
     Exchange-correlation      = PBE ( 1  4  3  4 0 0)

     celldm(1)=   6.830000  celldm(2)=   0.000000  celldm(3)=   0.000000
     celldm(4)=   0.000000  celldm(5)=   0.000000  celldm(6)=   0.000000

     crystal axes: (cart. coord. in units of alat)
               a(1) = (  -0.500000   0.000000   0.500000 )  
               a(2) = (   0.000000   0.500000   0.500000 )  
               a(3) = (  -0.500000   0.500000   0.000000 )  

     reciprocal axes: (cart. coord. in units 2 pi/alat)
               b(1) = ( -1.000000 -1.000000  1.000000 )  
               b(2) = (  1.000000  1.000000  1.000000 )  
               b(3) = ( -1.000000  1.000000 -1.000000 )  


     PseudoPot. # 1 for Cu read from file:
     /home/lorenzo/pseudos/Cu/Cu.pbe-dn-rrkjus_psl.1.0.0.UPF
     MD5 check sum: ba3d6c84e19846e79d48cdc68ff7152b
     Pseudo is Ultrasoft + core correction, Zval = 11.0
     Generated using "atomic" code by A. Dal Corso v.6.3
     Using radial grid of 1199 points,  6 beta functions with: 
                l(1) =   0
                l(2) =   0
                l(3) =   1
                l(4) =   1
                l(5) =   2
                l(6) =   2
     Q(r) pseudized with 0 coefficients 


     atomic species   valence    mass     pseudopotential
        Cu            11.00    63.54600     Cu( 1.00)

     48 Sym. Ops., with inversion, found



   Cartesian axes

     site n.     atom                  positions (alat units)
         1           Cu  tau(   1) = (   0.0000000   0.0000000   0.0000000  )

     number of k points=    10  gaussian smearing, width (Ry)=  0.0100
                       cart. coord. in units 2pi/alat
        k(    1) = (   0.0000000   0.0000000   0.0000000), wk =   0.0160000
        k(    2) = (  -0.2000000   0.2000000  -0.2000000), wk =   0.1280000
        k(    3) = (  -0.4000000   0.4000000  -0.4000000), wk =   0.1280000
        k(    4) = (   0.0000000   0.4000000   0.0000000), wk =   0.0960000
        k(    5) = (  -0.2000000   0.6000000  -0.2000000), wk =   0.3840000
        k(    6) = (   0.6000000  -0.2000000   0.6000000), wk =   0.3840000
        k(    7) = (   0.4000000   0.0000000   0.4000000), wk =   0.1920000
        k(    8) = (   0.0000000   0.8000000   0.0000000), wk =   0.0960000
        k(    9) = (   0.8000000   0.0000000   0.8000000), wk =   0.1920000
        k(   10) = (   0.6000000  -0.2000000   1.0000000), wk =   0.3840000

     Dense  grid:      609 G-vectors     FFT dimensions: (  12,  12,  12)

     Estimated max dynamical RAM per process >       1.17 MB

     Estimated total dynamical RAM >       5.83 MB

     Check: negative/imaginary core charge=   -0.001143    0.000000

     Initial potential from superposition of free atoms

     starting charge   10.99977, renormalised to   11.00000
     Starting wfcs are    9 randomized atomic wfcs +    1 random wfcs

     total cpu time spent up to now is        0.8 secs

     Self-consistent Calculation

     iteration #  1     ecut=    15.00 Ry     beta= 0.70
     Davidson diagonalization with overlap
     ethr =  1.00E-02,  avg # of iterations =  4.0

     total cpu time spent up to now is        0.8 secs

     total energy              =    -117.91183879 Ry
     Harris-Foulkes estimate   =    -120.75222457 Ry
     estimated scf accuracy    <       3.45995280 Ry

     iteration #  2     ecut=    15.00 Ry     beta= 0.70
     Davidson diagonalization with overlap
     ethr =  1.00E-02,  avg # of iterations =  2.3

     total cpu time spent up to now is        0.9 secs

     total energy              =    -119.54246221 Ry
     Harris-Foulkes estimate   =    -120.34563529 Ry
     estimated scf accuracy    <       1.41275738 Ry

     iteration #  3     ecut=    15.00 Ry     beta= 0.70
     Davidson diagonalization with overlap
     ethr =  1.00E-02,  avg # of iterations =  1.5

     total cpu time spent up to now is        0.9 secs

     total energy              =    -119.61670549 Ry
     Harris-Foulkes estimate   =    -119.68982227 Ry
     estimated scf accuracy    <       0.10825869 Ry

     iteration #  4     ecut=    15.00 Ry     beta= 0.70
     Davidson diagonalization with overlap
     ethr =  9.84E-04,  avg # of iterations =  2.4

     total cpu time spent up to now is        0.9 secs

     total energy              =    -119.63540165 Ry
     Harris-Foulkes estimate   =    -119.69218612 Ry
     estimated scf accuracy    <       0.10352024 Ry

     iteration #  5     ecut=    15.00 Ry     beta= 0.70
     Davidson diagonalization with overlap
     ethr =  9.41E-04,  avg # of iterations =  1.8

     total cpu time spent up to now is        1.0 secs

     total energy              =    -119.65598989 Ry
     Harris-Foulkes estimate   =    -119.65581184 Ry
     estimated scf accuracy    <       0.00006535 Ry

     iteration #  6     ecut=    15.00 Ry     beta= 0.70
     Davidson diagonalization with overlap
     ethr =  5.94E-07,  avg # of iterations =  3.0

     total cpu time spent up to now is        1.0 secs

     total energy              =    -119.65582742 Ry
     Harris-Foulkes estimate   =    -119.65619173 Ry
     estimated scf accuracy    <       0.00062339 Ry

     iteration #  7     ecut=    15.00 Ry     beta= 0.70
     Davidson diagonalization with overlap
     ethr =  5.94E-07,  avg # of iterations =  2.2

     total cpu time spent up to now is        1.0 secs

     total energy              =    -119.65595169 Ry
     Harris-Foulkes estimate   =    -119.65595174 Ry
     estimated scf accuracy    <       0.00000023 Ry

     iteration #  8     ecut=    15.00 Ry     beta= 0.70
     Davidson diagonalization with overlap
     ethr =  2.12E-09,  avg # of iterations =  1.2

     total cpu time spent up to now is        1.0 secs

     total energy              =    -119.65595170 Ry
     Harris-Foulkes estimate   =    -119.65595172 Ry
     estimated scf accuracy    <       0.00000003 Ry

     iteration #  9     ecut=    15.00 Ry     beta= 0.70
     Davidson diagonalization with overlap
     ethr =  2.92E-10,  avg # of iterations =  2.3

     total cpu time spent up to now is        1.1 secs

     End of self-consistent calculation

          k = 0.0000 0.0000 0.0000 (    65 PWs)   bands (ev):

     3.5613   8.1315   8.1315   9.2516   9.2516   9.2516  37.0753  37.0753
    37.0753  37.1956

          k =-0.2000 0.2000-0.2000 (    77 PWs)   bands (ev):

     4.8241   5.5498   5.5498   7.0617   8.1081   8.1081  28.3712  36.0031
    36.0031  37.4300

          k =-0.4000 0.4000-0.4000 (    74 PWs)   bands (ev):

     5.8950   6.5639   6.5639   8.1757   8.1757  10.2165  18.8124  34.0192
    34.0192  35.6619

          k = 0.0000 0.4000 0.0000 (    76 PWs)   bands (ev):

     5.1759   6.2764   6.2764   7.2196   7.2258   8.1167  31.4281  31.4281
    34.2204  36.0824

          k =-0.2000 0.6000-0.2000 (    77 PWs)   bands (ev):

     5.6782   6.2060   6.3434   7.4148   7.5903   9.9771  22.5009  29.5175
    29.7002  35.0000

          k = 0.6000-0.2000 0.6000 (    79 PWs)   bands (ev):

     5.3572   6.0841   6.2399   6.8492   7.2297  13.6307  17.0409  26.2253
    31.1600  35.1448

          k = 0.4000 0.0000 0.4000 (    79 PWs)   bands (ev):

     5.6537   5.7312   6.0957   6.3632   7.6258   8.6006  25.7687  25.9141
    35.8440  37.4004

          k = 0.0000 0.8000 0.0000 (    80 PWs)   bands (ev):

     5.2868   5.3430   6.5560   6.5560   7.3995  11.8799  23.0557  26.2315
    26.2315  33.4518

          k = 0.8000 0.0000 0.8000 (    77 PWs)   bands (ev):

     6.2721   6.4686   6.7305   6.9576   7.4120  16.1434  20.0444  20.7985
    26.9458  34.9420

          k = 0.6000-0.2000 1.0000 (    84 PWs)   bands (ev):

     4.8072   5.3092   5.4963   6.2992   6.4457  14.1249  21.2490  21.9965
    24.6821  39.5382

     the Fermi energy is    11.9001 ev

!    total energy              =    -119.65595171 Ry
     Harris-Foulkes estimate   =    -119.65595171 Ry
     estimated scf accuracy    <          6.1E-09 Ry

     The total energy is the sum of the following terms:

     one-electron contribution =     -20.52419176 Ry
     hartree contribution      =      25.00724410 Ry
     xc contribution           =     -42.91350730 Ry
     ewald contribution        =     -81.22523186 Ry
     smearing contrib. (-TS)   =      -0.00026488 Ry

     convergence has been achieved in   9 iterations

     Forces acting on atoms (cartesian axes, Ry/au):

     atom    1 type  1   force =     0.00000000    0.00000000    0.00000000

     Total force =     0.000000     Total SCF correction =     0.000000


     Computing stress (Cartesian axis) and pressure

          total   stress  (Ry/bohr**3)                   (kbar)     P=********
  -0.11735538  -0.00000000  -0.00000000     -17263.57     -0.00     -0.00
  -0.00000000  -0.11735538   0.00000000         -0.00 -17263.57      0.00
   0.00000000   0.00000000  -0.11735538          0.00      0.00 -17263.57


     Writing output data file Cu.save/

     init_run     :      0.07s CPU      0.07s WALL (       1 calls)
     electrons    :      0.24s CPU      0.27s WALL (       1 calls)
     forces       :      0.01s CPU      0.01s WALL (       1 calls)
     stress       :      0.01s CPU      0.01s WALL (       1 calls)

     Called by init_run:
     wfcinit      :      0.00s CPU      0.01s WALL (       1 calls)
     potinit      :      0.00s CPU      0.00s WALL (       1 calls)
     hinit0       :      0.06s CPU      0.06s WALL (       1 calls)

     Called by electrons:
     c_bands      :      0.20s CPU      0.23s WALL (       9 calls)
     sum_band     :      0.03s CPU      0.03s WALL (       9 calls)
     v_of_rho     :      0.00s CPU      0.01s WALL (      10 calls)
     newd         :      0.01s CPU      0.01s WALL (      10 calls)
     mix_rho      :      0.00s CPU      0.00s WALL (       9 calls)

     Called by c_bands:
     init_us_2    :      0.00s CPU      0.00s WALL (     210 calls)
     cegterg      :      0.19s CPU      0.22s WALL (      90 calls)

     Called by sum_band:
     sum_band:bec :      0.00s CPU      0.00s WALL (      90 calls)
     addusdens    :      0.01s CPU      0.01s WALL (       9 calls)

     Called by *egterg:
     h_psi        :      0.11s CPU      0.13s WALL (     307 calls)
     s_psi        :      0.00s CPU      0.00s WALL (     307 calls)
     g_psi        :      0.00s CPU      0.00s WALL (     207 calls)
     cdiaghg      :      0.05s CPU      0.06s WALL (     297 calls)

     Called by h_psi:
     h_psi:pot    :      0.11s CPU      0.13s WALL (     307 calls)
     h_psi:calbec :      0.01s CPU      0.01s WALL (     307 calls)
     vloc_psi     :      0.10s CPU      0.11s WALL (     307 calls)
     add_vuspsi   :      0.00s CPU      0.00s WALL (     307 calls)

     General routines
     calbec       :      0.01s CPU      0.01s WALL (     447 calls)
     fft          :      0.00s CPU      0.00s WALL (     136 calls)
     ffts         :      0.00s CPU      0.00s WALL (       9 calls)
     fftw         :      0.10s CPU      0.12s WALL (    5748 calls)

     Parallel routines
     fft_scatt_xy :      0.01s CPU      0.01s WALL (    5893 calls)
     fft_scatt_yz :      0.05s CPU      0.06s WALL (    5893 calls)

     PWSCF        :     1.05s CPU         1.13s WALL


   This run was terminated on:  23:11:17  25Mar2024            

=------------------------------------------------------------------------------=
   JOB DONE.
=------------------------------------------------------------------------------=
