
     Program PWSCF v.6.3MaX starts on 25Mar2024 at 23:24: 3 

     This program is part of the open-source Quantum ESPRESSO suite
     for quantum simulation of materials; please cite
         "P. Giannozzi et al., J. Phys.:Condens. Matter 21 395502 (2009);
         "P. Giannozzi et al., J. Phys.:Condens. Matter 29 465901 (2017);
          URL http://www.quantum-espresso.org", 
     in publications or presentations arising from this work. More details at
     http://www.quantum-espresso.org/quote

     Parallel version (MPI), running on     5 processors

     MPI processes distributed on     1 nodes
     R & G space division:  proc/nbgrp/npool/nimage =       5
     Waiting for input...
     Reading input from standard input

     Current dimensions of program PWSCF are:
     Max number of different atomic species (ntypx) = 10
     Max number of k-points (npk) =  40000
     Max angular momentum in pseudopotentials (lmaxx) =  3
               file Cu.pbesol-dn-kjpaw_psl.1.0.0.UPF: wavefunction(s)  4S 3D renormalized

     Subspace diagonalization in iterative solution of the eigenvalue problem:
     a serial algorithm will be used


     Parallelization info
     --------------------
     sticks:   dense  smooth     PW     G-vecs:    dense   smooth      PW
     Min          62      62     21                  765      765     140
     Max          63      63     22                  770      770     141
     Sum         313     313    109                 3839     3839     701



     bravais-lattice index     =            2
     lattice parameter (alat)  =       6.8300  a.u.
     unit-cell volume          =      79.6530 (a.u.)^3
     number of atoms/cell      =            1
     number of atomic types    =            1
     number of electrons       =        11.00
     number of Kohn-Sham states=           10
     kinetic-energy cutoff     =      50.0000  Ry
     charge density cutoff     =     200.0000  Ry
     convergence threshold     =      1.0E-08
     mixing beta               =       0.7000
     number of iterations used =            8  plain     mixing
     Exchange-correlation      = SLA PW PSX PSC ( 1  4 10  8 0 0)

     celldm(1)=   6.830000  celldm(2)=   0.000000  celldm(3)=   0.000000
     celldm(4)=   0.000000  celldm(5)=   0.000000  celldm(6)=   0.000000

     crystal axes: (cart. coord. in units of alat)
               a(1) = (  -0.500000   0.000000   0.500000 )  
               a(2) = (   0.000000   0.500000   0.500000 )  
               a(3) = (  -0.500000   0.500000   0.000000 )  

     reciprocal axes: (cart. coord. in units 2 pi/alat)
               b(1) = ( -1.000000 -1.000000  1.000000 )  
               b(2) = (  1.000000  1.000000  1.000000 )  
               b(3) = ( -1.000000  1.000000 -1.000000 )  


     PseudoPot. # 1 for Cu read from file:
     /home/lorenzo/pseudos/Cu/Cu.pbesol-dn-kjpaw_psl.1.0.0.UPF
     MD5 check sum: 1e9735a74797514c934643dbd229f231
     Pseudo is Projector augmented-wave + core cor, Zval = 11.0
     Generated using "atomic" code by A. Dal Corso v.6.3
     Shape of augmentation charge: PSQ
     Using radial grid of 1199 points,  6 beta functions with: 
                l(1) =   0
                l(2) =   0
                l(3) =   1
                l(4) =   1
                l(5) =   2
                l(6) =   2
     Q(r) pseudized with 0 coefficients 


     atomic species   valence    mass     pseudopotential
        Cu            11.00    63.54600     Cu( 1.00)

     48 Sym. Ops., with inversion, found



   Cartesian axes

     site n.     atom                  positions (alat units)
         1           Cu  tau(   1) = (   0.0000000   0.0000000   0.0000000  )

     number of k points=     3  gaussian smearing, width (Ry)=  0.0100
                       cart. coord. in units 2pi/alat
        k(    1) = (   0.0000000   0.0000000   0.0000000), wk =   0.2500000
        k(    2) = (   0.5000000  -0.5000000   0.5000000), wk =   1.0000000
        k(    3) = (   0.0000000  -1.0000000   0.0000000), wk =   0.7500000

     Dense  grid:     3839 G-vectors     FFT dimensions: (  24,  24,  24)

     Estimated max dynamical RAM per process >       4.20 MB

     Estimated total dynamical RAM >      20.99 MB

     Check: negative/imaginary core charge=   -0.000002    0.000000

     Initial potential from superposition of free atoms

     starting charge   10.99979, renormalised to   11.00000
     Starting wfcs are    9 randomized atomic wfcs +    1 random wfcs
     Checking if some PAW data can be deallocated... 

     total cpu time spent up to now is        1.0 secs

     Self-consistent Calculation

     iteration #  1     ecut=    50.00 Ry     beta= 0.70
     Davidson diagonalization with overlap
     ethr =  1.00E-02,  avg # of iterations =  3.3

     Threshold (ethr) on eigenvalues was too large:
     Diagonalizing with lowered threshold

     Davidson diagonalization with overlap
     ethr =  6.27E-04,  avg # of iterations =  1.0

     total cpu time spent up to now is        1.2 secs

     total energy              =    -210.22957715 Ry
     Harris-Foulkes estimate   =    -210.28291591 Ry
     estimated scf accuracy    <       0.06915200 Ry

     iteration #  2     ecut=    50.00 Ry     beta= 0.70
     Davidson diagonalization with overlap
     ethr =  6.29E-04,  avg # of iterations =  2.7

     total cpu time spent up to now is        1.3 secs

     total energy              =    -210.23984785 Ry
     Harris-Foulkes estimate   =    -210.34079269 Ry
     estimated scf accuracy    <       0.26708276 Ry

     iteration #  3     ecut=    50.00 Ry     beta= 0.70
     Davidson diagonalization with overlap
     ethr =  6.29E-04,  avg # of iterations =  2.7

     total cpu time spent up to now is        1.5 secs

     total energy              =    -210.26685716 Ry
     Harris-Foulkes estimate   =    -210.27117141 Ry
     estimated scf accuracy    <       0.01181005 Ry

     iteration #  4     ecut=    50.00 Ry     beta= 0.70
     Davidson diagonalization with overlap
     ethr =  1.07E-04,  avg # of iterations =  1.7

     total cpu time spent up to now is        1.6 secs

     total energy              =    -210.26701277 Ry
     Harris-Foulkes estimate   =    -210.27079830 Ry
     estimated scf accuracy    <       0.01972226 Ry

     iteration #  5     ecut=    50.00 Ry     beta= 0.70
     Davidson diagonalization with overlap
     ethr =  1.07E-04,  avg # of iterations =  1.0

     total cpu time spent up to now is        1.7 secs

     total energy              =    -210.26921587 Ry
     Harris-Foulkes estimate   =    -210.26973653 Ry
     estimated scf accuracy    <       0.00482538 Ry

     iteration #  6     ecut=    50.00 Ry     beta= 0.70
     Davidson diagonalization with overlap
     ethr =  4.39E-05,  avg # of iterations =  1.0

     total cpu time spent up to now is        1.9 secs

     total energy              =    -210.26928375 Ry
     Harris-Foulkes estimate   =    -210.26936170 Ry
     estimated scf accuracy    <       0.00052166 Ry

     iteration #  7     ecut=    50.00 Ry     beta= 0.70
     Davidson diagonalization with overlap
     ethr =  4.74E-06,  avg # of iterations =  1.0

     total cpu time spent up to now is        2.0 secs

     total energy              =    -210.26932877 Ry
     Harris-Foulkes estimate   =    -210.26933684 Ry
     estimated scf accuracy    <       0.00007933 Ry

     iteration #  8     ecut=    50.00 Ry     beta= 0.70
     Davidson diagonalization with overlap
     ethr =  7.21E-07,  avg # of iterations =  1.0

     total cpu time spent up to now is        2.1 secs

     total energy              =    -210.26933275 Ry
     Harris-Foulkes estimate   =    -210.26933276 Ry
     estimated scf accuracy    <       0.00000017 Ry

     iteration #  9     ecut=    50.00 Ry     beta= 0.70
     Davidson diagonalization with overlap
     ethr =  1.53E-09,  avg # of iterations =  2.3

     total cpu time spent up to now is        2.3 secs

     total energy              =    -210.26933292 Ry
     Harris-Foulkes estimate   =    -210.26933292 Ry
     estimated scf accuracy    <       0.00000001 Ry

     iteration # 10     ecut=    50.00 Ry     beta= 0.70
     Davidson diagonalization with overlap
     ethr =  1.13E-10,  avg # of iterations =  2.3

     total cpu time spent up to now is        2.4 secs

     total energy              =    -210.26933290 Ry
     Harris-Foulkes estimate   =    -210.26933306 Ry
     estimated scf accuracy    <       0.00000247 Ry

     iteration # 11     ecut=    50.00 Ry     beta= 0.70
     Davidson diagonalization with overlap
     ethr =  1.13E-10,  avg # of iterations =  2.0

     total cpu time spent up to now is        2.6 secs

     total energy              =    -210.26933292 Ry
     Harris-Foulkes estimate   =    -210.26933295 Ry
     estimated scf accuracy    <       0.00000040 Ry

     iteration # 12     ecut=    50.00 Ry     beta= 0.70
     Davidson diagonalization with overlap
     ethr =  1.13E-10,  avg # of iterations =  1.0

     total cpu time spent up to now is        2.7 secs

     total energy              =    -210.26933292 Ry
     Harris-Foulkes estimate   =    -210.26933293 Ry
     estimated scf accuracy    <       0.00000005 Ry

     iteration # 13     ecut=    50.00 Ry     beta= 0.70
     Davidson diagonalization with overlap
     ethr =  1.13E-10,  avg # of iterations =  1.0

     total cpu time spent up to now is        2.9 secs

     total energy              =    -210.26933292 Ry
     Harris-Foulkes estimate   =    -210.26933292 Ry
     estimated scf accuracy    <       0.00000002 Ry

     iteration # 14     ecut=    50.00 Ry     beta= 0.70
     Davidson diagonalization with overlap
     ethr =  1.13E-10,  avg # of iterations =  1.0

     total cpu time spent up to now is        3.0 secs

     End of self-consistent calculation

          k = 0.0000 0.0000 0.0000 (   531 PWs)   bands (ev):

     3.0508   9.7552   9.7552   9.7552  10.6426  10.6426  35.3277  37.7933
    37.7933  37.7933

          k = 0.5000-0.5000 0.5000 (   476 PWs)   bands (ev):

     7.5404   9.7356   9.7356  11.2183  11.2183  11.4141  16.3816  33.7721
    34.5440  34.5440

          k = 0.0000-1.0000 0.0000 (   468 PWs)   bands (ev):

     7.8086   8.2929  11.2164  11.3551  11.3551  13.9069  19.7147  25.5473
    25.5473  30.1370

     the Fermi energy is    11.5084 ev

!    total energy              =    -210.26933292 Ry
     Harris-Foulkes estimate   =    -210.26933292 Ry
     estimated scf accuracy    <          8.1E-09 Ry

     total all-electron energy =     -3307.148394 Ry

     The total energy is the sum of the following terms:

     one-electron contribution =     -28.00850383 Ry
     hartree contribution      =      30.72753532 Ry
     xc contribution           =     -44.16858428 Ry
     ewald contribution        =     -81.22522859 Ry
     one-center paw contrib.   =     -87.59153917 Ry
     smearing contrib. (-TS)   =      -0.00301237 Ry

     convergence has been achieved in  14 iterations

     Forces acting on atoms (cartesian axes, Ry/au):

     atom    1 type  1   force =     0.00000000    0.00000000    0.00000000

     Total force =     0.000000     Total SCF correction =     0.000000


     Computing stress (Cartesian axis) and pressure

          total   stress  (Ry/bohr**3)                   (kbar)     P=  168.77
   0.00114729  -0.00000000  -0.00000000        168.77     -0.00     -0.00
  -0.00000000   0.00114729   0.00000000         -0.00    168.77      0.00
  -0.00000000   0.00000000   0.00114729         -0.00      0.00    168.77


     Writing output data file Cu.save/

     init_run     :      0.27s CPU      0.28s WALL (       1 calls)
     electrons    :      1.77s CPU      1.97s WALL (       1 calls)
     forces       :      0.02s CPU      0.02s WALL (       1 calls)
     stress       :      0.06s CPU      0.06s WALL (       1 calls)

     Called by init_run:
     wfcinit      :      0.01s CPU      0.01s WALL (       1 calls)
     potinit      :      0.11s CPU      0.12s WALL (       1 calls)
     hinit0       :      0.13s CPU      0.13s WALL (       1 calls)

     Called by electrons:
     c_bands      :      0.20s CPU      0.22s WALL (      15 calls)
     sum_band     :      0.12s CPU      0.13s WALL (      15 calls)
     v_of_rho     :      0.05s CPU      0.05s WALL (      15 calls)
     newd         :      0.06s CPU      0.06s WALL (      15 calls)
     PAW_pot      :      1.44s CPU      1.62s WALL (      15 calls)
     mix_rho      :      0.01s CPU      0.01s WALL (      15 calls)

     Called by c_bands:
     init_us_2    :      0.01s CPU      0.01s WALL (      99 calls)
     cegterg      :      0.19s CPU      0.21s WALL (      45 calls)

     Called by sum_band:
     sum_band:bec :      0.00s CPU      0.00s WALL (      45 calls)
     addusdens    :      0.06s CPU      0.06s WALL (      15 calls)

     Called by *egterg:
     h_psi        :      0.15s CPU      0.16s WALL (     123 calls)
     s_psi        :      0.00s CPU      0.01s WALL (     123 calls)
     g_psi        :      0.00s CPU      0.00s WALL (      75 calls)
     cdiaghg      :      0.02s CPU      0.02s WALL (     117 calls)

     Called by h_psi:
     h_psi:pot    :      0.15s CPU      0.16s WALL (     123 calls)
     h_psi:calbec :      0.01s CPU      0.01s WALL (     123 calls)
     vloc_psi     :      0.14s CPU      0.15s WALL (     123 calls)
     add_vuspsi   :      0.00s CPU      0.00s WALL (     123 calls)

     General routines
     calbec       :      0.01s CPU      0.01s WALL (     183 calls)
     fft          :      0.02s CPU      0.03s WALL (     192 calls)
     ffts         :      0.00s CPU      0.00s WALL (      15 calls)
     fftw         :      0.16s CPU      0.17s WALL (    2518 calls)

     Parallel routines
     fft_scatt_xy :      0.02s CPU      0.02s WALL (    2725 calls)
     fft_scatt_yz :      0.06s CPU      0.06s WALL (    2725 calls)

     PWSCF        :     2.87s CPU         3.11s WALL


   This run was terminated on:  23:24: 6  25Mar2024            

=------------------------------------------------------------------------------=
   JOB DONE.
=------------------------------------------------------------------------------=
