
     Program PWSCF v.6.3MaX starts on 25Mar2024 at 23:20: 1 

     This program is part of the open-source Quantum ESPRESSO suite
     for quantum simulation of materials; please cite
         "P. Giannozzi et al., J. Phys.:Condens. Matter 21 395502 (2009);
         "P. Giannozzi et al., J. Phys.:Condens. Matter 29 465901 (2017);
          URL http://www.quantum-espresso.org", 
     in publications or presentations arising from this work. More details at
     http://www.quantum-espresso.org/quote

     Parallel version (MPI), running on     5 processors

     MPI processes distributed on     1 nodes
     R & G space division:  proc/nbgrp/npool/nimage =       5
     Waiting for input...
     Reading input from standard input

     Current dimensions of program PWSCF are:
     Max number of different atomic species (ntypx) = 10
     Max number of k-points (npk) =  40000
     Max angular momentum in pseudopotentials (lmaxx) =  3
               file Cu.pbesol-dn-kjpaw_psl.1.0.0.UPF: wavefunction(s)  4S 3D renormalized

     Subspace diagonalization in iterative solution of the eigenvalue problem:
     a serial algorithm will be used


     Parallelization info
     --------------------
     sticks:   dense  smooth     PW     G-vecs:    dense   smooth      PW
     Min          50      50     17                  544      544     106
     Max          51      51     17                  548      548     107
     Sum         253     253     85                 2733     2733     531



     bravais-lattice index     =            2
     lattice parameter (alat)  =       6.8300  a.u.
     unit-cell volume          =      79.6530 (a.u.)^3
     number of atoms/cell      =            1
     number of atomic types    =            1
     number of electrons       =        11.00
     number of Kohn-Sham states=           10
     kinetic-energy cutoff     =      40.0000  Ry
     charge density cutoff     =     160.0000  Ry
     convergence threshold     =      1.0E-08
     mixing beta               =       0.7000
     number of iterations used =            8  plain     mixing
     Exchange-correlation      = SLA PW PSX PSC ( 1  4 10  8 0 0)

     celldm(1)=   6.830000  celldm(2)=   0.000000  celldm(3)=   0.000000
     celldm(4)=   0.000000  celldm(5)=   0.000000  celldm(6)=   0.000000

     crystal axes: (cart. coord. in units of alat)
               a(1) = (  -0.500000   0.000000   0.500000 )  
               a(2) = (   0.000000   0.500000   0.500000 )  
               a(3) = (  -0.500000   0.500000   0.000000 )  

     reciprocal axes: (cart. coord. in units 2 pi/alat)
               b(1) = ( -1.000000 -1.000000  1.000000 )  
               b(2) = (  1.000000  1.000000  1.000000 )  
               b(3) = ( -1.000000  1.000000 -1.000000 )  


     PseudoPot. # 1 for Cu read from file:
     /home/lorenzo/pseudos/Cu/Cu.pbesol-dn-kjpaw_psl.1.0.0.UPF
     MD5 check sum: 1e9735a74797514c934643dbd229f231
     Pseudo is Projector augmented-wave + core cor, Zval = 11.0
     Generated using "atomic" code by A. Dal Corso v.6.3
     Shape of augmentation charge: PSQ
     Using radial grid of 1199 points,  6 beta functions with: 
                l(1) =   0
                l(2) =   0
                l(3) =   1
                l(4) =   1
                l(5) =   2
                l(6) =   2
     Q(r) pseudized with 0 coefficients 


     atomic species   valence    mass     pseudopotential
        Cu            11.00    63.54600     Cu( 1.00)

     48 Sym. Ops., with inversion, found



   Cartesian axes

     site n.     atom                  positions (alat units)
         1           Cu  tau(   1) = (   0.0000000   0.0000000   0.0000000  )

     number of k points=     4  gaussian smearing, width (Ry)=  0.0100
                       cart. coord. in units 2pi/alat
        k(    1) = (   0.0000000   0.0000000   0.0000000), wk =   0.0740741
        k(    2) = (  -0.3333333   0.3333333  -0.3333333), wk =   0.5925926
        k(    3) = (   0.0000000   0.6666667   0.0000000), wk =   0.4444444
        k(    4) = (   0.6666667  -0.0000000   0.6666667), wk =   0.8888889

     Dense  grid:     2733 G-vectors     FFT dimensions: (  20,  20,  20)

     Estimated max dynamical RAM per process >       3.18 MB

     Estimated total dynamical RAM >      15.91 MB

     Check: negative/imaginary core charge=   -0.000010    0.000000

     Initial potential from superposition of free atoms

     starting charge   10.99979, renormalised to   11.00000
     Starting wfcs are    9 randomized atomic wfcs +    1 random wfcs
     Checking if some PAW data can be deallocated... 

     total cpu time spent up to now is        1.0 secs

     Self-consistent Calculation

     iteration #  1     ecut=    40.00 Ry     beta= 0.70
     Davidson diagonalization with overlap
     ethr =  1.00E-02,  avg # of iterations =  5.0

     Threshold (ethr) on eigenvalues was too large:
     Diagonalizing with lowered threshold

     Davidson diagonalization with overlap
     ethr =  6.56E-04,  avg # of iterations =  1.0

     total cpu time spent up to now is        1.2 secs

     total energy              =    -210.40040579 Ry
     Harris-Foulkes estimate   =    -210.45792283 Ry
     estimated scf accuracy    <       0.07210986 Ry

     iteration #  2     ecut=    40.00 Ry     beta= 0.70
     Davidson diagonalization with overlap
     ethr =  6.56E-04,  avg # of iterations =  2.0

     total cpu time spent up to now is        1.3 secs

     total energy              =    -210.40026894 Ry
     Harris-Foulkes estimate   =    -210.50096503 Ry
     estimated scf accuracy    <       0.26115574 Ry

     iteration #  3     ecut=    40.00 Ry     beta= 0.70
     Davidson diagonalization with overlap
     ethr =  6.56E-04,  avg # of iterations =  2.0

     total cpu time spent up to now is        1.5 secs

     total energy              =    -210.44247240 Ry
     Harris-Foulkes estimate   =    -210.44250412 Ry
     estimated scf accuracy    <       0.00011069 Ry

     iteration #  4     ecut=    40.00 Ry     beta= 0.70
     Davidson diagonalization with overlap
     ethr =  1.01E-06,  avg # of iterations =  2.5

     total cpu time spent up to now is        1.6 secs

     total energy              =    -210.44259411 Ry
     Harris-Foulkes estimate   =    -210.44259514 Ry
     estimated scf accuracy    <       0.00000551 Ry

     iteration #  5     ecut=    40.00 Ry     beta= 0.70
     Davidson diagonalization with overlap
     ethr =  5.01E-08,  avg # of iterations =  1.0

     total cpu time spent up to now is        1.7 secs

     total energy              =    -210.44259451 Ry
     Harris-Foulkes estimate   =    -210.44259447 Ry
     estimated scf accuracy    <       0.00000021 Ry

     iteration #  6     ecut=    40.00 Ry     beta= 0.70
     Davidson diagonalization with overlap
     ethr =  1.87E-09,  avg # of iterations =  3.0

     total cpu time spent up to now is        1.8 secs

     End of self-consistent calculation

          k = 0.0000 0.0000 0.0000 (   331 PWs)   bands (ev):

     3.0411   9.4201   9.4201   9.4201  10.2531  10.2531  35.3872  37.7419
    37.7419  37.7419

          k =-0.3333 0.3333-0.3333 (   344 PWs)   bands (ev):

     6.4143   9.4059   9.5019   9.5019  10.5536  10.5536  21.0384  34.5003
    34.7577  34.7577

          k = 0.0000 0.6667 0.0000 (   335 PWs)   bands (ev):

     7.1268   8.3512  10.3483  10.4932  10.4932  10.6671  26.0993  27.3986
    27.3986  30.6605

          k = 0.6667-0.0000 0.6667 (   347 PWs)   bands (ev):

     8.3834   8.5535   9.2850  10.1807  10.6248  15.6759  18.3525  20.9181
    29.0631  32.3415

     the Fermi energy is    10.7810 ev

!    total energy              =    -210.44259452 Ry
     Harris-Foulkes estimate   =    -210.44259453 Ry
     estimated scf accuracy    <          5.7E-09 Ry

     total all-electron energy =     -3307.321656 Ry

     The total energy is the sum of the following terms:

     one-electron contribution =     -27.99650394 Ry
     hartree contribution      =      30.49124825 Ry
     xc contribution           =     -44.10485093 Ry
     ewald contribution        =     -81.22522859 Ry
     one-center paw contrib.   =     -87.60573080 Ry
     smearing contrib. (-TS)   =      -0.00152852 Ry

     convergence has been achieved in   6 iterations

     Forces acting on atoms (cartesian axes, Ry/au):

     atom    1 type  1   force =     0.00000000    0.00000000    0.00000000

     Total force =     0.000000     Total SCF correction =     0.000000


     Computing stress (Cartesian axis) and pressure

          total   stress  (Ry/bohr**3)                   (kbar)     P= -112.54
  -0.00076503   0.00000000  -0.00000000       -112.54      0.00     -0.00
   0.00000000  -0.00076503   0.00000000          0.00   -112.54      0.00
  -0.00000000  -0.00000000  -0.00076503         -0.00     -0.00   -112.54


     Writing output data file Cu.save/

     init_run     :      0.23s CPU      0.25s WALL (       1 calls)
     electrons    :      0.75s CPU      0.85s WALL (       1 calls)
     forces       :      0.01s CPU      0.01s WALL (       1 calls)
     stress       :      0.04s CPU      0.04s WALL (       1 calls)

     Called by init_run:
     wfcinit      :      0.01s CPU      0.01s WALL (       1 calls)
     potinit      :      0.10s CPU      0.12s WALL (       1 calls)
     hinit0       :      0.11s CPU      0.11s WALL (       1 calls)

     Called by electrons:
     c_bands      :      0.12s CPU      0.14s WALL (       7 calls)
     sum_band     :      0.04s CPU      0.05s WALL (       7 calls)
     v_of_rho     :      0.01s CPU      0.01s WALL (       7 calls)
     newd         :      0.02s CPU      0.02s WALL (       7 calls)
     PAW_pot      :      0.64s CPU      0.73s WALL (       7 calls)
     mix_rho      :      0.00s CPU      0.00s WALL (       7 calls)

     Called by c_bands:
     init_us_2    :      0.00s CPU      0.00s WALL (      68 calls)
     cegterg      :      0.12s CPU      0.13s WALL (      28 calls)

     Called by sum_band:
     sum_band:bec :      0.00s CPU      0.00s WALL (      28 calls)
     addusdens    :      0.02s CPU      0.02s WALL (       7 calls)

     Called by *egterg:
     h_psi        :      0.09s CPU      0.10s WALL (      98 calls)
     s_psi        :      0.00s CPU      0.00s WALL (      98 calls)
     g_psi        :      0.00s CPU      0.00s WALL (      66 calls)
     cdiaghg      :      0.02s CPU      0.02s WALL (      90 calls)

     Called by h_psi:
     h_psi:pot    :      0.09s CPU      0.10s WALL (      98 calls)
     h_psi:calbec :      0.01s CPU      0.01s WALL (      98 calls)
     vloc_psi     :      0.08s CPU      0.09s WALL (      98 calls)
     add_vuspsi   :      0.00s CPU      0.00s WALL (      98 calls)

     General routines
     calbec       :      0.01s CPU      0.01s WALL (     146 calls)
     fft          :      0.01s CPU      0.01s WALL (     104 calls)
     ffts         :      0.00s CPU      0.00s WALL (       7 calls)
     fftw         :      0.09s CPU      0.09s WALL (    1694 calls)

     Parallel routines
     fft_scatt_xy :      0.01s CPU      0.01s WALL (    1805 calls)
     fft_scatt_yz :      0.03s CPU      0.03s WALL (    1805 calls)

     PWSCF        :     1.77s CPU         1.93s WALL


   This run was terminated on:  23:20: 3  25Mar2024            

=------------------------------------------------------------------------------=
   JOB DONE.
=------------------------------------------------------------------------------=
