
     Program PWSCF v.6.3MaX starts on 25Mar2024 at 23: 7:32 

     This program is part of the open-source Quantum ESPRESSO suite
     for quantum simulation of materials; please cite
         "P. Giannozzi et al., J. Phys.:Condens. Matter 21 395502 (2009);
         "P. Giannozzi et al., J. Phys.:Condens. Matter 29 465901 (2017);
          URL http://www.quantum-espresso.org", 
     in publications or presentations arising from this work. More details at
     http://www.quantum-espresso.org/quote

     Parallel version (MPI), running on     5 processors

     MPI processes distributed on     1 nodes
     R & G space division:  proc/nbgrp/npool/nimage =       5
     Waiting for input...
     Reading input from standard input

     Current dimensions of program PWSCF are:
     Max number of different atomic species (ntypx) = 10
     Max number of k-points (npk) =  40000
     Max angular momentum in pseudopotentials (lmaxx) =  3
               file Cu.pbesol-dn-kjpaw_psl.1.0.0.UPF: wavefunction(s)  4S 3D renormalized

     Subspace diagonalization in iterative solution of the eigenvalue problem:
     a serial algorithm will be used


     Parallelization info
     --------------------
     sticks:   dense  smooth     PW     G-vecs:    dense   smooth      PW
     Min         129     129     39                 2168     2168     365
     Max         130     130     40                 2171     2171     368
     Sum         649     649    199                10849    10849    1837



     bravais-lattice index     =            2
     lattice parameter (alat)  =       6.8300  a.u.
     unit-cell volume          =      79.6530 (a.u.)^3
     number of atoms/cell      =            1
     number of atomic types    =            1
     number of electrons       =        11.00
     number of Kohn-Sham states=           10
     kinetic-energy cutoff     =     100.0000  Ry
     charge density cutoff     =     400.0000  Ry
     convergence threshold     =      1.0E-08
     mixing beta               =       0.7000
     number of iterations used =            8  plain     mixing
     Exchange-correlation      = SLA PW PSX PSC ( 1  4 10  8 0 0)

     celldm(1)=   6.830000  celldm(2)=   0.000000  celldm(3)=   0.000000
     celldm(4)=   0.000000  celldm(5)=   0.000000  celldm(6)=   0.000000

     crystal axes: (cart. coord. in units of alat)
               a(1) = (  -0.500000   0.000000   0.500000 )  
               a(2) = (   0.000000   0.500000   0.500000 )  
               a(3) = (  -0.500000   0.500000   0.000000 )  

     reciprocal axes: (cart. coord. in units 2 pi/alat)
               b(1) = ( -1.000000 -1.000000  1.000000 )  
               b(2) = (  1.000000  1.000000  1.000000 )  
               b(3) = ( -1.000000  1.000000 -1.000000 )  


     PseudoPot. # 1 for Cu read from file:
     /home/lorenzo/pseudos/Cu/Cu.pbesol-dn-kjpaw_psl.1.0.0.UPF
     MD5 check sum: 1e9735a74797514c934643dbd229f231
     Pseudo is Projector augmented-wave + core cor, Zval = 11.0
     Generated using "atomic" code by A. Dal Corso v.6.3
     Shape of augmentation charge: PSQ
     Using radial grid of 1199 points,  6 beta functions with: 
                l(1) =   0
                l(2) =   0
                l(3) =   1
                l(4) =   1
                l(5) =   2
                l(6) =   2
     Q(r) pseudized with 0 coefficients 


     atomic species   valence    mass     pseudopotential
        Cu            11.00    63.54600     Cu( 1.00)

     48 Sym. Ops., with inversion, found



   Cartesian axes

     site n.     atom                  positions (alat units)
         1           Cu  tau(   1) = (   0.0000000   0.0000000   0.0000000  )

     number of k points=    16  gaussian smearing, width (Ry)=  0.0100
                       cart. coord. in units 2pi/alat
        k(    1) = (   0.0000000   0.0000000   0.0000000), wk =   0.0092593
        k(    2) = (  -0.1666667   0.1666667  -0.1666667), wk =   0.0740741
        k(    3) = (  -0.3333333   0.3333333  -0.3333333), wk =   0.0740741
        k(    4) = (   0.5000000  -0.5000000   0.5000000), wk =   0.0370370
        k(    5) = (   0.0000000   0.3333333   0.0000000), wk =   0.0555556
        k(    6) = (  -0.1666667   0.5000000  -0.1666667), wk =   0.2222222
        k(    7) = (   0.6666667  -0.3333333   0.6666667), wk =   0.2222222
        k(    8) = (   0.5000000  -0.1666667   0.5000000), wk =   0.2222222
        k(    9) = (   0.3333333   0.0000000   0.3333333), wk =   0.1111111
        k(   10) = (   0.0000000   0.6666667   0.0000000), wk =   0.0555556
        k(   11) = (   0.8333333  -0.1666667   0.8333333), wk =   0.2222222
        k(   12) = (   0.6666667  -0.0000000   0.6666667), wk =   0.1111111
        k(   13) = (   0.0000000  -1.0000000   0.0000000), wk =   0.0277778
        k(   14) = (   0.6666667  -0.3333333   1.0000000), wk =   0.2222222
        k(   15) = (   0.5000000  -0.1666667   0.8333333), wk =   0.2222222
        k(   16) = (  -0.3333333  -1.0000000   0.0000000), wk =   0.1111111

     Dense  grid:    10849 G-vectors     FFT dimensions: (  32,  32,  32)

     Estimated max dynamical RAM per process >      10.57 MB

     Estimated total dynamical RAM >      52.85 MB

     Initial potential from superposition of free atoms

     starting charge   10.99979, renormalised to   11.00000
     Starting wfcs are    9 randomized atomic wfcs +    1 random wfcs
     Checking if some PAW data can be deallocated... 

     total cpu time spent up to now is        1.3 secs

     Self-consistent Calculation

     iteration #  1     ecut=   100.00 Ry     beta= 0.70
     Davidson diagonalization with overlap
     ethr =  1.00E-02,  avg # of iterations =  3.9

     Threshold (ethr) on eigenvalues was too large:
     Diagonalizing with lowered threshold

     Davidson diagonalization with overlap
     ethr =  6.70E-04,  avg # of iterations =  1.0

     total cpu time spent up to now is        1.8 secs

     total energy              =    -210.37266269 Ry
     Harris-Foulkes estimate   =    -210.43128768 Ry
     estimated scf accuracy    <       0.07329851 Ry

     iteration #  2     ecut=   100.00 Ry     beta= 0.70
     Davidson diagonalization with overlap
     ethr =  6.66E-04,  avg # of iterations =  2.0

     total cpu time spent up to now is        2.2 secs

     total energy              =    -210.37320748 Ry
     Harris-Foulkes estimate   =    -210.47750502 Ry
     estimated scf accuracy    <       0.27229321 Ry

     iteration #  3     ecut=   100.00 Ry     beta= 0.70
     Davidson diagonalization with overlap
     ethr =  6.66E-04,  avg # of iterations =  2.0

     total cpu time spent up to now is        2.5 secs

     total energy              =    -210.41662167 Ry
     Harris-Foulkes estimate   =    -210.41666259 Ry
     estimated scf accuracy    <       0.00008540 Ry

     iteration #  4     ecut=   100.00 Ry     beta= 0.70
     Davidson diagonalization with overlap
     ethr =  7.76E-07,  avg # of iterations =  2.7

     total cpu time spent up to now is        2.9 secs

     total energy              =    -210.41668115 Ry
     Harris-Foulkes estimate   =    -210.41668825 Ry
     estimated scf accuracy    <       0.00001888 Ry

     iteration #  5     ecut=   100.00 Ry     beta= 0.70
     Davidson diagonalization with overlap
     ethr =  1.72E-07,  avg # of iterations =  1.2

     total cpu time spent up to now is        3.2 secs

     total energy              =    -210.41668462 Ry
     Harris-Foulkes estimate   =    -210.41668481 Ry
     estimated scf accuracy    <       0.00000050 Ry

     iteration #  6     ecut=   100.00 Ry     beta= 0.70
     Davidson diagonalization with overlap
     ethr =  4.54E-09,  avg # of iterations =  1.7

     total cpu time spent up to now is        3.4 secs

     End of self-consistent calculation

          k = 0.0000 0.0000 0.0000 (  1363 PWs)   bands (ev):

     3.0429   9.4703   9.4703   9.4703  10.3119  10.3119  35.3783  37.7507
    37.7507  37.7507

          k =-0.1667 0.1667-0.1667 (  1354 PWs)   bands (ev):

     4.0314   9.2915   9.6114   9.6114  10.2854  10.2854  29.1081  35.7195
    35.9906  35.9906

          k =-0.3333 0.3333-0.3333 (  1356 PWs)   bands (ev):

     6.4240   9.4404   9.5546   9.5546  10.6126  10.6126  21.0527  34.4942
    34.7642  34.7642

          k = 0.5000-0.5000 0.5000 (  1350 PWs)   bands (ev):

     7.3722   9.4398   9.4398  10.8855  10.8855  11.4034  16.2158  33.7873
    34.5052  34.5052

          k = 0.0000 0.3333 0.0000 (  1335 PWs)   bands (ev):

     4.3537   9.1013   9.7848   9.7848   9.9991  10.4492  32.2023  32.2023
    32.7186  34.3953

          k =-0.1667 0.5000-0.1667 (  1338 PWs)   bands (ev):

     6.3210   8.8408   9.5241   9.9167  10.6325  10.7065  24.2361  30.2835
    31.3554  33.1602

          k = 0.6667-0.3333 0.6667 (  1348 PWs)   bands (ev):

     7.8010   9.0586   9.5366   9.7684  10.9052  12.9342  17.4655  28.2135
    30.5598  32.8600

          k = 0.5000-0.1667 0.5000 (  1347 PWs)   bands (ev):

     7.6148   9.2292   9.2947   9.7605  10.5355  12.1290  19.4453  26.6784
    33.1699  34.1835

          k = 0.3333 0.0000 0.3333 (  1354 PWs)   bands (ev):

     5.5510   9.0400   9.5819   9.9002  10.0111  10.7878  26.6746  27.3808
    37.2846  37.6986

          k = 0.0000 0.6667 0.0000 (  1347 PWs)   bands (ev):

     7.1453   8.3940  10.3811  10.5493  10.5493  10.7286  26.1071  27.4044
    27.4044  30.6550

          k = 0.8333-0.1667 0.8333 (  1343 PWs)   bands (ev):

     7.8760   8.3114  10.0155  10.5016  10.9518  13.6601  21.3969  22.3140
    26.9260  31.4943

          k = 0.6667-0.0000 0.6667 (  1316 PWs)   bands (ev):

     8.4241   8.5939   9.3289  10.2391  10.6822  15.6971  18.3660  20.9348
    29.0699  32.3417

          k = 0.0000-1.0000 0.0000 (  1362 PWs)   bands (ev):

     7.5879   8.0549  10.8706  11.0281  11.0281  13.9032  19.5697  25.5210
    25.5210  30.0372

          k = 0.6667-0.3333 1.0000 (  1348 PWs)   bands (ev):

     7.9034   8.6633   9.1856  10.3558  10.5485  12.4031  22.7012  23.7197
    27.1942  37.2031

          k = 0.5000-0.1667 0.8333 (  1338 PWs)   bands (ev):

     8.5429   8.5829   9.1495  10.1650  10.8512  16.0080  17.2378  24.1990
    24.4275  37.5356

          k =-0.3333-1.0000 0.0000 (  1336 PWs)   bands (ev):

     8.1076   8.4438   9.6610  10.4620  11.0287  16.4637  20.1129  21.1255
    22.4502  36.1603

     the Fermi energy is    12.4339 ev

!    total energy              =    -210.41668471 Ry
     Harris-Foulkes estimate   =    -210.41668471 Ry
     estimated scf accuracy    <          7.9E-10 Ry

     total all-electron energy =     -3307.295746 Ry

     The total energy is the sum of the following terms:

     one-electron contribution =     -28.00736388 Ry
     hartree contribution      =      30.52948264 Ry
     xc contribution           =     -44.11186289 Ry
     ewald contribution        =     -81.22522855 Ry
     one-center paw contrib.   =     -87.60111243 Ry
     smearing contrib. (-TS)   =      -0.00059959 Ry

     convergence has been achieved in   6 iterations

     Forces acting on atoms (cartesian axes, Ry/au):

     atom    1 type  1   force =     0.00000000    0.00000000    0.00000000

     Total force =     0.000000     Total SCF correction =     0.000000


     Computing stress (Cartesian axis) and pressure

          total   stress  (Ry/bohr**3)                   (kbar)     P=  -50.66
  -0.00034437  -0.00000000   0.00000000        -50.66     -0.00      0.00
  -0.00000000  -0.00034437   0.00000000         -0.00    -50.66      0.00
   0.00000000   0.00000000  -0.00034437          0.00      0.00    -50.66


     Writing output data file Cu.save/

     init_run     :      0.53s CPU      0.56s WALL (       1 calls)
     electrons    :      2.01s CPU      2.13s WALL (       1 calls)
     forces       :      0.05s CPU      0.05s WALL (       1 calls)
     stress       :      0.14s CPU      0.15s WALL (       1 calls)

     Called by init_run:
     wfcinit      :      0.10s CPU      0.10s WALL (       1 calls)
     potinit      :      0.13s CPU      0.15s WALL (       1 calls)
     hinit0       :      0.26s CPU      0.26s WALL (       1 calls)

     Called by electrons:
     c_bands      :      1.06s CPU      1.15s WALL (       7 calls)
     sum_band     :      0.27s CPU      0.29s WALL (       7 calls)
     v_of_rho     :      0.04s CPU      0.04s WALL (       7 calls)
     newd         :      0.08s CPU      0.08s WALL (       7 calls)
     PAW_pot      :      0.68s CPU      0.72s WALL (       7 calls)
     mix_rho      :      0.00s CPU      0.00s WALL (       7 calls)

     Called by c_bands:
     init_us_2    :      0.04s CPU      0.05s WALL (     272 calls)
     cegterg      :      1.01s CPU      1.09s WALL (     112 calls)

     Called by sum_band:
     sum_band:bec :      0.00s CPU      0.00s WALL (     112 calls)
     addusdens    :      0.07s CPU      0.07s WALL (       7 calls)

     Called by *egterg:
     h_psi        :      0.85s CPU      0.92s WALL (     360 calls)
     s_psi        :      0.03s CPU      0.03s WALL (     360 calls)
     g_psi        :      0.00s CPU      0.00s WALL (     232 calls)
     cdiaghg      :      0.07s CPU      0.07s WALL (     328 calls)

     Called by h_psi:
     h_psi:pot    :      0.84s CPU      0.92s WALL (     360 calls)
     h_psi:calbec :      0.04s CPU      0.05s WALL (     360 calls)
     vloc_psi     :      0.76s CPU      0.83s WALL (     360 calls)
     add_vuspsi   :      0.03s CPU      0.03s WALL (     360 calls)

     General routines
     calbec       :      0.07s CPU      0.07s WALL (     552 calls)
     fft          :      0.03s CPU      0.03s WALL (     104 calls)
     ffts         :      0.00s CPU      0.00s WALL (       7 calls)
     fftw         :      0.84s CPU      0.92s WALL (    6816 calls)

     Parallel routines
     fft_scatt_xy :      0.08s CPU      0.09s WALL (    6927 calls)
     fft_scatt_yz :      0.28s CPU      0.30s WALL (    6927 calls)

     PWSCF        :     3.50s CPU         3.71s WALL


   This run was terminated on:  23: 7:36  25Mar2024            

=------------------------------------------------------------------------------=
   JOB DONE.
=------------------------------------------------------------------------------=
