
     Program PWSCF v.6.3MaX starts on 25Mar2024 at 23:36: 6 

     This program is part of the open-source Quantum ESPRESSO suite
     for quantum simulation of materials; please cite
         "P. Giannozzi et al., J. Phys.:Condens. Matter 21 395502 (2009);
         "P. Giannozzi et al., J. Phys.:Condens. Matter 29 465901 (2017);
          URL http://www.quantum-espresso.org", 
     in publications or presentations arising from this work. More details at
     http://www.quantum-espresso.org/quote

     Parallel version (MPI), running on     5 processors

     MPI processes distributed on     1 nodes
     R & G space division:  proc/nbgrp/npool/nimage =       5
     Waiting for input...
     Reading input from standard input

     Current dimensions of program PWSCF are:
     Max number of different atomic species (ntypx) = 10
     Max number of k-points (npk) =  40000
     Max angular momentum in pseudopotentials (lmaxx) =  3
               file Cu.pbesol-dn-kjpaw_psl.1.0.0.UPF: wavefunction(s)  4S 3D renormalized

     Subspace diagonalization in iterative solution of the eigenvalue problem:
     a serial algorithm will be used


     Parallelization info
     --------------------
     sticks:   dense  smooth     PW     G-vecs:    dense   smooth      PW
     Min          95      95     30                 1375     1375     248
     Max          95      95     31                 1376     1376     251
     Sum         475     475    151                 6879     6879    1243



     bravais-lattice index     =            2
     lattice parameter (alat)  =       6.8300  a.u.
     unit-cell volume          =      79.6530 (a.u.)^3
     number of atoms/cell      =            1
     number of atomic types    =            1
     number of electrons       =        11.00
     number of Kohn-Sham states=           10
     kinetic-energy cutoff     =      75.0000  Ry
     charge density cutoff     =     300.0000  Ry
     convergence threshold     =      1.0E-08
     mixing beta               =       0.7000
     number of iterations used =            8  plain     mixing
     Exchange-correlation      = SLA PW PSX PSC ( 1  4 10  8 0 0)

     celldm(1)=   6.830000  celldm(2)=   0.000000  celldm(3)=   0.000000
     celldm(4)=   0.000000  celldm(5)=   0.000000  celldm(6)=   0.000000

     crystal axes: (cart. coord. in units of alat)
               a(1) = (  -0.500000   0.000000   0.500000 )  
               a(2) = (   0.000000   0.500000   0.500000 )  
               a(3) = (  -0.500000   0.500000   0.000000 )  

     reciprocal axes: (cart. coord. in units 2 pi/alat)
               b(1) = ( -1.000000 -1.000000  1.000000 )  
               b(2) = (  1.000000  1.000000  1.000000 )  
               b(3) = ( -1.000000  1.000000 -1.000000 )  


     PseudoPot. # 1 for Cu read from file:
     /home/lorenzo/pseudos/Cu/Cu.pbesol-dn-kjpaw_psl.1.0.0.UPF
     MD5 check sum: 1e9735a74797514c934643dbd229f231
     Pseudo is Projector augmented-wave + core cor, Zval = 11.0
     Generated using "atomic" code by A. Dal Corso v.6.3
     Shape of augmentation charge: PSQ
     Using radial grid of 1199 points,  6 beta functions with: 
                l(1) =   0
                l(2) =   0
                l(3) =   1
                l(4) =   1
                l(5) =   2
                l(6) =   2
     Q(r) pseudized with 0 coefficients 


     atomic species   valence    mass     pseudopotential
        Cu            11.00    63.54600     Cu( 1.00)

     48 Sym. Ops., with inversion, found



   Cartesian axes

     site n.     atom                  positions (alat units)
         1           Cu  tau(   1) = (   0.0000000   0.0000000   0.0000000  )

     number of k points=     8  gaussian smearing, width (Ry)=  0.0100
                       cart. coord. in units 2pi/alat
        k(    1) = (   0.0000000   0.0000000   0.0000000), wk =   0.0312500
        k(    2) = (  -0.2500000   0.2500000  -0.2500000), wk =   0.2500000
        k(    3) = (   0.5000000  -0.5000000   0.5000000), wk =   0.1250000
        k(    4) = (   0.0000000   0.5000000   0.0000000), wk =   0.1875000
        k(    5) = (   0.7500000  -0.2500000   0.7500000), wk =   0.7500000
        k(    6) = (   0.5000000   0.0000000   0.5000000), wk =   0.3750000
        k(    7) = (   0.0000000  -1.0000000   0.0000000), wk =   0.0937500
        k(    8) = (  -0.5000000  -1.0000000   0.0000000), wk =   0.1875000

     Dense  grid:     6879 G-vectors     FFT dimensions: (  27,  27,  27)

     Estimated max dynamical RAM per process >       6.89 MB

     Estimated total dynamical RAM >      34.45 MB

     Initial potential from superposition of free atoms

     starting charge   10.99979, renormalised to   11.00000
     Starting wfcs are    9 randomized atomic wfcs +    1 random wfcs
     Checking if some PAW data can be deallocated... 

     total cpu time spent up to now is        1.2 secs

     Self-consistent Calculation

     iteration #  1     ecut=    75.00 Ry     beta= 0.70
     Davidson diagonalization with overlap
     ethr =  1.00E-02,  avg # of iterations =  3.5

     Threshold (ethr) on eigenvalues was too large:
     Diagonalizing with lowered threshold

     Davidson diagonalization with overlap
     ethr =  6.67E-04,  avg # of iterations =  1.0

     total cpu time spent up to now is        1.5 secs

     total energy              =    -210.36518853 Ry
     Harris-Foulkes estimate   =    -210.42382871 Ry
     estimated scf accuracy    <       0.07331292 Ry

     iteration #  2     ecut=    75.00 Ry     beta= 0.70
     Davidson diagonalization with overlap
     ethr =  6.66E-04,  avg # of iterations =  2.0

     total cpu time spent up to now is        1.7 secs

     total energy              =    -210.36840665 Ry
     Harris-Foulkes estimate   =    -210.46771105 Ry
     estimated scf accuracy    <       0.25432277 Ry

     iteration #  3     ecut=    75.00 Ry     beta= 0.70
     Davidson diagonalization with overlap
     ethr =  6.66E-04,  avg # of iterations =  2.0

     total cpu time spent up to now is        1.9 secs

     total energy              =    -210.40890909 Ry
     Harris-Foulkes estimate   =    -210.40895970 Ry
     estimated scf accuracy    <       0.00010278 Ry

     iteration #  4     ecut=    75.00 Ry     beta= 0.70
     Davidson diagonalization with overlap
     ethr =  9.34E-07,  avg # of iterations =  2.9

     total cpu time spent up to now is        2.1 secs

     total energy              =    -210.40896451 Ry
     Harris-Foulkes estimate   =    -210.40897126 Ry
     estimated scf accuracy    <       0.00001900 Ry

     iteration #  5     ecut=    75.00 Ry     beta= 0.70
     Davidson diagonalization with overlap
     ethr =  1.73E-07,  avg # of iterations =  1.1

     total cpu time spent up to now is        2.3 secs

     total energy              =    -210.40896755 Ry
     Harris-Foulkes estimate   =    -210.40896756 Ry
     estimated scf accuracy    <       0.00000003 Ry

     iteration #  6     ecut=    75.00 Ry     beta= 0.70
     Davidson diagonalization with overlap
     ethr =  2.78E-10,  avg # of iterations =  3.0

     total cpu time spent up to now is        2.5 secs

     End of self-consistent calculation

          k = 0.0000 0.0000 0.0000 (   893 PWs)   bands (ev):

     3.0407   9.4486   9.4486   9.4486  10.2903  10.2903  35.3752  37.7490
    37.7490  37.7490

          k =-0.2500 0.2500-0.2500 (   881 PWs)   bands (ev):

     5.1640   9.1875   9.6089   9.6089  10.3724  10.3724  24.8859  35.1628
    35.2255  35.2255

          k = 0.5000-0.5000 0.5000 (   862 PWs)   bands (ev):

     7.3576   9.4192   9.4192  10.8625  10.8625  11.4024  16.2030  33.7885
    34.4998  34.4998

          k = 0.0000 0.5000 0.0000 (   881 PWs)   bands (ev):

     5.8082   8.7224   9.8189  10.1183  10.1183  10.5661  29.5221  29.5221
    30.8329  31.4762

          k = 0.7500-0.2500 0.7500 (   866 PWs)   bands (ev):

     8.0135   8.5963   9.4620  10.1000  10.9031  13.3894  19.1443  25.0088
    28.5238  32.0905

          k = 0.5000 0.0000 0.5000 (   883 PWs)   bands (ev):

     7.7198   8.9343   9.1502   9.9603  10.2824  12.1653  22.1416  23.3491
    32.8966  34.2253

          k = 0.0000-1.0000 0.0000 (   846 PWs)   bands (ev):

     7.5738   8.0359  10.8484  11.0043  11.0043  13.9000  19.5606  25.5180
    25.5180  30.0284

          k =-0.5000-1.0000 0.0000 (   876 PWs)   bands (ev):

     8.3224   8.9283   8.9283  10.2471  11.0051  18.6318  18.6318  20.7634
    21.2219  40.8326

     the Fermi energy is    13.2228 ev

!    total energy              =    -210.40896757 Ry
     Harris-Foulkes estimate   =    -210.40896757 Ry
     estimated scf accuracy    <          2.3E-09 Ry

     total all-electron energy =     -3307.288029 Ry

     The total energy is the sum of the following terms:

     one-electron contribution =     -27.98667556 Ry
     hartree contribution      =      30.51483597 Ry
     xc contribution           =     -44.10961448 Ry
     ewald contribution        =     -81.22522855 Ry
     one-center paw contrib.   =     -87.60181257 Ry
     smearing contrib. (-TS)   =      -0.00047239 Ry

     convergence has been achieved in   6 iterations

     Forces acting on atoms (cartesian axes, Ry/au):

     atom    1 type  1   force =     0.00000000    0.00000000    0.00000000

     Total force =     0.000000     Total SCF correction =     0.000000


     Computing stress (Cartesian axis) and pressure

          total   stress  (Ry/bohr**3)                   (kbar)     P=  -46.65
  -0.00031715   0.00000000   0.00000000        -46.65      0.00      0.00
   0.00000000  -0.00031715  -0.00000000          0.00    -46.65     -0.00
   0.00000000  -0.00000000  -0.00031715          0.00     -0.00    -46.65


     Writing output data file Cu.save/

     init_run     :      0.30s CPU      0.32s WALL (       1 calls)
     electrons    :      1.18s CPU      1.29s WALL (       1 calls)
     forces       :      0.03s CPU      0.03s WALL (       1 calls)
     stress       :      0.08s CPU      0.08s WALL (       1 calls)

     Called by init_run:
     wfcinit      :      0.03s CPU      0.03s WALL (       1 calls)
     potinit      :      0.09s CPU      0.11s WALL (       1 calls)
     hinit0       :      0.16s CPU      0.16s WALL (       1 calls)

     Called by electrons:
     c_bands      :      0.44s CPU      0.46s WALL (       7 calls)
     sum_band     :      0.13s CPU      0.14s WALL (       7 calls)
     v_of_rho     :      0.03s CPU      0.03s WALL (       7 calls)
     newd         :      0.05s CPU      0.06s WALL (       7 calls)
     PAW_pot      :      0.62s CPU      0.71s WALL (       7 calls)
     mix_rho      :      0.00s CPU      0.00s WALL (       7 calls)

     Called by c_bands:
     init_us_2    :      0.02s CPU      0.02s WALL (     136 calls)
     cegterg      :      0.42s CPU      0.44s WALL (      56 calls)

     Called by sum_band:
     sum_band:bec :      0.00s CPU      0.00s WALL (      56 calls)
     addusdens    :      0.04s CPU      0.04s WALL (       7 calls)

     Called by *egterg:
     h_psi        :      0.34s CPU      0.35s WALL (     188 calls)
     s_psi        :      0.01s CPU      0.01s WALL (     188 calls)
     g_psi        :      0.00s CPU      0.00s WALL (     124 calls)
     cdiaghg      :      0.04s CPU      0.04s WALL (     172 calls)

     Called by h_psi:
     h_psi:pot    :      0.33s CPU      0.35s WALL (     188 calls)
     h_psi:calbec :      0.02s CPU      0.02s WALL (     188 calls)
     vloc_psi     :      0.31s CPU      0.32s WALL (     188 calls)
     add_vuspsi   :      0.01s CPU      0.01s WALL (     188 calls)

     General routines
     calbec       :      0.03s CPU      0.03s WALL (     284 calls)
     fft          :      0.02s CPU      0.02s WALL (     104 calls)
     ffts         :      0.00s CPU      0.00s WALL (       7 calls)
     fftw         :      0.34s CPU      0.36s WALL (    3508 calls)

     Parallel routines
     fft_scatt_xy :      0.03s CPU      0.03s WALL (    3619 calls)
     fft_scatt_yz :      0.09s CPU      0.09s WALL (    3619 calls)

     PWSCF        :     2.49s CPU         2.66s WALL


   This run was terminated on:  23:36: 9  25Mar2024            

=------------------------------------------------------------------------------=
   JOB DONE.
=------------------------------------------------------------------------------=
