
     Program PWSCF v.6.3MaX starts on 25Mar2024 at 23: 7: 0 

     This program is part of the open-source Quantum ESPRESSO suite
     for quantum simulation of materials; please cite
         "P. Giannozzi et al., J. Phys.:Condens. Matter 21 395502 (2009);
         "P. Giannozzi et al., J. Phys.:Condens. Matter 29 465901 (2017);
          URL http://www.quantum-espresso.org", 
     in publications or presentations arising from this work. More details at
     http://www.quantum-espresso.org/quote

     Parallel version (MPI), running on     5 processors

     MPI processes distributed on     1 nodes
     R & G space division:  proc/nbgrp/npool/nimage =       5
     Waiting for input...
     Reading input from standard input

     Current dimensions of program PWSCF are:
     Max number of different atomic species (ntypx) = 10
     Max number of k-points (npk) =  40000
     Max angular momentum in pseudopotentials (lmaxx) =  3
               file Cu.pbesol-dn-rrkjus_psl.1.0.0.UPF: wavefunction(s)  3D renormalized

     Subspace diagonalization in iterative solution of the eigenvalue problem:
     a serial algorithm will be used


     Parallelization info
     --------------------
     sticks:   dense  smooth     PW     G-vecs:    dense   smooth      PW
     Min         129     129     39                 2168     2168     351
     Max         130     130     40                 2171     2171     352
     Sum         649     649    199                10849    10849    1759



     bravais-lattice index     =            2
     lattice parameter (alat)  =       6.8300  a.u.
     unit-cell volume          =      79.6530 (a.u.)^3
     number of atoms/cell      =            1
     number of atomic types    =            1
     number of electrons       =        11.00
     number of Kohn-Sham states=           10
     kinetic-energy cutoff     =     100.0000  Ry
     charge density cutoff     =     400.0000  Ry
     convergence threshold     =      1.0E-08
     mixing beta               =       0.7000
     number of iterations used =            8  plain     mixing
     Exchange-correlation      = PBESOL ( 1  4 10  8 0 0)

     celldm(1)=   6.830000  celldm(2)=   0.000000  celldm(3)=   0.000000
     celldm(4)=   0.000000  celldm(5)=   0.000000  celldm(6)=   0.000000

     crystal axes: (cart. coord. in units of alat)
               a(1) = (  -0.500000   0.000000   0.500000 )  
               a(2) = (   0.000000   0.500000   0.500000 )  
               a(3) = (  -0.500000   0.500000   0.000000 )  

     reciprocal axes: (cart. coord. in units 2 pi/alat)
               b(1) = ( -1.000000 -1.000000  1.000000 )  
               b(2) = (  1.000000  1.000000  1.000000 )  
               b(3) = ( -1.000000  1.000000 -1.000000 )  


     PseudoPot. # 1 for Cu read from file:
     /home/lorenzo/pseudos/Cu/Cu.pbesol-dn-rrkjus_psl.1.0.0.UPF
     MD5 check sum: bfa4c7aafbc42e028d5f4ccf7ceed93d
     Pseudo is Ultrasoft + core correction, Zval = 11.0
     Generated using "atomic" code by A. Dal Corso v.6.3
     Using radial grid of 1199 points,  6 beta functions with: 
                l(1) =   0
                l(2) =   0
                l(3) =   1
                l(4) =   1
                l(5) =   2
                l(6) =   2
     Q(r) pseudized with 0 coefficients 


     atomic species   valence    mass     pseudopotential
        Cu            11.00    63.54600     Cu( 1.00)

     48 Sym. Ops., with inversion, found



   Cartesian axes

     site n.     atom                  positions (alat units)
         1           Cu  tau(   1) = (   0.0000000   0.0000000   0.0000000  )

     number of k points=     4  gaussian smearing, width (Ry)=  0.0100
                       cart. coord. in units 2pi/alat
        k(    1) = (   0.0000000   0.0000000   0.0000000), wk =   0.0740741
        k(    2) = (  -0.3333333   0.3333333  -0.3333333), wk =   0.5925926
        k(    3) = (   0.0000000   0.6666667   0.0000000), wk =   0.4444444
        k(    4) = (   0.6666667  -0.0000000   0.6666667), wk =   0.8888889

     Dense  grid:    10849 G-vectors     FFT dimensions: (  32,  32,  32)

     Estimated max dynamical RAM per process >      10.08 MB

     Estimated total dynamical RAM >      50.39 MB

     Initial potential from superposition of free atoms

     starting charge   10.99979, renormalised to   11.00000
     Starting wfcs are    9 randomized atomic wfcs +    1 random wfcs

     total cpu time spent up to now is        1.0 secs

     Self-consistent Calculation

     iteration #  1     ecut=   100.00 Ry     beta= 0.70
     Davidson diagonalization with overlap
     ethr =  1.00E-02,  avg # of iterations =  4.2

     Threshold (ethr) on eigenvalues was too large:
     Diagonalizing with lowered threshold

     Davidson diagonalization with overlap
     ethr =  6.80E-04,  avg # of iterations =  1.0

     total cpu time spent up to now is        1.2 secs

     total energy              =    -122.39229186 Ry
     Harris-Foulkes estimate   =    -122.45187452 Ry
     estimated scf accuracy    <       0.07490998 Ry

     iteration #  2     ecut=   100.00 Ry     beta= 0.70
     Davidson diagonalization with overlap
     ethr =  6.81E-04,  avg # of iterations =  2.0

     total cpu time spent up to now is        1.3 secs

     total energy              =    -122.39195239 Ry
     Harris-Foulkes estimate   =    -122.49668342 Ry
     estimated scf accuracy    <       0.27198833 Ry

     iteration #  3     ecut=   100.00 Ry     beta= 0.70
     Davidson diagonalization with overlap
     ethr =  6.81E-04,  avg # of iterations =  2.5

     total cpu time spent up to now is        1.4 secs

     total energy              =    -122.43595995 Ry
     Harris-Foulkes estimate   =    -122.43598712 Ry
     estimated scf accuracy    <       0.00010306 Ry

     iteration #  4     ecut=   100.00 Ry     beta= 0.70
     Davidson diagonalization with overlap
     ethr =  9.37E-07,  avg # of iterations =  2.8

     total cpu time spent up to now is        1.4 secs

     total energy              =    -122.43609895 Ry
     Harris-Foulkes estimate   =    -122.43609990 Ry
     estimated scf accuracy    <       0.00000668 Ry

     iteration #  5     ecut=   100.00 Ry     beta= 0.70
     Davidson diagonalization with overlap
     ethr =  6.07E-08,  avg # of iterations =  1.0

     total cpu time spent up to now is        1.5 secs

     total energy              =    -122.43609955 Ry
     Harris-Foulkes estimate   =    -122.43609949 Ry
     estimated scf accuracy    <       0.00000017 Ry

     iteration #  6     ecut=   100.00 Ry     beta= 0.70
     Davidson diagonalization with overlap
     ethr =  1.54E-09,  avg # of iterations =  1.8

     total cpu time spent up to now is        1.6 secs

     End of self-consistent calculation

          k = 0.0000 0.0000 0.0000 (  1363 PWs)   bands (ev):

     3.0465   9.4169   9.4169   9.4169  10.2436  10.2436  35.3949  37.7454
    37.7454  37.7454

          k =-0.3333 0.3333-0.3333 (  1356 PWs)   bands (ev):

     6.4176   9.4053   9.4963   9.4963  10.5478  10.5478  21.0372  34.5056
    34.7544  34.7544

          k = 0.0000 0.6667 0.0000 (  1347 PWs)   bands (ev):

     7.1265   8.3484  10.3452  10.4905  10.4905  10.6579  26.0941  27.3989
    27.3989  30.6443

          k = 0.6667-0.0000 0.6667 (  1316 PWs)   bands (ev):

     8.3812   8.5492   9.2839  10.1725  10.6221  15.6756  18.3520  20.9171
    29.0620  32.3360

     the Fermi energy is    10.7752 ev

!    total energy              =    -122.43609955 Ry
     Harris-Foulkes estimate   =    -122.43609956 Ry
     estimated scf accuracy    <          8.9E-09 Ry

     The total energy is the sum of the following terms:

     one-electron contribution =     -27.58465735 Ry
     hartree contribution      =      30.47390260 Ry
     xc contribution           =     -44.09857756 Ry
     ewald contribution        =     -81.22522855 Ry
     smearing contrib. (-TS)   =      -0.00153870 Ry

     convergence has been achieved in   6 iterations

     Forces acting on atoms (cartesian axes, Ry/au):

     atom    1 type  1   force =     0.00000000    0.00000000    0.00000000

     Total force =     0.000000     Total SCF correction =     0.000000


     Computing stress (Cartesian axis) and pressure

          total   stress  (Ry/bohr**3)                   (kbar)     P=  -97.76
  -0.00066459   0.00000000  -0.00000000        -97.76      0.00     -0.00
   0.00000000  -0.00066459   0.00000000          0.00    -97.76      0.00
   0.00000000   0.00000000  -0.00066459          0.00      0.00    -97.76


     Writing output data file Cu.save/

     init_run     :      0.24s CPU      0.24s WALL (       1 calls)
     electrons    :      0.62s CPU      0.65s WALL (       1 calls)
     forces       :      0.04s CPU      0.04s WALL (       1 calls)
     stress       :      0.12s CPU      0.12s WALL (       1 calls)

     Called by init_run:
     wfcinit      :      0.02s CPU      0.02s WALL (       1 calls)
     potinit      :      0.01s CPU      0.01s WALL (       1 calls)
     hinit0       :      0.19s CPU      0.19s WALL (       1 calls)

     Called by electrons:
     c_bands      :      0.35s CPU      0.37s WALL (       7 calls)
     sum_band     :      0.15s CPU      0.16s WALL (       7 calls)
     v_of_rho     :      0.05s CPU      0.05s WALL (       7 calls)
     newd         :      0.07s CPU      0.08s WALL (       7 calls)
     mix_rho      :      0.00s CPU      0.00s WALL (       7 calls)

     Called by c_bands:
     init_us_2    :      0.01s CPU      0.01s WALL (      68 calls)
     cegterg      :      0.33s CPU      0.35s WALL (      28 calls)

     Called by sum_band:
     sum_band:bec :      0.00s CPU      0.00s WALL (      28 calls)
     addusdens    :      0.08s CPU      0.08s WALL (       7 calls)

     Called by *egterg:
     h_psi        :      0.27s CPU      0.28s WALL (      93 calls)
     s_psi        :      0.01s CPU      0.01s WALL (      93 calls)
     g_psi        :      0.00s CPU      0.00s WALL (      61 calls)
     cdiaghg      :      0.02s CPU      0.02s WALL (      85 calls)

     Called by h_psi:
     h_psi:pot    :      0.26s CPU      0.28s WALL (      93 calls)
     h_psi:calbec :      0.01s CPU      0.01s WALL (      93 calls)
     vloc_psi     :      0.24s CPU      0.26s WALL (      93 calls)
     add_vuspsi   :      0.01s CPU      0.01s WALL (      93 calls)

     General routines
     calbec       :      0.02s CPU      0.02s WALL (     141 calls)
     fft          :      0.03s CPU      0.03s WALL (     104 calls)
     ffts         :      0.00s CPU      0.00s WALL (       7 calls)
     fftw         :      0.27s CPU      0.29s WALL (    1700 calls)

     Parallel routines
     fft_scatt_xy :      0.03s CPU      0.03s WALL (    1811 calls)
     fft_scatt_yz :      0.10s CPU      0.11s WALL (    1811 calls)

     PWSCF        :     1.73s CPU         1.80s WALL


   This run was terminated on:  23: 7: 2  25Mar2024            

=------------------------------------------------------------------------------=
   JOB DONE.
=------------------------------------------------------------------------------=
