
     Program PWSCF v.6.3MaX starts on 25Mar2024 at 23:48:12 

     This program is part of the open-source Quantum ESPRESSO suite
     for quantum simulation of materials; please cite
         "P. Giannozzi et al., J. Phys.:Condens. Matter 21 395502 (2009);
         "P. Giannozzi et al., J. Phys.:Condens. Matter 29 465901 (2017);
          URL http://www.quantum-espresso.org", 
     in publications or presentations arising from this work. More details at
     http://www.quantum-espresso.org/quote

     Parallel version (MPI), running on     5 processors

     MPI processes distributed on     1 nodes
     R & G space division:  proc/nbgrp/npool/nimage =       5
     Waiting for input...
     Reading input from standard input

     Current dimensions of program PWSCF are:
     Max number of different atomic species (ntypx) = 10
     Max number of k-points (npk) =  40000
     Max angular momentum in pseudopotentials (lmaxx) =  3
               file Cu.pbe-dn-rrkjus_psl.1.0.0.UPF: wavefunction(s)  3D renormalized

     Subspace diagonalization in iterative solution of the eigenvalue problem:
     a serial algorithm will be used


     Parallelization info
     --------------------
     sticks:   dense  smooth     PW     G-vecs:    dense   smooth      PW
     Min         119     119     39                 1967     1967     361
     Max         119     119     40                 1969     1969     363
     Sum         595     595    199                 9841     9841    1807



     bravais-lattice index     =            2
     lattice parameter (alat)  =       6.8300  a.u.
     unit-cell volume          =      79.6530 (a.u.)^3
     number of atoms/cell      =            1
     number of atomic types    =            1
     number of electrons       =        11.00
     number of Kohn-Sham states=           10
     kinetic-energy cutoff     =      95.0000  Ry
     charge density cutoff     =     380.0000  Ry
     convergence threshold     =      1.0E-08
     mixing beta               =       0.7000
     number of iterations used =            8  plain     mixing
     Exchange-correlation      = PBE ( 1  4  3  4 0 0)

     celldm(1)=   6.830000  celldm(2)=   0.000000  celldm(3)=   0.000000
     celldm(4)=   0.000000  celldm(5)=   0.000000  celldm(6)=   0.000000

     crystal axes: (cart. coord. in units of alat)
               a(1) = (  -0.500000   0.000000   0.500000 )  
               a(2) = (   0.000000   0.500000   0.500000 )  
               a(3) = (  -0.500000   0.500000   0.000000 )  

     reciprocal axes: (cart. coord. in units 2 pi/alat)
               b(1) = ( -1.000000 -1.000000  1.000000 )  
               b(2) = (  1.000000  1.000000  1.000000 )  
               b(3) = ( -1.000000  1.000000 -1.000000 )  


     PseudoPot. # 1 for Cu read from file:
     /home/lorenzo/pseudos/Cu/Cu.pbe-dn-rrkjus_psl.1.0.0.UPF
     MD5 check sum: ba3d6c84e19846e79d48cdc68ff7152b
     Pseudo is Ultrasoft + core correction, Zval = 11.0
     Generated using "atomic" code by A. Dal Corso v.6.3
     Using radial grid of 1199 points,  6 beta functions with: 
                l(1) =   0
                l(2) =   0
                l(3) =   1
                l(4) =   1
                l(5) =   2
                l(6) =   2
     Q(r) pseudized with 0 coefficients 


     atomic species   valence    mass     pseudopotential
        Cu            11.00    63.54600     Cu( 1.00)

     48 Sym. Ops., with inversion, found



   Cartesian axes

     site n.     atom                  positions (alat units)
         1           Cu  tau(   1) = (   0.0000000   0.0000000   0.0000000  )

     number of k points=    16  gaussian smearing, width (Ry)=  0.0100
                       cart. coord. in units 2pi/alat
        k(    1) = (   0.0000000   0.0000000   0.0000000), wk =   0.0092593
        k(    2) = (  -0.1666667   0.1666667  -0.1666667), wk =   0.0740741
        k(    3) = (  -0.3333333   0.3333333  -0.3333333), wk =   0.0740741
        k(    4) = (   0.5000000  -0.5000000   0.5000000), wk =   0.0370370
        k(    5) = (   0.0000000   0.3333333   0.0000000), wk =   0.0555556
        k(    6) = (  -0.1666667   0.5000000  -0.1666667), wk =   0.2222222
        k(    7) = (   0.6666667  -0.3333333   0.6666667), wk =   0.2222222
        k(    8) = (   0.5000000  -0.1666667   0.5000000), wk =   0.2222222
        k(    9) = (   0.3333333   0.0000000   0.3333333), wk =   0.1111111
        k(   10) = (   0.0000000   0.6666667   0.0000000), wk =   0.0555556
        k(   11) = (   0.8333333  -0.1666667   0.8333333), wk =   0.2222222
        k(   12) = (   0.6666667  -0.0000000   0.6666667), wk =   0.1111111
        k(   13) = (   0.0000000  -1.0000000   0.0000000), wk =   0.0277778
        k(   14) = (   0.6666667  -0.3333333   1.0000000), wk =   0.2222222
        k(   15) = (   0.5000000  -0.1666667   0.8333333), wk =   0.2222222
        k(   16) = (  -0.3333333  -1.0000000   0.0000000), wk =   0.1111111

     Dense  grid:     9841 G-vectors     FFT dimensions: (  30,  30,  30)

     Estimated max dynamical RAM per process >       9.64 MB

     Estimated total dynamical RAM >      48.22 MB

     Initial potential from superposition of free atoms

     starting charge   10.99977, renormalised to   11.00000
     Starting wfcs are    9 randomized atomic wfcs +    1 random wfcs

     total cpu time spent up to now is        1.0 secs

     Self-consistent Calculation

     iteration #  1     ecut=    95.00 Ry     beta= 0.70
     Davidson diagonalization with overlap
     ethr =  1.00E-02,  avg # of iterations =  3.8

     Threshold (ethr) on eigenvalues was too large:
     Diagonalizing with lowered threshold

     Davidson diagonalization with overlap
     ethr =  5.56E-04,  avg # of iterations =  1.0

     total cpu time spent up to now is        1.5 secs

     total energy              =    -122.70690115 Ry
     Harris-Foulkes estimate   =    -122.75465626 Ry
     estimated scf accuracy    <       0.06091879 Ry

     iteration #  2     ecut=    95.00 Ry     beta= 0.70
     Davidson diagonalization with overlap
     ethr =  5.54E-04,  avg # of iterations =  2.0

     total cpu time spent up to now is        1.7 secs

     total energy              =    -122.70672663 Ry
     Harris-Foulkes estimate   =    -122.79182217 Ry
     estimated scf accuracy    <       0.22147236 Ry

     iteration #  3     ecut=    95.00 Ry     beta= 0.70
     Davidson diagonalization with overlap
     ethr =  5.54E-04,  avg # of iterations =  2.1

     total cpu time spent up to now is        1.9 secs

     total energy              =    -122.74268530 Ry
     Harris-Foulkes estimate   =    -122.74268778 Ry
     estimated scf accuracy    <       0.00004046 Ry

     iteration #  4     ecut=    95.00 Ry     beta= 0.70
     Davidson diagonalization with overlap
     ethr =  3.68E-07,  avg # of iterations =  2.8

     total cpu time spent up to now is        2.1 secs

     total energy              =    -122.74272777 Ry
     Harris-Foulkes estimate   =    -122.74273010 Ry
     estimated scf accuracy    <       0.00000855 Ry

     iteration #  5     ecut=    95.00 Ry     beta= 0.70
     Davidson diagonalization with overlap
     ethr =  7.77E-08,  avg # of iterations =  1.2

     total cpu time spent up to now is        2.3 secs

     total energy              =    -122.74272931 Ry
     Harris-Foulkes estimate   =    -122.74272942 Ry
     estimated scf accuracy    <       0.00000036 Ry

     iteration #  6     ecut=    95.00 Ry     beta= 0.70
     Davidson diagonalization with overlap
     ethr =  3.25E-09,  avg # of iterations =  1.3

     total cpu time spent up to now is        2.6 secs

     End of self-consistent calculation

          k = 0.0000 0.0000 0.0000 (  1243 PWs)   bands (ev):

     3.2755   9.6805   9.6805   9.6805  10.5076  10.5076  35.5986  37.9930
    37.9930  37.9930

          k =-0.1667 0.1667-0.1667 (  1260 PWs)   bands (ev):

     4.2641   9.5027   9.8202   9.8202  10.4821  10.4821  29.3415  35.9400
    36.2363  36.2363

          k =-0.3333 0.3333-0.3333 (  1236 PWs)   bands (ev):

     6.6541   9.6572   9.7593   9.7593  10.8123  10.8123  21.2803  34.7108
    35.0136  35.0136

          k = 0.5000-0.5000 0.5000 (  1224 PWs)   bands (ev):

     7.5939   9.6439   9.6439  11.0851  11.0851  11.6357  16.4353  34.0036
    34.7593  34.7593

          k = 0.0000 0.3333 0.0000 (  1267 PWs)   bands (ev):

     4.5863   9.3128   9.9938   9.9938  10.1968  10.6443  32.4470  32.4470
    32.9448  34.6145

          k =-0.1667 0.5000-0.1667 (  1248 PWs)   bands (ev):

     6.5515   9.0537   9.7282  10.1216  10.8377  10.9041  24.4677  30.5287
    31.5809  33.3943

          k = 0.6667-0.3333 0.6667 (  1235 PWs)   bands (ev):

     8.0212   9.2639   9.7504   9.9710  11.1049  13.1510  17.6900  28.4452
    30.8061  33.0877

          k = 0.5000-0.1667 0.5000 (  1246 PWs)   bands (ev):

     7.8390   9.4348   9.5085   9.9621  10.7380  12.3382  19.6720  26.9112
    33.4168  34.4110

          k = 0.3333 0.0000 0.3333 (  1255 PWs)   bands (ev):

     5.7832   9.2522   9.7875  10.1086  10.2084  10.9874  26.9077  27.6131
    37.5128  37.9465

          k = 0.0000 0.6667 0.0000 (  1258 PWs)   bands (ev):

     7.3671   8.6079  10.5950  10.7552  10.7552  10.9222  26.3333  27.6499
    27.6499  30.8798

          k = 0.8333-0.1667 0.8333 (  1242 PWs)   bands (ev):

     8.0866   8.5257  10.2271  10.6997  11.1525  13.8823  21.6286  22.5395
    27.1721  31.7177

          k = 0.6667-0.0000 0.6667 (  1234 PWs)   bands (ev):

     8.6385   8.8021   9.5420  10.4355  10.8872  15.9195  18.5957  21.1587
    29.3152  32.5657

          k = 0.0000-1.0000 0.0000 (  1234 PWs)   bands (ev):

     7.7974   8.2698  11.0636  11.2317  11.2317  14.1412  19.7850  25.7680
    25.7680  30.2610

          k = 0.6667-0.3333 1.0000 (  1248 PWs)   bands (ev):

     8.1234   8.8771   9.3939  10.5527  10.7543  12.6145  22.9339  23.9504
    27.4259  37.4416

          k = 0.5000-0.1667 0.8333 (  1236 PWs)   bands (ev):

     8.7591   8.7889   9.3629  10.3632  11.0545  16.2304  17.4646  24.4236
    24.6649  37.7737

          k =-0.3333-1.0000 0.0000 (  1246 PWs)   bands (ev):

     8.3149   8.6584   9.8732  10.6576  11.2322  16.6946  20.3309  21.3594
    22.6830  36.3985

     the Fermi energy is    12.6453 ev

!    total energy              =    -122.74272935 Ry
     Harris-Foulkes estimate   =    -122.74272935 Ry
     estimated scf accuracy    <          2.4E-09 Ry

     The total energy is the sum of the following terms:

     one-electron contribution =     -27.50307410 Ry
     hartree contribution      =      30.61400095 Ry
     xc contribution           =     -44.62782832 Ry
     ewald contribution        =     -81.22522855 Ry
     smearing contrib. (-TS)   =      -0.00059934 Ry

     convergence has been achieved in   6 iterations

     Forces acting on atoms (cartesian axes, Ry/au):

     atom    1 type  1   force =     0.00000000    0.00000000    0.00000000

     Total force =     0.000000     Total SCF correction =     0.000000


     Computing stress (Cartesian axis) and pressure

          total   stress  (Ry/bohr**3)                   (kbar)     P=   40.14
   0.00027287  -0.00000000  -0.00000000         40.14     -0.00     -0.00
  -0.00000000   0.00027287   0.00000000         -0.00     40.14      0.00
  -0.00000000   0.00000000   0.00027287         -0.00      0.00     40.14


     Writing output data file Cu.save/

     init_run     :      0.26s CPU      0.27s WALL (       1 calls)
     electrons    :      1.46s CPU      1.51s WALL (       1 calls)
     forces       :      0.04s CPU      0.04s WALL (       1 calls)
     stress       :      0.14s CPU      0.14s WALL (       1 calls)

     Called by init_run:
     wfcinit      :      0.06s CPU      0.06s WALL (       1 calls)
     potinit      :      0.01s CPU      0.01s WALL (       1 calls)
     hinit0       :      0.18s CPU      0.18s WALL (       1 calls)

     Called by electrons:
     c_bands      :      1.07s CPU      1.11s WALL (       7 calls)
     sum_band     :      0.28s CPU      0.30s WALL (       7 calls)
     v_of_rho     :      0.04s CPU      0.04s WALL (       7 calls)
     newd         :      0.07s CPU      0.08s WALL (       7 calls)
     mix_rho      :      0.00s CPU      0.00s WALL (       7 calls)

     Called by c_bands:
     init_us_2    :      0.04s CPU      0.04s WALL (     272 calls)
     cegterg      :      1.01s CPU      1.05s WALL (     112 calls)

     Called by sum_band:
     sum_band:bec :      0.00s CPU      0.00s WALL (     112 calls)
     addusdens    :      0.06s CPU      0.07s WALL (       7 calls)

     Called by *egterg:
     h_psi        :      0.83s CPU      0.86s WALL (     355 calls)
     s_psi        :      0.03s CPU      0.03s WALL (     355 calls)
     g_psi        :      0.00s CPU      0.00s WALL (     227 calls)
     cdiaghg      :      0.07s CPU      0.07s WALL (     323 calls)

     Called by h_psi:
     h_psi:pot    :      0.82s CPU      0.85s WALL (     355 calls)
     h_psi:calbec :      0.04s CPU      0.04s WALL (     355 calls)
     vloc_psi     :      0.76s CPU      0.78s WALL (     355 calls)
     add_vuspsi   :      0.03s CPU      0.03s WALL (     355 calls)

     General routines
     calbec       :      0.07s CPU      0.07s WALL (     547 calls)
     fft          :      0.03s CPU      0.03s WALL (     104 calls)
     ffts         :      0.00s CPU      0.00s WALL (       7 calls)
     fftw         :      0.87s CPU      0.90s WALL (    6780 calls)

     Parallel routines
     fft_scatt_xy :      0.07s CPU      0.07s WALL (    6891 calls)
     fft_scatt_yz :      0.27s CPU      0.27s WALL (    6891 calls)

     PWSCF        :     2.70s CPU         2.80s WALL


   This run was terminated on:  23:48:15  25Mar2024            

=------------------------------------------------------------------------------=
   JOB DONE.
=------------------------------------------------------------------------------=
