
     Program PWSCF v.6.3MaX starts on 25Mar2024 at 23:36:25 

     This program is part of the open-source Quantum ESPRESSO suite
     for quantum simulation of materials; please cite
         "P. Giannozzi et al., J. Phys.:Condens. Matter 21 395502 (2009);
         "P. Giannozzi et al., J. Phys.:Condens. Matter 29 465901 (2017);
          URL http://www.quantum-espresso.org", 
     in publications or presentations arising from this work. More details at
     http://www.quantum-espresso.org/quote

     Parallel version (MPI), running on     5 processors

     MPI processes distributed on     1 nodes
     R & G space division:  proc/nbgrp/npool/nimage =       5
     Waiting for input...
     Reading input from standard input

     Current dimensions of program PWSCF are:
     Max number of different atomic species (ntypx) = 10
     Max number of k-points (npk) =  40000
     Max angular momentum in pseudopotentials (lmaxx) =  3
               file Cu.pbe-dn-rrkjus_psl.1.0.0.UPF: wavefunction(s)  3D renormalized

     Subspace diagonalization in iterative solution of the eigenvalue problem:
     a serial algorithm will be used


     Parallelization info
     --------------------
     sticks:   dense  smooth     PW     G-vecs:    dense   smooth      PW
     Min          95      95     30                 1375     1375     248
     Max          95      95     31                 1376     1376     251
     Sum         475     475    151                 6879     6879    1243



     bravais-lattice index     =            2
     lattice parameter (alat)  =       6.8300  a.u.
     unit-cell volume          =      79.6530 (a.u.)^3
     number of atoms/cell      =            1
     number of atomic types    =            1
     number of electrons       =        11.00
     number of Kohn-Sham states=           10
     kinetic-energy cutoff     =      75.0000  Ry
     charge density cutoff     =     300.0000  Ry
     convergence threshold     =      1.0E-08
     mixing beta               =       0.7000
     number of iterations used =            8  plain     mixing
     Exchange-correlation      = PBE ( 1  4  3  4 0 0)

     celldm(1)=   6.830000  celldm(2)=   0.000000  celldm(3)=   0.000000
     celldm(4)=   0.000000  celldm(5)=   0.000000  celldm(6)=   0.000000

     crystal axes: (cart. coord. in units of alat)
               a(1) = (  -0.500000   0.000000   0.500000 )  
               a(2) = (   0.000000   0.500000   0.500000 )  
               a(3) = (  -0.500000   0.500000   0.000000 )  

     reciprocal axes: (cart. coord. in units 2 pi/alat)
               b(1) = ( -1.000000 -1.000000  1.000000 )  
               b(2) = (  1.000000  1.000000  1.000000 )  
               b(3) = ( -1.000000  1.000000 -1.000000 )  


     PseudoPot. # 1 for Cu read from file:
     /home/lorenzo/pseudos/Cu/Cu.pbe-dn-rrkjus_psl.1.0.0.UPF
     MD5 check sum: ba3d6c84e19846e79d48cdc68ff7152b
     Pseudo is Ultrasoft + core correction, Zval = 11.0
     Generated using "atomic" code by A. Dal Corso v.6.3
     Using radial grid of 1199 points,  6 beta functions with: 
                l(1) =   0
                l(2) =   0
                l(3) =   1
                l(4) =   1
                l(5) =   2
                l(6) =   2
     Q(r) pseudized with 0 coefficients 


     atomic species   valence    mass     pseudopotential
        Cu            11.00    63.54600     Cu( 1.00)

     48 Sym. Ops., with inversion, found



   Cartesian axes

     site n.     atom                  positions (alat units)
         1           Cu  tau(   1) = (   0.0000000   0.0000000   0.0000000  )

     number of k points=    16  gaussian smearing, width (Ry)=  0.0100
                       cart. coord. in units 2pi/alat
        k(    1) = (   0.0000000   0.0000000   0.0000000), wk =   0.0092593
        k(    2) = (  -0.1666667   0.1666667  -0.1666667), wk =   0.0740741
        k(    3) = (  -0.3333333   0.3333333  -0.3333333), wk =   0.0740741
        k(    4) = (   0.5000000  -0.5000000   0.5000000), wk =   0.0370370
        k(    5) = (   0.0000000   0.3333333   0.0000000), wk =   0.0555556
        k(    6) = (  -0.1666667   0.5000000  -0.1666667), wk =   0.2222222
        k(    7) = (   0.6666667  -0.3333333   0.6666667), wk =   0.2222222
        k(    8) = (   0.5000000  -0.1666667   0.5000000), wk =   0.2222222
        k(    9) = (   0.3333333   0.0000000   0.3333333), wk =   0.1111111
        k(   10) = (   0.0000000   0.6666667   0.0000000), wk =   0.0555556
        k(   11) = (   0.8333333  -0.1666667   0.8333333), wk =   0.2222222
        k(   12) = (   0.6666667  -0.0000000   0.6666667), wk =   0.1111111
        k(   13) = (   0.0000000  -1.0000000   0.0000000), wk =   0.0277778
        k(   14) = (   0.6666667  -0.3333333   1.0000000), wk =   0.2222222
        k(   15) = (   0.5000000  -0.1666667   0.8333333), wk =   0.2222222
        k(   16) = (  -0.3333333  -1.0000000   0.0000000), wk =   0.1111111

     Dense  grid:     6879 G-vectors     FFT dimensions: (  27,  27,  27)

     Estimated max dynamical RAM per process >       7.10 MB

     Estimated total dynamical RAM >      35.51 MB

     Initial potential from superposition of free atoms

     starting charge   10.99977, renormalised to   11.00000
     Starting wfcs are    9 randomized atomic wfcs +    1 random wfcs

     total cpu time spent up to now is        0.9 secs

     Self-consistent Calculation

     iteration #  1     ecut=    75.00 Ry     beta= 0.70
     Davidson diagonalization with overlap
     ethr =  1.00E-02,  avg # of iterations =  3.8

     Threshold (ethr) on eigenvalues was too large:
     Diagonalizing with lowered threshold

     Davidson diagonalization with overlap
     ethr =  5.56E-04,  avg # of iterations =  1.0

     total cpu time spent up to now is        1.3 secs

     total energy              =    -122.70676194 Ry
     Harris-Foulkes estimate   =    -122.75446465 Ry
     estimated scf accuracy    <       0.06086573 Ry

     iteration #  2     ecut=    75.00 Ry     beta= 0.70
     Davidson diagonalization with overlap
     ethr =  5.53E-04,  avg # of iterations =  2.1

     total cpu time spent up to now is        1.4 secs

     total energy              =    -122.70658475 Ry
     Harris-Foulkes estimate   =    -122.79158699 Ry
     estimated scf accuracy    <       0.22121539 Ry

     iteration #  3     ecut=    75.00 Ry     beta= 0.70
     Davidson diagonalization with overlap
     ethr =  5.53E-04,  avg # of iterations =  2.0

     total cpu time spent up to now is        1.6 secs

     total energy              =    -122.74250834 Ry
     Harris-Foulkes estimate   =    -122.74251041 Ry
     estimated scf accuracy    <       0.00004032 Ry

     iteration #  4     ecut=    75.00 Ry     beta= 0.70
     Davidson diagonalization with overlap
     ethr =  3.67E-07,  avg # of iterations =  2.8

     total cpu time spent up to now is        1.8 secs

     total energy              =    -122.74255089 Ry
     Harris-Foulkes estimate   =    -122.74255318 Ry
     estimated scf accuracy    <       0.00000850 Ry

     iteration #  5     ecut=    75.00 Ry     beta= 0.70
     Davidson diagonalization with overlap
     ethr =  7.73E-08,  avg # of iterations =  1.2

     total cpu time spent up to now is        2.0 secs

     total energy              =    -122.74255241 Ry
     Harris-Foulkes estimate   =    -122.74255252 Ry
     estimated scf accuracy    <       0.00000034 Ry

     iteration #  6     ecut=    75.00 Ry     beta= 0.70
     Davidson diagonalization with overlap
     ethr =  3.10E-09,  avg # of iterations =  1.3

     total cpu time spent up to now is        2.1 secs

     End of self-consistent calculation

          k = 0.0000 0.0000 0.0000 (   893 PWs)   bands (ev):

     3.2756   9.6809   9.6809   9.6809  10.5081  10.5081  35.5985  37.9931
    37.9931  37.9931

          k =-0.1667 0.1667-0.1667 (   887 PWs)   bands (ev):

     4.2641   9.5032   9.8206   9.8206  10.4825  10.4825  29.3416  35.9400
    36.2365  36.2365

          k =-0.3333 0.3333-0.3333 (   878 PWs)   bands (ev):

     6.6542   9.6575   9.7597   9.7597  10.8129  10.8129  21.2804  34.7108
    35.0138  35.0138

          k = 0.5000-0.5000 0.5000 (   862 PWs)   bands (ev):

     7.5942   9.6443   9.6443  11.0857  11.0857  11.6357  16.4355  34.0036
    34.7594  34.7594

          k = 0.0000 0.3333 0.0000 (   877 PWs)   bands (ev):

     4.5863   9.3132   9.9943   9.9943  10.1973  10.6448  32.4472  32.4472
    32.9448  34.6146

          k =-0.1667 0.5000-0.1667 (   874 PWs)   bands (ev):

     6.5516   9.0541   9.7286  10.1221  10.8381  10.9046  24.4678  30.5289
    31.5809  33.3944

          k = 0.6667-0.3333 0.6667 (   866 PWs)   bands (ev):

     8.0215   9.2644   9.7508   9.9715  11.1054  13.1512  17.6902  28.4453
    30.8062  33.0878

          k = 0.5000-0.1667 0.5000 (   874 PWs)   bands (ev):

     7.8392   9.4352   9.5089   9.9626  10.7385  12.3385  19.6721  26.9113
    33.4170  34.4110

          k = 0.3333 0.0000 0.3333 (   887 PWs)   bands (ev):

     5.7833   9.2526   9.7879  10.1090  10.2088  10.9878  26.9078  27.6132
    37.5129  37.9466

          k = 0.0000 0.6667 0.0000 (   866 PWs)   bands (ev):

     7.3673   8.6083  10.5953  10.7557  10.7557  10.9227  26.3334  27.6500
    27.6500  30.8799

          k = 0.8333-0.1667 0.8333 (   867 PWs)   bands (ev):

     8.0870   8.5261  10.2275  10.7002  11.1531  13.8825  21.6287  22.5396
    27.1721  31.7178

          k = 0.6667-0.0000 0.6667 (   866 PWs)   bands (ev):

     8.6389   8.8024   9.5424  10.4360  10.8877  15.9197  18.5959  21.1588
    29.3153  32.5658

          k = 0.0000-1.0000 0.0000 (   846 PWs)   bands (ev):

     7.7978   8.2703  11.0641  11.2322  11.2322  14.1412  19.7851  25.7681
    25.7681  30.2612

          k = 0.6667-0.3333 1.0000 (   878 PWs)   bands (ev):

     8.1236   8.8775   9.3944  10.5531  10.7548  12.6148  22.9340  23.9505
    27.4260  37.4417

          k = 0.5000-0.1667 0.8333 (   874 PWs)   bands (ev):

     8.7595   8.7893   9.3633  10.3637  11.0550  16.2306  17.4647  24.4237
    24.6650  37.7738

          k =-0.3333-1.0000 0.0000 (   878 PWs)   bands (ev):

     8.3153   8.6588   9.8737  10.6580  11.2328  16.6947  20.3311  21.3595
    22.6831  36.3986

     the Fermi energy is    12.6456 ev

!    total energy              =    -122.74255245 Ry
     Harris-Foulkes estimate   =    -122.74255245 Ry
     estimated scf accuracy    <          2.3E-09 Ry

     The total energy is the sum of the following terms:

     one-electron contribution =     -27.50290230 Ry
     hartree contribution      =      30.61414273 Ry
     xc contribution           =     -44.62796500 Ry
     ewald contribution        =     -81.22522855 Ry
     smearing contrib. (-TS)   =      -0.00059934 Ry

     convergence has been achieved in   6 iterations

     Forces acting on atoms (cartesian axes, Ry/au):

     atom    1 type  1   force =     0.00000000    0.00000000    0.00000000

     Total force =     0.000000     Total SCF correction =     0.000000


     Computing stress (Cartesian axis) and pressure

          total   stress  (Ry/bohr**3)                   (kbar)     P=   38.11
   0.00025905   0.00000000   0.00000000         38.11      0.00      0.00
  -0.00000000   0.00025905   0.00000000         -0.00     38.11      0.00
  -0.00000000  -0.00000000   0.00025905         -0.00     -0.00     38.11


     Writing output data file Cu.save/

     init_run     :      0.22s CPU      0.23s WALL (       1 calls)
     electrons    :      1.13s CPU      1.19s WALL (       1 calls)
     forces       :      0.04s CPU      0.04s WALL (       1 calls)
     stress       :      0.10s CPU      0.10s WALL (       1 calls)

     Called by init_run:
     wfcinit      :      0.04s CPU      0.04s WALL (       1 calls)
     potinit      :      0.01s CPU      0.01s WALL (       1 calls)
     hinit0       :      0.15s CPU      0.15s WALL (       1 calls)

     Called by electrons:
     c_bands      :      0.84s CPU      0.88s WALL (       7 calls)
     sum_band     :      0.22s CPU      0.23s WALL (       7 calls)
     v_of_rho     :      0.03s CPU      0.03s WALL (       7 calls)
     newd         :      0.05s CPU      0.05s WALL (       7 calls)
     mix_rho      :      0.00s CPU      0.00s WALL (       7 calls)

     Called by c_bands:
     init_us_2    :      0.03s CPU      0.03s WALL (     272 calls)
     cegterg      :      0.80s CPU      0.84s WALL (     112 calls)

     Called by sum_band:
     sum_band:bec :      0.00s CPU      0.00s WALL (     112 calls)
     addusdens    :      0.05s CPU      0.05s WALL (       7 calls)

     Called by *egterg:
     h_psi        :      0.65s CPU      0.68s WALL (     355 calls)
     s_psi        :      0.02s CPU      0.02s WALL (     355 calls)
     g_psi        :      0.00s CPU      0.00s WALL (     227 calls)
     cdiaghg      :      0.06s CPU      0.07s WALL (     323 calls)

     Called by h_psi:
     h_psi:pot    :      0.65s CPU      0.68s WALL (     355 calls)
     h_psi:calbec :      0.04s CPU      0.04s WALL (     355 calls)
     vloc_psi     :      0.59s CPU      0.62s WALL (     355 calls)
     add_vuspsi   :      0.02s CPU      0.02s WALL (     355 calls)

     General routines
     calbec       :      0.06s CPU      0.06s WALL (     547 calls)
     fft          :      0.02s CPU      0.03s WALL (     104 calls)
     ffts         :      0.00s CPU      0.00s WALL (       7 calls)
     fftw         :      0.68s CPU      0.71s WALL (    6786 calls)

     Parallel routines
     fft_scatt_xy :      0.06s CPU      0.06s WALL (    6897 calls)
     fft_scatt_yz :      0.18s CPU      0.19s WALL (    6897 calls)

     PWSCF        :     2.21s CPU         2.31s WALL


   This run was terminated on:  23:36:28  25Mar2024            

=------------------------------------------------------------------------------=
   JOB DONE.
=------------------------------------------------------------------------------=
