
     Program PWSCF v.6.3MaX starts on 25Mar2024 at 23:41:47 

     This program is part of the open-source Quantum ESPRESSO suite
     for quantum simulation of materials; please cite
         "P. Giannozzi et al., J. Phys.:Condens. Matter 21 395502 (2009);
         "P. Giannozzi et al., J. Phys.:Condens. Matter 29 465901 (2017);
          URL http://www.quantum-espresso.org", 
     in publications or presentations arising from this work. More details at
     http://www.quantum-espresso.org/quote

     Parallel version (MPI), running on     5 processors

     MPI processes distributed on     1 nodes
     R & G space division:  proc/nbgrp/npool/nimage =       5
     Waiting for input...
     Reading input from standard input

     Current dimensions of program PWSCF are:
     Max number of different atomic species (ntypx) = 10
     Max number of k-points (npk) =  40000
     Max angular momentum in pseudopotentials (lmaxx) =  3
               file Cu.pbesol-dn-kjpaw_psl.1.0.0.UPF: wavefunction(s)  4S 3D renormalized

     Subspace diagonalization in iterative solution of the eigenvalue problem:
     a serial algorithm will be used


     Parallelization info
     --------------------
     sticks:   dense  smooth     PW     G-vecs:    dense   smooth      PW
     Min         109     109     32                 1678     1678     290
     Max         110     110     33                 1680     1680     293
     Sum         547     547    163                 8393     8393    1459



     bravais-lattice index     =            2
     lattice parameter (alat)  =       6.8300  a.u.
     unit-cell volume          =      79.6530 (a.u.)^3
     number of atoms/cell      =            1
     number of atomic types    =            1
     number of electrons       =        11.00
     number of Kohn-Sham states=           10
     kinetic-energy cutoff     =      85.0000  Ry
     charge density cutoff     =     340.0000  Ry
     convergence threshold     =      1.0E-08
     mixing beta               =       0.7000
     number of iterations used =            8  plain     mixing
     Exchange-correlation      = SLA PW PSX PSC ( 1  4 10  8 0 0)

     celldm(1)=   6.830000  celldm(2)=   0.000000  celldm(3)=   0.000000
     celldm(4)=   0.000000  celldm(5)=   0.000000  celldm(6)=   0.000000

     crystal axes: (cart. coord. in units of alat)
               a(1) = (  -0.500000   0.000000   0.500000 )  
               a(2) = (   0.000000   0.500000   0.500000 )  
               a(3) = (  -0.500000   0.500000   0.000000 )  

     reciprocal axes: (cart. coord. in units 2 pi/alat)
               b(1) = ( -1.000000 -1.000000  1.000000 )  
               b(2) = (  1.000000  1.000000  1.000000 )  
               b(3) = ( -1.000000  1.000000 -1.000000 )  


     PseudoPot. # 1 for Cu read from file:
     /home/lorenzo/pseudos/Cu/Cu.pbesol-dn-kjpaw_psl.1.0.0.UPF
     MD5 check sum: 1e9735a74797514c934643dbd229f231
     Pseudo is Projector augmented-wave + core cor, Zval = 11.0
     Generated using "atomic" code by A. Dal Corso v.6.3
     Shape of augmentation charge: PSQ
     Using radial grid of 1199 points,  6 beta functions with: 
                l(1) =   0
                l(2) =   0
                l(3) =   1
                l(4) =   1
                l(5) =   2
                l(6) =   2
     Q(r) pseudized with 0 coefficients 


     atomic species   valence    mass     pseudopotential
        Cu            11.00    63.54600     Cu( 1.00)

     48 Sym. Ops., with inversion, found



   Cartesian axes

     site n.     atom                  positions (alat units)
         1           Cu  tau(   1) = (   0.0000000   0.0000000   0.0000000  )

     number of k points=    10  gaussian smearing, width (Ry)=  0.0100
                       cart. coord. in units 2pi/alat
        k(    1) = (   0.0000000   0.0000000   0.0000000), wk =   0.0160000
        k(    2) = (  -0.2000000   0.2000000  -0.2000000), wk =   0.1280000
        k(    3) = (  -0.4000000   0.4000000  -0.4000000), wk =   0.1280000
        k(    4) = (   0.0000000   0.4000000   0.0000000), wk =   0.0960000
        k(    5) = (  -0.2000000   0.6000000  -0.2000000), wk =   0.3840000
        k(    6) = (   0.6000000  -0.2000000   0.6000000), wk =   0.3840000
        k(    7) = (   0.4000000   0.0000000   0.4000000), wk =   0.1920000
        k(    8) = (   0.0000000   0.8000000   0.0000000), wk =   0.0960000
        k(    9) = (   0.8000000   0.0000000   0.8000000), wk =   0.1920000
        k(   10) = (   0.6000000  -0.2000000   1.0000000), wk =   0.3840000

     Dense  grid:     8393 G-vectors     FFT dimensions: (  30,  30,  30)

     Estimated max dynamical RAM per process >       8.23 MB

     Estimated total dynamical RAM >      41.17 MB

     Initial potential from superposition of free atoms

     starting charge   10.99979, renormalised to   11.00000
     Starting wfcs are    9 randomized atomic wfcs +    1 random wfcs
     Checking if some PAW data can be deallocated... 

     total cpu time spent up to now is        1.2 secs

     Self-consistent Calculation

     iteration #  1     ecut=    85.00 Ry     beta= 0.70
     Davidson diagonalization with overlap
     ethr =  1.00E-02,  avg # of iterations =  3.5

     Threshold (ethr) on eigenvalues was too large:
     Diagonalizing with lowered threshold

     Davidson diagonalization with overlap
     ethr =  6.77E-04,  avg # of iterations =  1.8

     total cpu time spent up to now is        1.6 secs

     total energy              =    -210.38269634 Ry
     Harris-Foulkes estimate   =    -210.44193369 Ry
     estimated scf accuracy    <       0.07409038 Ry

     iteration #  2     ecut=    85.00 Ry     beta= 0.70
     Davidson diagonalization with overlap
     ethr =  6.74E-04,  avg # of iterations =  2.0

     total cpu time spent up to now is        1.9 secs

     total energy              =    -210.38711653 Ry
     Harris-Foulkes estimate   =    -210.49190093 Ry
     estimated scf accuracy    <       0.27286602 Ry

     iteration #  3     ecut=    85.00 Ry     beta= 0.70
     Davidson diagonalization with overlap
     ethr =  6.74E-04,  avg # of iterations =  2.0

     total cpu time spent up to now is        2.2 secs

     total energy              =    -210.42817593 Ry
     Harris-Foulkes estimate   =    -210.42840197 Ry
     estimated scf accuracy    <       0.00047375 Ry

     iteration #  4     ecut=    85.00 Ry     beta= 0.70
     Davidson diagonalization with overlap
     ethr =  4.31E-06,  avg # of iterations =  2.0

     total cpu time spent up to now is        2.4 secs

     total energy              =    -210.42832196 Ry
     Harris-Foulkes estimate   =    -210.42833460 Ry
     estimated scf accuracy    <       0.00003452 Ry

     iteration #  5     ecut=    85.00 Ry     beta= 0.70
     Davidson diagonalization with overlap
     ethr =  3.14E-07,  avg # of iterations =  1.5

     total cpu time spent up to now is        2.6 secs

     total energy              =    -210.42832838 Ry
     Harris-Foulkes estimate   =    -210.42832843 Ry
     estimated scf accuracy    <       0.00000009 Ry

     iteration #  6     ecut=    85.00 Ry     beta= 0.70
     Davidson diagonalization with overlap
     ethr =  8.54E-10,  avg # of iterations =  2.8

     total cpu time spent up to now is        2.9 secs

     End of self-consistent calculation

          k = 0.0000 0.0000 0.0000 (  1067 PWs)   bands (ev):

     3.0466   9.5193   9.5193   9.5193  10.3622  10.3622  35.3794  37.7557
    37.7557  37.7557

          k =-0.2000 0.2000-0.2000 (  1046 PWs)   bands (ev):

     4.4505   9.2891   9.6830   9.6830  10.3605  10.3605  27.3984  35.5258
    35.6616  35.6616

          k =-0.4000 0.4000-0.4000 (  1050 PWs)   bands (ev):

     7.1227   9.5337   9.5337  10.2076  10.8295  10.8295  18.4213  34.0558
    34.5894  34.5894

          k = 0.0000 0.4000 0.0000 (  1054 PWs)   bands (ev):

     4.9006   9.0096   9.9542   9.9654   9.9654  10.5530  31.0859  31.0859
    32.1863  33.2574

          k =-0.2000 0.6000-0.2000 (  1046 PWs)   bands (ev):

     7.2862   8.7727   9.4720  10.0467  10.9013  11.3913  22.0181  28.7749
    29.3299  32.4894

          k = 0.6000-0.2000 0.6000 (  1073 PWs)   bands (ev):

     8.0696   9.0232   9.5009   9.8944  10.8024  13.9408  17.1039  25.6493
    30.9703  33.0835

          k = 0.4000 0.0000 0.4000 (  1057 PWs)   bands (ev):

     6.4859   9.0084   9.4990  10.0161  10.1091  11.2290  24.7917  25.5975
    35.6859  35.9365

          k = 0.0000 0.8000 0.0000 (  1042 PWs)   bands (ev):

     7.5620   8.2263  10.8680  10.8889  10.8889  11.8727  22.6317  26.2299
    26.2299  30.2724

          k = 0.8000 0.0000 0.8000 (  1057 PWs)   bands (ev):

     8.0313   8.3409  10.0601  10.6254  10.9538  15.9276  19.6847  20.1853
    26.8798  31.5176

          k = 0.6000-0.2000 1.0000 (  1052 PWs)   bands (ev):

     8.3587   8.7245   9.1537  10.4001  10.8837  14.6776  20.7192  22.2262
    24.0552  38.3481

     the Fermi energy is    11.8929 ev

!    total energy              =    -210.42832850 Ry
     Harris-Foulkes estimate   =    -210.42832850 Ry
     estimated scf accuracy    <          2.2E-09 Ry

     total all-electron energy =     -3307.307390 Ry

     The total energy is the sum of the following terms:

     one-electron contribution =     -28.04717443 Ry
     hartree contribution      =      30.56073216 Ry
     xc contribution           =     -44.11799857 Ry
     ewald contribution        =     -81.22522855 Ry
     one-center paw contrib.   =     -87.59839423 Ry
     smearing contrib. (-TS)   =      -0.00026488 Ry

     convergence has been achieved in   6 iterations

     Forces acting on atoms (cartesian axes, Ry/au):

     atom    1 type  1   force =     0.00000000    0.00000000    0.00000000

     Total force =     0.000000     Total SCF correction =     0.000000


     Computing stress (Cartesian axis) and pressure

          total   stress  (Ry/bohr**3)                   (kbar)     P=  -71.88
  -0.00048860  -0.00000000  -0.00000000        -71.88     -0.00     -0.00
   0.00000000  -0.00048860   0.00000000          0.00    -71.88      0.00
  -0.00000000   0.00000000  -0.00048860         -0.00      0.00    -71.88


     Writing output data file Cu.save/

     init_run     :      0.40s CPU      0.43s WALL (       1 calls)
     electrons    :      1.60s CPU      1.71s WALL (       1 calls)
     forces       :      0.03s CPU      0.03s WALL (       1 calls)
     stress       :      0.10s CPU      0.10s WALL (       1 calls)

     Called by init_run:
     wfcinit      :      0.06s CPU      0.06s WALL (       1 calls)
     potinit      :      0.14s CPU      0.16s WALL (       1 calls)
     hinit0       :      0.17s CPU      0.17s WALL (       1 calls)

     Called by electrons:
     c_bands      :      0.72s CPU      0.74s WALL (       7 calls)
     sum_band     :      0.19s CPU      0.20s WALL (       7 calls)
     v_of_rho     :      0.04s CPU      0.04s WALL (       7 calls)
     newd         :      0.07s CPU      0.08s WALL (       7 calls)
     PAW_pot      :      0.72s CPU      0.82s WALL (       7 calls)
     mix_rho      :      0.00s CPU      0.00s WALL (       7 calls)

     Called by c_bands:
     init_us_2    :      0.02s CPU      0.03s WALL (     170 calls)
     cegterg      :      0.68s CPU      0.70s WALL (      70 calls)

     Called by sum_band:
     sum_band:bec :      0.00s CPU      0.00s WALL (      70 calls)
     addusdens    :      0.06s CPU      0.06s WALL (       7 calls)

     Called by *egterg:
     h_psi        :      0.59s CPU      0.60s WALL (     236 calls)
     s_psi        :      0.02s CPU      0.02s WALL (     236 calls)
     g_psi        :      0.00s CPU      0.00s WALL (     156 calls)
     cdiaghg      :      0.05s CPU      0.05s WALL (     216 calls)

     Called by h_psi:
     h_psi:pot    :      0.58s CPU      0.60s WALL (     236 calls)
     h_psi:calbec :      0.03s CPU      0.03s WALL (     236 calls)
     vloc_psi     :      0.54s CPU      0.55s WALL (     236 calls)
     add_vuspsi   :      0.02s CPU      0.02s WALL (     236 calls)

     General routines
     calbec       :      0.04s CPU      0.04s WALL (     356 calls)
     fft          :      0.03s CPU      0.03s WALL (     104 calls)
     ffts         :      0.00s CPU      0.00s WALL (       7 calls)
     fftw         :      0.60s CPU      0.62s WALL (    4310 calls)

     Parallel routines
     fft_scatt_xy :      0.04s CPU      0.05s WALL (    4421 calls)
     fft_scatt_yz :      0.24s CPU      0.25s WALL (    4421 calls)

     PWSCF        :     2.90s CPU         3.08s WALL


   This run was terminated on:  23:41:50  25Mar2024            

=------------------------------------------------------------------------------=
   JOB DONE.
=------------------------------------------------------------------------------=
