
     Program PWSCF v.6.3MaX starts on 25Mar2024 at 23:18:18 

     This program is part of the open-source Quantum ESPRESSO suite
     for quantum simulation of materials; please cite
         "P. Giannozzi et al., J. Phys.:Condens. Matter 21 395502 (2009);
         "P. Giannozzi et al., J. Phys.:Condens. Matter 29 465901 (2017);
          URL http://www.quantum-espresso.org", 
     in publications or presentations arising from this work. More details at
     http://www.quantum-espresso.org/quote

     Parallel version (MPI), running on     5 processors

     MPI processes distributed on     1 nodes
     R & G space division:  proc/nbgrp/npool/nimage =       5
     Waiting for input...
     Reading input from standard input

     Current dimensions of program PWSCF are:
     Max number of different atomic species (ntypx) = 10
     Max number of k-points (npk) =  40000
     Max angular momentum in pseudopotentials (lmaxx) =  3
               file Cu.pbe-dn-rrkjus_psl.1.0.0.UPF: wavefunction(s)  3D renormalized

     Subspace diagonalization in iterative solution of the eigenvalue problem:
     a serial algorithm will be used


     Parallelization info
     --------------------
     sticks:   dense  smooth     PW     G-vecs:    dense   smooth      PW
     Min          43      43     16                  445      445      91
     Max          45      45     18                  446      446      92
     Sum         223     223     85                 2229     2229     459



     bravais-lattice index     =            2
     lattice parameter (alat)  =       6.8300  a.u.
     unit-cell volume          =      79.6530 (a.u.)^3
     number of atoms/cell      =            1
     number of atomic types    =            1
     number of electrons       =        11.00
     number of Kohn-Sham states=           10
     kinetic-energy cutoff     =      35.0000  Ry
     charge density cutoff     =     140.0000  Ry
     convergence threshold     =      1.0E-08
     mixing beta               =       0.7000
     number of iterations used =            8  plain     mixing
     Exchange-correlation      = PBE ( 1  4  3  4 0 0)

     celldm(1)=   6.830000  celldm(2)=   0.000000  celldm(3)=   0.000000
     celldm(4)=   0.000000  celldm(5)=   0.000000  celldm(6)=   0.000000

     crystal axes: (cart. coord. in units of alat)
               a(1) = (  -0.500000   0.000000   0.500000 )  
               a(2) = (   0.000000   0.500000   0.500000 )  
               a(3) = (  -0.500000   0.500000   0.000000 )  

     reciprocal axes: (cart. coord. in units 2 pi/alat)
               b(1) = ( -1.000000 -1.000000  1.000000 )  
               b(2) = (  1.000000  1.000000  1.000000 )  
               b(3) = ( -1.000000  1.000000 -1.000000 )  


     PseudoPot. # 1 for Cu read from file:
     /home/lorenzo/pseudos/Cu/Cu.pbe-dn-rrkjus_psl.1.0.0.UPF
     MD5 check sum: ba3d6c84e19846e79d48cdc68ff7152b
     Pseudo is Ultrasoft + core correction, Zval = 11.0
     Generated using "atomic" code by A. Dal Corso v.6.3
     Using radial grid of 1199 points,  6 beta functions with: 
                l(1) =   0
                l(2) =   0
                l(3) =   1
                l(4) =   1
                l(5) =   2
                l(6) =   2
     Q(r) pseudized with 0 coefficients 


     atomic species   valence    mass     pseudopotential
        Cu            11.00    63.54600     Cu( 1.00)

     48 Sym. Ops., with inversion, found



   Cartesian axes

     site n.     atom                  positions (alat units)
         1           Cu  tau(   1) = (   0.0000000   0.0000000   0.0000000  )

     number of k points=     8  gaussian smearing, width (Ry)=  0.0100
                       cart. coord. in units 2pi/alat
        k(    1) = (   0.0000000   0.0000000   0.0000000), wk =   0.0312500
        k(    2) = (  -0.2500000   0.2500000  -0.2500000), wk =   0.2500000
        k(    3) = (   0.5000000  -0.5000000   0.5000000), wk =   0.1250000
        k(    4) = (   0.0000000   0.5000000   0.0000000), wk =   0.1875000
        k(    5) = (   0.7500000  -0.2500000   0.7500000), wk =   0.7500000
        k(    6) = (   0.5000000   0.0000000   0.5000000), wk =   0.3750000
        k(    7) = (   0.0000000  -1.0000000   0.0000000), wk =   0.0937500
        k(    8) = (  -0.5000000  -1.0000000   0.0000000), wk =   0.1875000

     Dense  grid:     2229 G-vectors     FFT dimensions: (  20,  20,  20)

     Estimated max dynamical RAM per process >       2.78 MB

     Estimated total dynamical RAM >      13.92 MB

     Check: negative/imaginary core charge=   -0.000002    0.000000

     Initial potential from superposition of free atoms

     starting charge   10.99977, renormalised to   11.00000
     Starting wfcs are    9 randomized atomic wfcs +    1 random wfcs

     total cpu time spent up to now is        0.8 secs

     Self-consistent Calculation

     iteration #  1     ecut=    35.00 Ry     beta= 0.70
     Davidson diagonalization with overlap
     ethr =  1.00E-02,  avg # of iterations =  3.5

     Threshold (ethr) on eigenvalues was too large:
     Diagonalizing with lowered threshold

     Davidson diagonalization with overlap
     ethr =  5.29E-04,  avg # of iterations =  1.0

     total cpu time spent up to now is        0.9 secs

     total energy              =    -122.69687228 Ry
     Harris-Foulkes estimate   =    -122.74214457 Ry
     estimated scf accuracy    <       0.05816418 Ry

     iteration #  2     ecut=    35.00 Ry     beta= 0.70
     Davidson diagonalization with overlap
     ethr =  5.29E-04,  avg # of iterations =  2.2

     total cpu time spent up to now is        1.0 secs

     total energy              =    -122.69877294 Ry
     Harris-Foulkes estimate   =    -122.77434166 Ry
     estimated scf accuracy    <       0.19149329 Ry

     iteration #  3     ecut=    35.00 Ry     beta= 0.70
     Davidson diagonalization with overlap
     ethr =  5.29E-04,  avg # of iterations =  2.0

     total cpu time spent up to now is        1.0 secs

     total energy              =    -122.73029911 Ry
     Harris-Foulkes estimate   =    -122.73030391 Ry
     estimated scf accuracy    <       0.00004549 Ry

     iteration #  4     ecut=    35.00 Ry     beta= 0.70
     Davidson diagonalization with overlap
     ethr =  4.14E-07,  avg # of iterations =  2.4

     total cpu time spent up to now is        1.0 secs

     total energy              =    -122.73032821 Ry
     Harris-Foulkes estimate   =    -122.73033001 Ry
     estimated scf accuracy    <       0.00000652 Ry

     iteration #  5     ecut=    35.00 Ry     beta= 0.70
     Davidson diagonalization with overlap
     ethr =  5.93E-08,  avg # of iterations =  1.2

     total cpu time spent up to now is        1.1 secs

     total energy              =    -122.73032926 Ry
     Harris-Foulkes estimate   =    -122.73032927 Ry
     estimated scf accuracy    <       0.00000005 Ry

     iteration #  6     ecut=    35.00 Ry     beta= 0.70
     Davidson diagonalization with overlap
     ethr =  4.49E-10,  avg # of iterations =  2.8

     total cpu time spent up to now is        1.1 secs

     End of self-consistent calculation

          k = 0.0000 0.0000 0.0000 (   283 PWs)   bands (ev):

     3.2755   9.6775   9.6775   9.6775  10.5048  10.5048  35.5992  37.9927
    37.9927  37.9927

          k =-0.2500 0.2500-0.2500 (   289 PWs)   bands (ev):

     5.3995   9.4173   9.8339   9.8339  10.5895  10.5895  25.1350  35.3873
    35.5029  35.5029

          k = 0.5000-0.5000 0.5000 (   272 PWs)   bands (ev):

     7.5934   9.6414   9.6414  11.0816  11.0816  11.6377  16.4387  34.0044
    34.7585  34.7585

          k = 0.0000 0.5000 0.0000 (   290 PWs)   bands (ev):

     6.0428   8.9534  10.0371  10.3444  10.3444  10.7799  29.7824  29.7824
    31.0902  31.7473

          k = 0.7500-0.2500 0.7500 (   279 PWs)   bands (ev):

     8.2431   8.8228   9.6905  10.3190  11.1231  13.6199  19.3854  25.2559
    28.7832  32.3464

          k = 0.5000 0.0000 0.5000 (   273 PWs)   bands (ev):

     7.9543   9.1647   9.3719  10.1757  10.5082  12.3910  22.3966  23.5894
    33.1789  34.4722

          k = 0.0000-1.0000 0.0000 (   286 PWs)   bands (ev):

     7.7978   8.2688  11.0606  11.2280  11.2280  14.1431  19.7885  25.7692
    25.7692  30.2906

          k =-0.5000-1.0000 0.0000 (   280 PWs)   bands (ev):

     8.5437   9.1587   9.1587  10.4614  11.2277  18.8769  18.8769  20.9960
    21.4618  41.1330

     the Fermi energy is    13.4533 ev

!    total energy              =    -122.73032927 Ry
     Harris-Foulkes estimate   =    -122.73032927 Ry
     estimated scf accuracy    <          2.3E-09 Ry

     The total energy is the sum of the following terms:

     one-electron contribution =     -27.48170120 Ry
     hartree contribution      =      30.60673680 Ry
     xc contribution           =     -44.62966385 Ry
     ewald contribution        =     -81.22522863 Ry
     smearing contrib. (-TS)   =      -0.00047239 Ry

     convergence has been achieved in   6 iterations

     Forces acting on atoms (cartesian axes, Ry/au):

     atom    1 type  1   force =     0.00000000    0.00000000    0.00000000

     Total force =     0.000000     Total SCF correction =     0.000000


     Computing stress (Cartesian axis) and pressure

          total   stress  (Ry/bohr**3)                   (kbar)     P=   32.82
   0.00022310   0.00000000   0.00000000         32.82      0.00      0.00
   0.00000000   0.00022310   0.00000000          0.00     32.82      0.00
   0.00000000  -0.00000000   0.00022310          0.00     -0.00     32.82


     Writing output data file Cu.save/

     init_run     :      0.13s CPU      0.13s WALL (       1 calls)
     electrons    :      0.26s CPU      0.30s WALL (       1 calls)
     forces       :      0.01s CPU      0.01s WALL (       1 calls)
     stress       :      0.03s CPU      0.03s WALL (       1 calls)

     Called by init_run:
     wfcinit      :      0.01s CPU      0.01s WALL (       1 calls)
     potinit      :      0.00s CPU      0.00s WALL (       1 calls)
     hinit0       :      0.11s CPU      0.11s WALL (       1 calls)

     Called by electrons:
     c_bands      :      0.19s CPU      0.21s WALL (       7 calls)
     sum_band     :      0.05s CPU      0.06s WALL (       7 calls)
     v_of_rho     :      0.01s CPU      0.01s WALL (       7 calls)
     newd         :      0.01s CPU      0.01s WALL (       7 calls)
     mix_rho      :      0.00s CPU      0.00s WALL (       7 calls)

     Called by c_bands:
     init_us_2    :      0.01s CPU      0.01s WALL (     136 calls)
     cegterg      :      0.18s CPU      0.20s WALL (      56 calls)

     Called by sum_band:
     sum_band:bec :      0.00s CPU      0.00s WALL (      56 calls)
     addusdens    :      0.01s CPU      0.02s WALL (       7 calls)

     Called by *egterg:
     h_psi        :      0.14s CPU      0.15s WALL (     185 calls)
     s_psi        :      0.00s CPU      0.00s WALL (     185 calls)
     g_psi        :      0.00s CPU      0.00s WALL (     121 calls)
     cdiaghg      :      0.03s CPU      0.03s WALL (     169 calls)

     Called by h_psi:
     h_psi:pot    :      0.14s CPU      0.15s WALL (     185 calls)
     h_psi:calbec :      0.01s CPU      0.01s WALL (     185 calls)
     vloc_psi     :      0.12s CPU      0.14s WALL (     185 calls)
     add_vuspsi   :      0.00s CPU      0.00s WALL (     185 calls)

     General routines
     calbec       :      0.01s CPU      0.01s WALL (     281 calls)
     fft          :      0.01s CPU      0.01s WALL (     104 calls)
     ffts         :      0.00s CPU      0.00s WALL (       7 calls)
     fftw         :      0.14s CPU      0.16s WALL (    3396 calls)

     Parallel routines
     fft_scatt_xy :      0.01s CPU      0.01s WALL (    3507 calls)
     fft_scatt_yz :      0.05s CPU      0.05s WALL (    3507 calls)

     PWSCF        :     1.12s CPU         1.20s WALL


   This run was terminated on:  23:18:19  25Mar2024            

=------------------------------------------------------------------------------=
   JOB DONE.
=------------------------------------------------------------------------------=
