
     Program PWSCF v.6.3MaX starts on 25Mar2024 at 23:44:21 

     This program is part of the open-source Quantum ESPRESSO suite
     for quantum simulation of materials; please cite
         "P. Giannozzi et al., J. Phys.:Condens. Matter 21 395502 (2009);
         "P. Giannozzi et al., J. Phys.:Condens. Matter 29 465901 (2017);
          URL http://www.quantum-espresso.org", 
     in publications or presentations arising from this work. More details at
     http://www.quantum-espresso.org/quote

     Parallel version (MPI), running on     5 processors

     MPI processes distributed on     1 nodes
     R & G space division:  proc/nbgrp/npool/nimage =       5
     Waiting for input...
     Reading input from standard input

     Current dimensions of program PWSCF are:
     Max number of different atomic species (ntypx) = 10
     Max number of k-points (npk) =  40000
     Max angular momentum in pseudopotentials (lmaxx) =  3
               file Cu.pbesol-dn-kjpaw_psl.1.0.0.UPF: wavefunction(s)  4S 3D renormalized

     Subspace diagonalization in iterative solution of the eigenvalue problem:
     a serial algorithm will be used


     Parallelization info
     --------------------
     sticks:   dense  smooth     PW     G-vecs:    dense   smooth      PW
     Min         116     116     32                 1850     1850     290
     Max         117     117     33                 1853     1853     293
     Sum         583     583    163                 9257     9257    1459



     bravais-lattice index     =            2
     lattice parameter (alat)  =       6.8300  a.u.
     unit-cell volume          =      79.6530 (a.u.)^3
     number of atoms/cell      =            1
     number of atomic types    =            1
     number of electrons       =        11.00
     number of Kohn-Sham states=           10
     kinetic-energy cutoff     =      90.0000  Ry
     charge density cutoff     =     360.0000  Ry
     convergence threshold     =      1.0E-08
     mixing beta               =       0.7000
     number of iterations used =            8  plain     mixing
     Exchange-correlation      = SLA PW PSX PSC ( 1  4 10  8 0 0)

     celldm(1)=   6.830000  celldm(2)=   0.000000  celldm(3)=   0.000000
     celldm(4)=   0.000000  celldm(5)=   0.000000  celldm(6)=   0.000000

     crystal axes: (cart. coord. in units of alat)
               a(1) = (  -0.500000   0.000000   0.500000 )  
               a(2) = (   0.000000   0.500000   0.500000 )  
               a(3) = (  -0.500000   0.500000   0.000000 )  

     reciprocal axes: (cart. coord. in units 2 pi/alat)
               b(1) = ( -1.000000 -1.000000  1.000000 )  
               b(2) = (  1.000000  1.000000  1.000000 )  
               b(3) = ( -1.000000  1.000000 -1.000000 )  


     PseudoPot. # 1 for Cu read from file:
     /home/lorenzo/pseudos/Cu/Cu.pbesol-dn-kjpaw_psl.1.0.0.UPF
     MD5 check sum: 1e9735a74797514c934643dbd229f231
     Pseudo is Projector augmented-wave + core cor, Zval = 11.0
     Generated using "atomic" code by A. Dal Corso v.6.3
     Shape of augmentation charge: PSQ
     Using radial grid of 1199 points,  6 beta functions with: 
                l(1) =   0
                l(2) =   0
                l(3) =   1
                l(4) =   1
                l(5) =   2
                l(6) =   2
     Q(r) pseudized with 0 coefficients 


     atomic species   valence    mass     pseudopotential
        Cu            11.00    63.54600     Cu( 1.00)

     48 Sym. Ops., with inversion, found



   Cartesian axes

     site n.     atom                  positions (alat units)
         1           Cu  tau(   1) = (   0.0000000   0.0000000   0.0000000  )

     number of k points=     4  gaussian smearing, width (Ry)=  0.0100
                       cart. coord. in units 2pi/alat
        k(    1) = (   0.0000000   0.0000000   0.0000000), wk =   0.0740741
        k(    2) = (  -0.3333333   0.3333333  -0.3333333), wk =   0.5925926
        k(    3) = (   0.0000000   0.6666667   0.0000000), wk =   0.4444444
        k(    4) = (   0.6666667  -0.0000000   0.6666667), wk =   0.8888889

     Dense  grid:     9257 G-vectors     FFT dimensions: (  30,  30,  30)

     Estimated max dynamical RAM per process >       8.72 MB

     Estimated total dynamical RAM >      43.59 MB

     Initial potential from superposition of free atoms

     starting charge   10.99979, renormalised to   11.00000
     Starting wfcs are    9 randomized atomic wfcs +    1 random wfcs
     Checking if some PAW data can be deallocated... 

     total cpu time spent up to now is        1.1 secs

     Self-consistent Calculation

     iteration #  1     ecut=    90.00 Ry     beta= 0.70
     Davidson diagonalization with overlap
     ethr =  1.00E-02,  avg # of iterations =  3.5

     Threshold (ethr) on eigenvalues was too large:
     Diagonalizing with lowered threshold

     Davidson diagonalization with overlap
     ethr =  6.79E-04,  avg # of iterations =  3.2

     total cpu time spent up to now is        1.4 secs

     total energy              =    -210.40288971 Ry
     Harris-Foulkes estimate   =    -210.46270026 Ry
     estimated scf accuracy    <       0.07481610 Ry

     iteration #  2     ecut=    90.00 Ry     beta= 0.70
     Davidson diagonalization with overlap
     ethr =  6.80E-04,  avg # of iterations =  2.0

     total cpu time spent up to now is        1.5 secs

     total energy              =    -210.40315079 Ry
     Harris-Foulkes estimate   =    -210.50793693 Ry
     estimated scf accuracy    <       0.27187519 Ry

     iteration #  3     ecut=    90.00 Ry     beta= 0.70
     Davidson diagonalization with overlap
     ethr =  6.80E-04,  avg # of iterations =  2.0

     total cpu time spent up to now is        1.7 secs

     total energy              =    -210.44680924 Ry
     Harris-Foulkes estimate   =    -210.44683076 Ry
     estimated scf accuracy    <       0.00009097 Ry

     iteration #  4     ecut=    90.00 Ry     beta= 0.70
     Davidson diagonalization with overlap
     ethr =  8.27E-07,  avg # of iterations =  2.5

     total cpu time spent up to now is        1.9 secs

     total energy              =    -210.44692785 Ry
     Harris-Foulkes estimate   =    -210.44692872 Ry
     estimated scf accuracy    <       0.00000544 Ry

     iteration #  5     ecut=    90.00 Ry     beta= 0.70
     Davidson diagonalization with overlap
     ethr =  4.95E-08,  avg # of iterations =  1.0

     total cpu time spent up to now is        2.1 secs

     total energy              =    -210.44692825 Ry
     Harris-Foulkes estimate   =    -210.44692822 Ry
     estimated scf accuracy    <       0.00000015 Ry

     iteration #  6     ecut=    90.00 Ry     beta= 0.70
     Davidson diagonalization with overlap
     ethr =  1.41E-09,  avg # of iterations =  3.0

     total cpu time spent up to now is        2.2 secs

     End of self-consistent calculation

          k = 0.0000 0.0000 0.0000 (  1139 PWs)   bands (ev):

     3.0399   9.4002   9.4002   9.4002  10.2325  10.2325  35.3855  37.7414
    37.7414  37.7414

          k =-0.3333 0.3333-0.3333 (  1149 PWs)   bands (ev):

     6.4091   9.3919   9.4823   9.4823  10.5337  10.5337  21.0303  34.4968
    34.7501  34.7501

          k = 0.0000 0.6667 0.0000 (  1150 PWs)   bands (ev):

     7.1180   8.3322  10.3364  10.4735  10.4735  10.6468  26.0883  27.3939
    27.3939  30.6344

          k = 0.6667-0.0000 0.6667 (  1141 PWs)   bands (ev):

     8.3666   8.5383   9.2684  10.1614  10.6049  15.6675  18.3440  20.9123
    29.0573  32.3290

     the Fermi energy is    10.7609 ev

!    total energy              =    -210.44692827 Ry
     Harris-Foulkes estimate   =    -210.44692827 Ry
     estimated scf accuracy    <          4.9E-09 Ry

     total all-electron energy =     -3307.325989 Ry

     The total energy is the sum of the following terms:

     one-electron contribution =     -27.99648817 Ry
     hartree contribution      =      30.47925178 Ry
     xc contribution           =     -44.09981343 Ry
     ewald contribution        =     -81.22522855 Ry
     one-center paw contrib.   =     -87.60312012 Ry
     smearing contrib. (-TS)   =      -0.00152978 Ry

     convergence has been achieved in   6 iterations

     Forces acting on atoms (cartesian axes, Ry/au):

     atom    1 type  1   force =     0.00000000    0.00000000    0.00000000

     Total force =     0.000000     Total SCF correction =     0.000000


     Computing stress (Cartesian axis) and pressure

          total   stress  (Ry/bohr**3)                   (kbar)     P= -104.50
  -0.00071035  -0.00000000   0.00000000       -104.50     -0.00      0.00
  -0.00000000  -0.00071035   0.00000000         -0.00   -104.50      0.00
   0.00000000   0.00000000  -0.00071035          0.00      0.00   -104.50


     Writing output data file Cu.save/

     init_run     :      0.33s CPU      0.34s WALL (       1 calls)
     electrons    :      1.01s CPU      1.11s WALL (       1 calls)
     forces       :      0.04s CPU      0.04s WALL (       1 calls)
     stress       :      0.10s CPU      0.10s WALL (       1 calls)

     Called by init_run:
     wfcinit      :      0.01s CPU      0.01s WALL (       1 calls)
     potinit      :      0.11s CPU      0.12s WALL (       1 calls)
     hinit0       :      0.18s CPU      0.18s WALL (       1 calls)

     Called by electrons:
     c_bands      :      0.25s CPU      0.27s WALL (       7 calls)
     sum_band     :      0.12s CPU      0.12s WALL (       7 calls)
     v_of_rho     :      0.04s CPU      0.04s WALL (       7 calls)
     newd         :      0.06s CPU      0.07s WALL (       7 calls)
     PAW_pot      :      0.65s CPU      0.73s WALL (       7 calls)
     mix_rho      :      0.00s CPU      0.00s WALL (       7 calls)

     Called by c_bands:
     init_us_2    :      0.01s CPU      0.01s WALL (      68 calls)
     cegterg      :      0.24s CPU      0.25s WALL (      28 calls)

     Called by sum_band:
     sum_band:bec :      0.00s CPU      0.00s WALL (      28 calls)
     addusdens    :      0.06s CPU      0.06s WALL (       7 calls)

     Called by *egterg:
     h_psi        :      0.18s CPU      0.20s WALL (     101 calls)
     s_psi        :      0.01s CPU      0.01s WALL (     101 calls)
     g_psi        :      0.00s CPU      0.00s WALL (      69 calls)
     cdiaghg      :      0.02s CPU      0.02s WALL (      93 calls)

     Called by h_psi:
     h_psi:pot    :      0.18s CPU      0.20s WALL (     101 calls)
     h_psi:calbec :      0.01s CPU      0.01s WALL (     101 calls)
     vloc_psi     :      0.17s CPU      0.18s WALL (     101 calls)
     add_vuspsi   :      0.01s CPU      0.01s WALL (     101 calls)

     General routines
     calbec       :      0.02s CPU      0.02s WALL (     149 calls)
     fft          :      0.03s CPU      0.03s WALL (     104 calls)
     ffts         :      0.00s CPU      0.00s WALL (       7 calls)
     fftw         :      0.19s CPU      0.20s WALL (    1706 calls)

     Parallel routines
     fft_scatt_xy :      0.02s CPU      0.02s WALL (    1817 calls)
     fft_scatt_yz :      0.06s CPU      0.06s WALL (    1817 calls)

     PWSCF        :     2.26s CPU         2.42s WALL


   This run was terminated on:  23:44:23  25Mar2024            

=------------------------------------------------------------------------------=
   JOB DONE.
=------------------------------------------------------------------------------=
