
     Program PWSCF v.6.3MaX starts on 25Mar2024 at 23:29: 7 

     This program is part of the open-source Quantum ESPRESSO suite
     for quantum simulation of materials; please cite
         "P. Giannozzi et al., J. Phys.:Condens. Matter 21 395502 (2009);
         "P. Giannozzi et al., J. Phys.:Condens. Matter 29 465901 (2017);
          URL http://www.quantum-espresso.org", 
     in publications or presentations arising from this work. More details at
     http://www.quantum-espresso.org/quote

     Parallel version (MPI), running on     5 processors

     MPI processes distributed on     1 nodes
     R & G space division:  proc/nbgrp/npool/nimage =       5
     Waiting for input...
     Reading input from standard input

     Current dimensions of program PWSCF are:
     Max number of different atomic species (ntypx) = 10
     Max number of k-points (npk) =  40000
     Max angular momentum in pseudopotentials (lmaxx) =  3
               file Cu.pbesol-dn-rrkjus_psl.1.0.0.UPF: wavefunction(s)  3D renormalized

     Subspace diagonalization in iterative solution of the eigenvalue problem:
     a serial algorithm will be used


     Parallelization info
     --------------------
     sticks:   dense  smooth     PW     G-vecs:    dense   smooth      PW
     Min          75      75     24                 1003     1003     187
     Max          76      76     25                 1007     1007     191
     Sum         379     379    121                 5029     5029     941



     bravais-lattice index     =            2
     lattice parameter (alat)  =       6.8300  a.u.
     unit-cell volume          =      79.6530 (a.u.)^3
     number of atoms/cell      =            1
     number of atomic types    =            1
     number of electrons       =        11.00
     number of Kohn-Sham states=           10
     kinetic-energy cutoff     =      60.0000  Ry
     charge density cutoff     =     240.0000  Ry
     convergence threshold     =      1.0E-08
     mixing beta               =       0.7000
     number of iterations used =            8  plain     mixing
     Exchange-correlation      = PBESOL ( 1  4 10  8 0 0)

     celldm(1)=   6.830000  celldm(2)=   0.000000  celldm(3)=   0.000000
     celldm(4)=   0.000000  celldm(5)=   0.000000  celldm(6)=   0.000000

     crystal axes: (cart. coord. in units of alat)
               a(1) = (  -0.500000   0.000000   0.500000 )  
               a(2) = (   0.000000   0.500000   0.500000 )  
               a(3) = (  -0.500000   0.500000   0.000000 )  

     reciprocal axes: (cart. coord. in units 2 pi/alat)
               b(1) = ( -1.000000 -1.000000  1.000000 )  
               b(2) = (  1.000000  1.000000  1.000000 )  
               b(3) = ( -1.000000  1.000000 -1.000000 )  


     PseudoPot. # 1 for Cu read from file:
     /home/lorenzo/pseudos/Cu/Cu.pbesol-dn-rrkjus_psl.1.0.0.UPF
     MD5 check sum: bfa4c7aafbc42e028d5f4ccf7ceed93d
     Pseudo is Ultrasoft + core correction, Zval = 11.0
     Generated using "atomic" code by A. Dal Corso v.6.3
     Using radial grid of 1199 points,  6 beta functions with: 
                l(1) =   0
                l(2) =   0
                l(3) =   1
                l(4) =   1
                l(5) =   2
                l(6) =   2
     Q(r) pseudized with 0 coefficients 


     atomic species   valence    mass     pseudopotential
        Cu            11.00    63.54600     Cu( 1.00)

     48 Sym. Ops., with inversion, found



   Cartesian axes

     site n.     atom                  positions (alat units)
         1           Cu  tau(   1) = (   0.0000000   0.0000000   0.0000000  )

     number of k points=    16  gaussian smearing, width (Ry)=  0.0100
                       cart. coord. in units 2pi/alat
        k(    1) = (   0.0000000   0.0000000   0.0000000), wk =   0.0092593
        k(    2) = (  -0.1666667   0.1666667  -0.1666667), wk =   0.0740741
        k(    3) = (  -0.3333333   0.3333333  -0.3333333), wk =   0.0740741
        k(    4) = (   0.5000000  -0.5000000   0.5000000), wk =   0.0370370
        k(    5) = (   0.0000000   0.3333333   0.0000000), wk =   0.0555556
        k(    6) = (  -0.1666667   0.5000000  -0.1666667), wk =   0.2222222
        k(    7) = (   0.6666667  -0.3333333   0.6666667), wk =   0.2222222
        k(    8) = (   0.5000000  -0.1666667   0.5000000), wk =   0.2222222
        k(    9) = (   0.3333333   0.0000000   0.3333333), wk =   0.1111111
        k(   10) = (   0.0000000   0.6666667   0.0000000), wk =   0.0555556
        k(   11) = (   0.8333333  -0.1666667   0.8333333), wk =   0.2222222
        k(   12) = (   0.6666667  -0.0000000   0.6666667), wk =   0.1111111
        k(   13) = (   0.0000000  -1.0000000   0.0000000), wk =   0.0277778
        k(   14) = (   0.6666667  -0.3333333   1.0000000), wk =   0.2222222
        k(   15) = (   0.5000000  -0.1666667   0.8333333), wk =   0.2222222
        k(   16) = (  -0.3333333  -1.0000000   0.0000000), wk =   0.1111111

     Dense  grid:     5029 G-vectors     FFT dimensions: (  24,  24,  24)

     Estimated max dynamical RAM per process >       5.42 MB

     Estimated total dynamical RAM >      27.08 MB

     Initial potential from superposition of free atoms

     starting charge   10.99979, renormalised to   11.00000
     Starting wfcs are    9 randomized atomic wfcs +    1 random wfcs

     total cpu time spent up to now is        1.1 secs

     Self-consistent Calculation

     iteration #  1     ecut=    60.00 Ry     beta= 0.70
     Davidson diagonalization with overlap
     ethr =  1.00E-02,  avg # of iterations =  3.8

     Threshold (ethr) on eigenvalues was too large:
     Diagonalizing with lowered threshold

     Davidson diagonalization with overlap
     ethr =  6.68E-04,  avg # of iterations =  1.0

     total cpu time spent up to now is        1.4 secs

     total energy              =    -122.36183719 Ry
     Harris-Foulkes estimate   =    -122.42004523 Ry
     estimated scf accuracy    <       0.07324061 Ry

     iteration #  2     ecut=    60.00 Ry     beta= 0.70
     Davidson diagonalization with overlap
     ethr =  6.66E-04,  avg # of iterations =  2.0

     total cpu time spent up to now is        1.6 secs

     total energy              =    -122.36192676 Ry
     Harris-Foulkes estimate   =    -122.46558530 Ry
     estimated scf accuracy    <       0.27063068 Ry

     iteration #  3     ecut=    60.00 Ry     beta= 0.70
     Davidson diagonalization with overlap
     ethr =  6.66E-04,  avg # of iterations =  2.1

     total cpu time spent up to now is        1.9 secs

     total energy              =    -122.40540123 Ry
     Harris-Foulkes estimate   =    -122.40541983 Ry
     estimated scf accuracy    <       0.00005923 Ry

     iteration #  4     ecut=    60.00 Ry     beta= 0.70
     Davidson diagonalization with overlap
     ethr =  5.38E-07,  avg # of iterations =  2.6

     total cpu time spent up to now is        2.1 secs

     total energy              =    -122.40545610 Ry
     Harris-Foulkes estimate   =    -122.40545925 Ry
     estimated scf accuracy    <       0.00000940 Ry

     iteration #  5     ecut=    60.00 Ry     beta= 0.70
     Davidson diagonalization with overlap
     ethr =  8.54E-08,  avg # of iterations =  1.1

     total cpu time spent up to now is        2.2 secs

     total energy              =    -122.40545782 Ry
     Harris-Foulkes estimate   =    -122.40545794 Ry
     estimated scf accuracy    <       0.00000037 Ry

     iteration #  6     ecut=    60.00 Ry     beta= 0.70
     Davidson diagonalization with overlap
     ethr =  3.36E-09,  avg # of iterations =  1.4

     total cpu time spent up to now is        2.3 secs

     End of self-consistent calculation

          k = 0.0000 0.0000 0.0000 (   609 PWs)   bands (ev):

     3.0495   9.4872   9.4872   9.4872  10.3217  10.3217  35.3878  37.7546
    37.7546  37.7546

          k =-0.1667 0.1667-0.1667 (   619 PWs)   bands (ev):

     4.0380   9.3081   9.6277   9.6277  10.2958  10.2958  29.1156  35.7280
    35.9969  35.9969

          k =-0.3333 0.3333-0.3333 (   613 PWs)   bands (ev):

     6.4326   9.4540   9.5680   9.5680  10.6260  10.6260  21.0601  34.5029
    34.7694  34.7694

          k = 0.5000-0.5000 0.5000 (   628 PWs)   bands (ev):

     7.3858   9.4525   9.4525  10.8997  10.8997  11.4101  16.2249  33.7958
    34.5085  34.5085

          k = 0.0000 0.3333 0.0000 (   621 PWs)   bands (ev):

     4.3603   9.1180   9.8017   9.8017  10.0089  10.4590  32.2084  32.2084
    32.7298  34.4028

          k =-0.1667 0.5000-0.1667 (   617 PWs)   bands (ev):

     6.3283   8.8568   9.5365   9.9312  10.6464  10.7187  24.2432  30.2892
    31.3635  33.1668

          k = 0.6667-0.3333 0.6667 (   624 PWs)   bands (ev):

     7.8144   9.0689   9.5517   9.7810  10.9195  12.9437  17.4735  28.2199
    30.5650  32.8673

          k = 0.5000-0.1667 0.5000 (   625 PWs)   bands (ev):

     7.6263   9.2399   9.3099   9.7725  10.5505  12.1404  19.4528  26.6848
    33.1751  34.1906

          k = 0.3333 0.0000 0.3333 (   620 PWs)   bands (ev):

     5.5579   9.0563   9.5957   9.9172  10.0209  10.8003  26.6829  27.3865
    37.2915  37.7045

          k = 0.0000 0.6667 0.0000 (   624 PWs)   bands (ev):

     7.1535   8.4103  10.3892  10.5664  10.5664  10.7383  26.1133  27.4098
    27.4098  30.6672

          k = 0.8333-0.1667 0.8333 (   632 PWs)   bands (ev):

     7.8860   8.3271  10.0306  10.5134  10.9670  13.6688  21.4037  22.3193
    26.9312  31.5033

          k = 0.6667-0.0000 0.6667 (   634 PWs)   bands (ev):

     8.4388   8.6041   9.3445  10.2489  10.6994  15.7052  18.3744  20.9398
    29.0749  32.3497

          k = 0.0000-1.0000 0.0000 (   636 PWs)   bands (ev):

     7.5978   8.0711  10.8803  11.0455  11.0455  13.9097  19.5749  25.5260
    25.5260  30.0496

          k = 0.6667-0.3333 1.0000 (   632 PWs)   bands (ev):

     7.9126   8.6794   9.1987  10.3655  10.5657  12.4141  22.7092  23.7250
    27.1998  37.2128

          k = 0.5000-0.1667 0.8333 (   628 PWs)   bands (ev):

     8.5579   8.5927   9.1651  10.1756  10.8677  16.0161  17.2454  24.2061
    24.4319  37.5419

          k =-0.3333-1.0000 0.0000 (   634 PWs)   bands (ev):

     8.1175   8.4598   9.6767  10.4718  11.0461  16.4719  20.1182  21.1331
    22.4548  36.1702

     the Fermi energy is    12.4450 ev

!    total energy              =    -122.40545788 Ry
     Harris-Foulkes estimate   =    -122.40545788 Ry
     estimated scf accuracy    <          1.4E-09 Ry

     The total energy is the sum of the following terms:

     one-electron contribution =     -27.59463479 Ry
     hartree contribution      =      30.52637079 Ry
     xc contribution           =     -44.11136569 Ry
     ewald contribution        =     -81.22522856 Ry
     smearing contrib. (-TS)   =      -0.00059964 Ry

     convergence has been achieved in   6 iterations

     Forces acting on atoms (cartesian axes, Ry/au):

     atom    1 type  1   force =     0.00000000    0.00000000    0.00000000

     Total force =     0.000000     Total SCF correction =     0.000000


     Computing stress (Cartesian axis) and pressure

          total   stress  (Ry/bohr**3)                   (kbar)     P=  -43.20
  -0.00029365  -0.00000000  -0.00000000        -43.20     -0.00     -0.00
  -0.00000000  -0.00029365   0.00000000         -0.00    -43.20      0.00
  -0.00000000   0.00000000  -0.00029365         -0.00      0.00    -43.20


     Writing output data file Cu.save/

     init_run     :      0.24s CPU      0.25s WALL (       1 calls)
     electrons    :      1.09s CPU      1.16s WALL (       1 calls)
     forces       :      0.03s CPU      0.03s WALL (       1 calls)
     stress       :      0.09s CPU      0.09s WALL (       1 calls)

     Called by init_run:
     wfcinit      :      0.04s CPU      0.05s WALL (       1 calls)
     potinit      :      0.01s CPU      0.01s WALL (       1 calls)
     hinit0       :      0.18s CPU      0.18s WALL (       1 calls)

     Called by electrons:
     c_bands      :      0.84s CPU      0.90s WALL (       7 calls)
     sum_band     :      0.18s CPU      0.19s WALL (       7 calls)
     v_of_rho     :      0.02s CPU      0.03s WALL (       7 calls)
     newd         :      0.04s CPU      0.04s WALL (       7 calls)
     mix_rho      :      0.00s CPU      0.00s WALL (       7 calls)

     Called by c_bands:
     init_us_2    :      0.03s CPU      0.03s WALL (     272 calls)
     cegterg      :      0.80s CPU      0.86s WALL (     112 calls)

     Called by sum_band:
     sum_band:bec :      0.00s CPU      0.00s WALL (     112 calls)
     addusdens    :      0.04s CPU      0.04s WALL (       7 calls)

     Called by *egterg:
     h_psi        :      0.61s CPU      0.66s WALL (     352 calls)
     s_psi        :      0.02s CPU      0.02s WALL (     352 calls)
     g_psi        :      0.00s CPU      0.00s WALL (     224 calls)
     cdiaghg      :      0.08s CPU      0.09s WALL (     320 calls)

     Called by h_psi:
     h_psi:pot    :      0.61s CPU      0.66s WALL (     352 calls)
     h_psi:calbec :      0.04s CPU      0.04s WALL (     352 calls)
     vloc_psi     :      0.55s CPU      0.60s WALL (     352 calls)
     add_vuspsi   :      0.02s CPU      0.02s WALL (     352 calls)

     General routines
     calbec       :      0.06s CPU      0.06s WALL (     544 calls)
     fft          :      0.02s CPU      0.02s WALL (     104 calls)
     ffts         :      0.00s CPU      0.00s WALL (       7 calls)
     fftw         :      0.61s CPU      0.66s WALL (    6806 calls)

     Parallel routines
     fft_scatt_xy :      0.05s CPU      0.05s WALL (    6917 calls)
     fft_scatt_yz :      0.24s CPU      0.26s WALL (    6917 calls)

     PWSCF        :     2.34s CPU         2.47s WALL


   This run was terminated on:  23:29:10  25Mar2024            

=------------------------------------------------------------------------------=
   JOB DONE.
=------------------------------------------------------------------------------=
