
     Program PWSCF v.6.3MaX starts on 25Mar2024 at 23:41:37 

     This program is part of the open-source Quantum ESPRESSO suite
     for quantum simulation of materials; please cite
         "P. Giannozzi et al., J. Phys.:Condens. Matter 21 395502 (2009);
         "P. Giannozzi et al., J. Phys.:Condens. Matter 29 465901 (2017);
          URL http://www.quantum-espresso.org", 
     in publications or presentations arising from this work. More details at
     http://www.quantum-espresso.org/quote

     Parallel version (MPI), running on     5 processors

     MPI processes distributed on     1 nodes
     R & G space division:  proc/nbgrp/npool/nimage =       5
     Waiting for input...
     Reading input from standard input

     Current dimensions of program PWSCF are:
     Max number of different atomic species (ntypx) = 10
     Max number of k-points (npk) =  40000
     Max angular momentum in pseudopotentials (lmaxx) =  3
               file Cu.pbesol-dn-kjpaw_psl.1.0.0.UPF: wavefunction(s)  4S 3D renormalized

     Subspace diagonalization in iterative solution of the eigenvalue problem:
     a serial algorithm will be used


     Parallelization info
     --------------------
     sticks:   dense  smooth     PW     G-vecs:    dense   smooth      PW
     Min         109     109     32                 1678     1678     290
     Max         110     110     33                 1680     1680     293
     Sum         547     547    163                 8393     8393    1459



     bravais-lattice index     =            2
     lattice parameter (alat)  =       6.8300  a.u.
     unit-cell volume          =      79.6530 (a.u.)^3
     number of atoms/cell      =            1
     number of atomic types    =            1
     number of electrons       =        11.00
     number of Kohn-Sham states=           10
     kinetic-energy cutoff     =      85.0000  Ry
     charge density cutoff     =     340.0000  Ry
     convergence threshold     =      1.0E-08
     mixing beta               =       0.7000
     number of iterations used =            8  plain     mixing
     Exchange-correlation      = SLA PW PSX PSC ( 1  4 10  8 0 0)

     celldm(1)=   6.830000  celldm(2)=   0.000000  celldm(3)=   0.000000
     celldm(4)=   0.000000  celldm(5)=   0.000000  celldm(6)=   0.000000

     crystal axes: (cart. coord. in units of alat)
               a(1) = (  -0.500000   0.000000   0.500000 )  
               a(2) = (   0.000000   0.500000   0.500000 )  
               a(3) = (  -0.500000   0.500000   0.000000 )  

     reciprocal axes: (cart. coord. in units 2 pi/alat)
               b(1) = ( -1.000000 -1.000000  1.000000 )  
               b(2) = (  1.000000  1.000000  1.000000 )  
               b(3) = ( -1.000000  1.000000 -1.000000 )  


     PseudoPot. # 1 for Cu read from file:
     /home/lorenzo/pseudos/Cu/Cu.pbesol-dn-kjpaw_psl.1.0.0.UPF
     MD5 check sum: 1e9735a74797514c934643dbd229f231
     Pseudo is Projector augmented-wave + core cor, Zval = 11.0
     Generated using "atomic" code by A. Dal Corso v.6.3
     Shape of augmentation charge: PSQ
     Using radial grid of 1199 points,  6 beta functions with: 
                l(1) =   0
                l(2) =   0
                l(3) =   1
                l(4) =   1
                l(5) =   2
                l(6) =   2
     Q(r) pseudized with 0 coefficients 


     atomic species   valence    mass     pseudopotential
        Cu            11.00    63.54600     Cu( 1.00)

     48 Sym. Ops., with inversion, found



   Cartesian axes

     site n.     atom                  positions (alat units)
         1           Cu  tau(   1) = (   0.0000000   0.0000000   0.0000000  )

     number of k points=     8  gaussian smearing, width (Ry)=  0.0100
                       cart. coord. in units 2pi/alat
        k(    1) = (   0.0000000   0.0000000   0.0000000), wk =   0.0312500
        k(    2) = (  -0.2500000   0.2500000  -0.2500000), wk =   0.2500000
        k(    3) = (   0.5000000  -0.5000000   0.5000000), wk =   0.1250000
        k(    4) = (   0.0000000   0.5000000   0.0000000), wk =   0.1875000
        k(    5) = (   0.7500000  -0.2500000   0.7500000), wk =   0.7500000
        k(    6) = (   0.5000000   0.0000000   0.5000000), wk =   0.3750000
        k(    7) = (   0.0000000  -1.0000000   0.0000000), wk =   0.0937500
        k(    8) = (  -0.5000000  -1.0000000   0.0000000), wk =   0.1875000

     Dense  grid:     8393 G-vectors     FFT dimensions: (  30,  30,  30)

     Estimated max dynamical RAM per process >       8.17 MB

     Estimated total dynamical RAM >      40.85 MB

     Initial potential from superposition of free atoms

     starting charge   10.99979, renormalised to   11.00000
     Starting wfcs are    9 randomized atomic wfcs +    1 random wfcs
     Checking if some PAW data can be deallocated... 

     total cpu time spent up to now is        1.1 secs

     Self-consistent Calculation

     iteration #  1     ecut=    85.00 Ry     beta= 0.70
     Davidson diagonalization with overlap
     ethr =  1.00E-02,  avg # of iterations =  3.5

     Threshold (ethr) on eigenvalues was too large:
     Diagonalizing with lowered threshold

     Davidson diagonalization with overlap
     ethr =  6.67E-04,  avg # of iterations =  1.5

     total cpu time spent up to now is        1.5 secs

     total energy              =    -210.36532635 Ry
     Harris-Foulkes estimate   =    -210.42400599 Ry
     estimated scf accuracy    <       0.07335954 Ry

     iteration #  2     ecut=    85.00 Ry     beta= 0.70
     Davidson diagonalization with overlap
     ethr =  6.67E-04,  avg # of iterations =  2.0

     total cpu time spent up to now is        1.7 secs

     total energy              =    -210.36855345 Ry
     Harris-Foulkes estimate   =    -210.46789603 Ry
     estimated scf accuracy    <       0.25438824 Ry

     iteration #  3     ecut=    85.00 Ry     beta= 0.70
     Davidson diagonalization with overlap
     ethr =  6.67E-04,  avg # of iterations =  2.0

     total cpu time spent up to now is        1.9 secs

     total energy              =    -210.40907277 Ry
     Harris-Foulkes estimate   =    -210.40912335 Ry
     estimated scf accuracy    <       0.00010266 Ry

     iteration #  4     ecut=    85.00 Ry     beta= 0.70
     Davidson diagonalization with overlap
     ethr =  9.33E-07,  avg # of iterations =  2.6

     total cpu time spent up to now is        2.1 secs

     total energy              =    -210.40912618 Ry
     Harris-Foulkes estimate   =    -210.40913246 Ry
     estimated scf accuracy    <       0.00001857 Ry

     iteration #  5     ecut=    85.00 Ry     beta= 0.70
     Davidson diagonalization with overlap
     ethr =  1.69E-07,  avg # of iterations =  1.1

     total cpu time spent up to now is        2.3 secs

     total energy              =    -210.40912886 Ry
     Harris-Foulkes estimate   =    -210.40912886 Ry
     estimated scf accuracy    <       0.00000002 Ry

     iteration #  6     ecut=    85.00 Ry     beta= 0.70
     Davidson diagonalization with overlap
     ethr =  2.16E-10,  avg # of iterations =  3.0

     total cpu time spent up to now is        2.6 secs

     End of self-consistent calculation

          k = 0.0000 0.0000 0.0000 (  1067 PWs)   bands (ev):

     3.0407   9.4482   9.4482   9.4482  10.2899  10.2899  35.3752  37.7490
    37.7490  37.7490

          k =-0.2500 0.2500-0.2500 (  1053 PWs)   bands (ev):

     5.1639   9.1870   9.6085   9.6085  10.3719  10.3719  24.8858  35.1627
    35.2255  35.2255

          k = 0.5000-0.5000 0.5000 (  1056 PWs)   bands (ev):

     7.3573   9.4187   9.4187  10.8619  10.8619  11.4023  16.2029  33.7885
    34.4998  34.4998

          k = 0.0000 0.5000 0.0000 (  1062 PWs)   bands (ev):

     5.8081   8.7220   9.8185  10.1178  10.1178  10.5657  29.5220  29.5220
    30.8328  31.4760

          k = 0.7500-0.2500 0.7500 (  1053 PWs)   bands (ev):

     8.0132   8.5959   9.4615  10.0995  10.9026  13.3892  19.1442  25.0087
    28.5237  32.0904

          k = 0.5000 0.0000 0.5000 (  1049 PWs)   bands (ev):

     7.7196   8.9339   9.1499   9.9599  10.2819  12.1650  22.1414  23.3491
    32.8965  34.2253

          k = 0.0000-1.0000 0.0000 (  1034 PWs)   bands (ev):

     7.5734   8.0354  10.8478  11.0038  11.0038  13.8999  19.5605  25.5180
    25.5180  30.0281

          k =-0.5000-1.0000 0.0000 (  1048 PWs)   bands (ev):

     8.3220   8.9279   8.9279  10.2466  11.0046  18.6317  18.6317  20.7632
    21.2220  40.8325

     the Fermi energy is    13.2226 ev

!    total energy              =    -210.40912888 Ry
     Harris-Foulkes estimate   =    -210.40912888 Ry
     estimated scf accuracy    <          2.1E-09 Ry

     total all-electron energy =     -3307.288190 Ry

     The total energy is the sum of the following terms:

     one-electron contribution =     -27.98677717 Ry
     hartree contribution      =      30.51454030 Ry
     xc contribution           =     -44.10946752 Ry
     ewald contribution        =     -81.22522855 Ry
     one-center paw contrib.   =     -87.60172355 Ry
     smearing contrib. (-TS)   =      -0.00047239 Ry

     convergence has been achieved in   6 iterations

     Forces acting on atoms (cartesian axes, Ry/au):

     atom    1 type  1   force =     0.00000000    0.00000000    0.00000000

     Total force =     0.000000     Total SCF correction =     0.000000


     Computing stress (Cartesian axis) and pressure

          total   stress  (Ry/bohr**3)                   (kbar)     P=  -45.38
  -0.00030849   0.00000000   0.00000000        -45.38      0.00      0.00
   0.00000000  -0.00030849  -0.00000000          0.00    -45.38     -0.00
   0.00000000  -0.00000000  -0.00030849          0.00     -0.00    -45.38


     Writing output data file Cu.save/

     init_run     :      0.35s CPU      0.37s WALL (       1 calls)
     electrons    :      1.35s CPU      1.46s WALL (       1 calls)
     forces       :      0.03s CPU      0.03s WALL (       1 calls)
     stress       :      0.10s CPU      0.10s WALL (       1 calls)

     Called by init_run:
     wfcinit      :      0.03s CPU      0.04s WALL (       1 calls)
     potinit      :      0.11s CPU      0.12s WALL (       1 calls)
     hinit0       :      0.18s CPU      0.18s WALL (       1 calls)

     Called by electrons:
     c_bands      :      0.52s CPU      0.55s WALL (       7 calls)
     sum_band     :      0.16s CPU      0.17s WALL (       7 calls)
     v_of_rho     :      0.03s CPU      0.04s WALL (       7 calls)
     newd         :      0.06s CPU      0.07s WALL (       7 calls)
     PAW_pot      :      0.68s CPU      0.74s WALL (       7 calls)
     mix_rho      :      0.00s CPU      0.00s WALL (       7 calls)

     Called by c_bands:
     init_us_2    :      0.02s CPU      0.02s WALL (     136 calls)
     cegterg      :      0.50s CPU      0.53s WALL (      56 calls)

     Called by sum_band:
     sum_band:bec :      0.00s CPU      0.00s WALL (      56 calls)
     addusdens    :      0.06s CPU      0.06s WALL (       7 calls)

     Called by *egterg:
     h_psi        :      0.42s CPU      0.45s WALL (     190 calls)
     s_psi        :      0.01s CPU      0.01s WALL (     190 calls)
     g_psi        :      0.00s CPU      0.00s WALL (     126 calls)
     cdiaghg      :      0.03s CPU      0.04s WALL (     174 calls)

     Called by h_psi:
     h_psi:pot    :      0.42s CPU      0.44s WALL (     190 calls)
     h_psi:calbec :      0.02s CPU      0.02s WALL (     190 calls)
     vloc_psi     :      0.39s CPU      0.41s WALL (     190 calls)
     add_vuspsi   :      0.01s CPU      0.01s WALL (     190 calls)

     General routines
     calbec       :      0.03s CPU      0.03s WALL (     286 calls)
     fft          :      0.03s CPU      0.03s WALL (     104 calls)
     ffts         :      0.00s CPU      0.00s WALL (       7 calls)
     fftw         :      0.44s CPU      0.46s WALL (    3510 calls)

     Parallel routines
     fft_scatt_xy :      0.03s CPU      0.04s WALL (    3621 calls)
     fft_scatt_yz :      0.15s CPU      0.16s WALL (    3621 calls)

     PWSCF        :     2.57s CPU         2.75s WALL


   This run was terminated on:  23:41:39  25Mar2024            

=------------------------------------------------------------------------------=
   JOB DONE.
=------------------------------------------------------------------------------=
