
     Program PWSCF v.6.3MaX starts on 25Mar2024 at 23:31:37 

     This program is part of the open-source Quantum ESPRESSO suite
     for quantum simulation of materials; please cite
         "P. Giannozzi et al., J. Phys.:Condens. Matter 21 395502 (2009);
         "P. Giannozzi et al., J. Phys.:Condens. Matter 29 465901 (2017);
          URL http://www.quantum-espresso.org", 
     in publications or presentations arising from this work. More details at
     http://www.quantum-espresso.org/quote

     Parallel version (MPI), running on     5 processors

     MPI processes distributed on     1 nodes
     R & G space division:  proc/nbgrp/npool/nimage =       5
     Waiting for input...
     Reading input from standard input

     Current dimensions of program PWSCF are:
     Max number of different atomic species (ntypx) = 10
     Max number of k-points (npk) =  40000
     Max angular momentum in pseudopotentials (lmaxx) =  3
               file Cu.pbe-dn-rrkjus_psl.1.0.0.UPF: wavefunction(s)  3D renormalized

     Subspace diagonalization in iterative solution of the eigenvalue problem:
     a serial algorithm will be used


     Parallelization info
     --------------------
     sticks:   dense  smooth     PW     G-vecs:    dense   smooth      PW
     Min          84      84     27                 1134     1134     213
     Max          85      85     28                 1137     1137     214
     Sum         421     421    139                 5673     5673    1067



     bravais-lattice index     =            2
     lattice parameter (alat)  =       6.8300  a.u.
     unit-cell volume          =      79.6530 (a.u.)^3
     number of atoms/cell      =            1
     number of atomic types    =            1
     number of electrons       =        11.00
     number of Kohn-Sham states=           10
     kinetic-energy cutoff     =      65.0000  Ry
     charge density cutoff     =     260.0000  Ry
     convergence threshold     =      1.0E-08
     mixing beta               =       0.7000
     number of iterations used =            8  plain     mixing
     Exchange-correlation      = PBE ( 1  4  3  4 0 0)

     celldm(1)=   6.830000  celldm(2)=   0.000000  celldm(3)=   0.000000
     celldm(4)=   0.000000  celldm(5)=   0.000000  celldm(6)=   0.000000

     crystal axes: (cart. coord. in units of alat)
               a(1) = (  -0.500000   0.000000   0.500000 )  
               a(2) = (   0.000000   0.500000   0.500000 )  
               a(3) = (  -0.500000   0.500000   0.000000 )  

     reciprocal axes: (cart. coord. in units 2 pi/alat)
               b(1) = ( -1.000000 -1.000000  1.000000 )  
               b(2) = (  1.000000  1.000000  1.000000 )  
               b(3) = ( -1.000000  1.000000 -1.000000 )  


     PseudoPot. # 1 for Cu read from file:
     /home/lorenzo/pseudos/Cu/Cu.pbe-dn-rrkjus_psl.1.0.0.UPF
     MD5 check sum: ba3d6c84e19846e79d48cdc68ff7152b
     Pseudo is Ultrasoft + core correction, Zval = 11.0
     Generated using "atomic" code by A. Dal Corso v.6.3
     Using radial grid of 1199 points,  6 beta functions with: 
                l(1) =   0
                l(2) =   0
                l(3) =   1
                l(4) =   1
                l(5) =   2
                l(6) =   2
     Q(r) pseudized with 0 coefficients 


     atomic species   valence    mass     pseudopotential
        Cu            11.00    63.54600     Cu( 1.00)

     48 Sym. Ops., with inversion, found



   Cartesian axes

     site n.     atom                  positions (alat units)
         1           Cu  tau(   1) = (   0.0000000   0.0000000   0.0000000  )

     number of k points=    20  gaussian smearing, width (Ry)=  0.0100
                       cart. coord. in units 2pi/alat
        k(    1) = (   0.0000000   0.0000000   0.0000000), wk =   0.0058309
        k(    2) = (  -0.1428571   0.1428571  -0.1428571), wk =   0.0466472
        k(    3) = (  -0.2857143   0.2857143  -0.2857143), wk =   0.0466472
        k(    4) = (  -0.4285714   0.4285714  -0.4285714), wk =   0.0466472
        k(    5) = (   0.0000000   0.2857143   0.0000000), wk =   0.0349854
        k(    6) = (  -0.1428571   0.4285714  -0.1428571), wk =   0.1399417
        k(    7) = (  -0.2857143   0.5714286  -0.2857143), wk =   0.1399417
        k(    8) = (   0.5714286  -0.2857143   0.5714286), wk =   0.1399417
        k(    9) = (   0.4285714  -0.1428571   0.4285714), wk =   0.1399417
        k(   10) = (   0.2857143  -0.0000000   0.2857143), wk =   0.0699708
        k(   11) = (   0.0000000   0.5714286   0.0000000), wk =   0.0349854
        k(   12) = (  -0.1428571   0.7142857  -0.1428571), wk =   0.1399417
        k(   13) = (   0.7142857  -0.1428571   0.7142857), wk =   0.1399417
        k(   14) = (   0.5714286   0.0000000   0.5714286), wk =   0.0699708
        k(   15) = (   0.0000000   0.8571429   0.0000000), wk =   0.0349854
        k(   16) = (   0.8571429  -0.0000000   0.8571429), wk =   0.0699708
        k(   17) = (  -0.2857143   0.5714286   0.0000000), wk =   0.1399417
        k(   18) = (   0.5714286  -0.2857143   0.8571429), wk =   0.2798834
        k(   19) = (   0.7142857  -0.1428571   1.0000000), wk =   0.1399417
        k(   20) = (   0.5714286   0.0000000   0.8571429), wk =   0.1399417

     Dense  grid:     5673 G-vectors     FFT dimensions: (  25,  25,  25)

     Estimated max dynamical RAM per process >       6.07 MB

     Estimated total dynamical RAM >      30.36 MB

     Initial potential from superposition of free atoms

     starting charge   10.99977, renormalised to   11.00000
     Starting wfcs are    9 randomized atomic wfcs +    1 random wfcs

     total cpu time spent up to now is        0.9 secs

     Self-consistent Calculation

     iteration #  1     ecut=    65.00 Ry     beta= 0.70
     Davidson diagonalization with overlap
     ethr =  1.00E-02,  avg # of iterations =  3.5

     Threshold (ethr) on eigenvalues was too large:
     Diagonalizing with lowered threshold

     Davidson diagonalization with overlap
     ethr =  5.38E-04,  avg # of iterations =  1.0

     total cpu time spent up to now is        1.3 secs

     total energy              =    -122.71491087 Ry
     Harris-Foulkes estimate   =    -122.76109191 Ry
     estimated scf accuracy    <       0.05894321 Ry

     iteration #  2     ecut=    65.00 Ry     beta= 0.70
     Davidson diagonalization with overlap
     ethr =  5.36E-04,  avg # of iterations =  2.1

     total cpu time spent up to now is        1.5 secs

     total energy              =    -122.71625095 Ry
     Harris-Foulkes estimate   =    -122.79728632 Ry
     estimated scf accuracy    <       0.20952746 Ry

     iteration #  3     ecut=    65.00 Ry     beta= 0.70
     Davidson diagonalization with overlap
     ethr =  5.36E-04,  avg # of iterations =  2.0

     total cpu time spent up to now is        1.7 secs

     total energy              =    -122.74962686 Ry
     Harris-Foulkes estimate   =    -122.74964092 Ry
     estimated scf accuracy    <       0.00006357 Ry

     iteration #  4     ecut=    65.00 Ry     beta= 0.70
     Davidson diagonalization with overlap
     ethr =  5.78E-07,  avg # of iterations =  2.8

     total cpu time spent up to now is        1.9 secs

     total energy              =    -122.74967463 Ry
     Harris-Foulkes estimate   =    -122.74967810 Ry
     estimated scf accuracy    <       0.00001226 Ry

     iteration #  5     ecut=    65.00 Ry     beta= 0.70
     Davidson diagonalization with overlap
     ethr =  1.11E-07,  avg # of iterations =  1.1

     total cpu time spent up to now is        2.0 secs

     total energy              =    -122.74967668 Ry
     Harris-Foulkes estimate   =    -122.74967674 Ry
     estimated scf accuracy    <       0.00000018 Ry

     iteration #  6     ecut=    65.00 Ry     beta= 0.70
     Davidson diagonalization with overlap
     ethr =  1.63E-09,  avg # of iterations =  2.4

     total cpu time spent up to now is        2.2 secs

     End of self-consistent calculation

          k = 0.0000 0.0000 0.0000 (   725 PWs)   bands (ev):

     3.2779   9.7027   9.7027   9.7027  10.5302  10.5302  35.5984  37.9959
    37.9959  37.9959

          k =-0.1429 0.1429-0.1429 (   712 PWs)   bands (ev):

     4.0098   9.5625   9.8180   9.8180  10.4996  10.4996  30.5954  36.0564
    36.5109  36.5109

          k =-0.2857 0.2857-0.2857 (   697 PWs)   bands (ev):

     5.9562   9.4737   9.8316   9.8316  10.7044  10.7044  23.4269  35.0918
    35.2495  35.2495

          k =-0.4286 0.4286-0.4286 (   709 PWs)   bands (ev):

     7.4831   9.6897   9.6897  10.8792  11.0520  11.0520  17.6886  34.1444
    34.7968  34.7968

          k = 0.0000 0.2857 0.0000 (   697 PWs)   bands (ev):

     4.2502   9.4243   9.9354   9.9354  10.2884  10.6331  33.2961  33.2961
    33.3753  35.2909

          k =-0.1429 0.4286-0.1429 (   706 PWs)   bands (ev):

     5.8011   9.1793   9.8504  10.0817  10.5546  10.8128  26.2097  31.4066
    32.9192  34.6093

          k =-0.2857 0.5714-0.2857 (   713 PWs)   bands (ev):

     7.6241   9.3416   9.6453   9.9709  11.0956  11.8055  19.7941  30.5702
    31.0184  33.2971

          k = 0.5714-0.2857 0.5714 (   705 PWs)   bands (ev):

     7.9790   9.4165   9.8846   9.9933  11.0349  13.3437  16.8376  28.5876
    32.3153  33.6951

          k = 0.4286-0.1429 0.4286 (   696 PWs)   bands (ev):

     7.1691   9.3447   9.6352   9.9748  10.5920  11.5634  21.7994  27.9723
    35.2484  35.4387

          k = 0.2857-0.0000 0.2857 (   698 PWs)   bands (ev):

     5.1660   9.3484   9.8620  10.0277  10.2789  10.8118  28.3400  29.0318
    38.5451  38.8116

          k = 0.0000 0.5714 0.0000 (   709 PWs)   bands (ev):

     6.6971   8.8199  10.1419  10.5453  10.5453  10.8674  28.7892  28.7892
    29.0460  31.3127

          k =-0.1429 0.7143-0.1429 (   697 PWs)   bands (ev):

     7.8558   8.6538  10.0314  10.5847  11.1235  12.1563  23.2119  25.4231
    27.8094  31.9301

          k = 0.7143-0.1429 0.7143 (   704 PWs)   bands (ev):

     8.4777   8.7839   9.7257  10.4315  11.0753  15.6954  17.8145  22.9404
    28.7307  32.3161

          k = 0.5714 0.0000 0.5714 (   700 PWs)   bands (ev):

     8.4980   9.1460   9.2814  10.2764  10.7062  13.6247  20.6735  22.3524
    31.3811  33.5092

          k = 0.0000 0.8571 0.0000 (   708 PWs)   bands (ev):

     7.7986   8.3556  11.0587  11.1548  11.1548  12.8783  21.5599  26.1330
    26.1330  30.3796

          k = 0.8571-0.0000 0.8571 (   706 PWs)   bands (ev):

     8.0349   8.4216  10.6155  10.9244  11.1903  15.2933  19.9752  22.0777
    26.4732  31.4514

          k =-0.2857 0.5714 0.0000 (   700 PWs)   bands (ev):

     7.3814   8.9656   9.5576  10.4942  10.5508  11.6559  24.6169  25.3978
    29.9568  36.8759

          k = 0.5714-0.2857 0.8571 (   707 PWs)   bands (ev):

     8.4638   9.0104   9.4042  10.3101  10.9953  14.0274  18.9516  25.2727
    26.9841  37.0100

          k = 0.7143-0.1429 1.0000 (   698 PWs)   bands (ev):

     8.2404   8.6233   9.9549  10.7825  11.1527  14.6748  22.1881  22.4240
    23.4635  35.3749

          k = 0.5714 0.0000 0.8571 (   713 PWs)   bands (ev):

     8.6065   8.8878   9.4475  10.5085  11.1501  17.7430  18.2529  20.9748
    24.3593  37.0195

     the Fermi energy is    12.8581 ev

!    total energy              =    -122.74967672 Ry
     Harris-Foulkes estimate   =    -122.74967672 Ry
     estimated scf accuracy    <          8.0E-10 Ry

     The total energy is the sum of the following terms:

     one-electron contribution =     -27.52282145 Ry
     hartree contribution      =      30.62929813 Ry
     xc contribution           =     -44.63082832 Ry
     ewald contribution        =     -81.22522855 Ry
     smearing contrib. (-TS)   =      -0.00009653 Ry

     convergence has been achieved in   6 iterations

     Forces acting on atoms (cartesian axes, Ry/au):

     atom    1 type  1   force =     0.00000000    0.00000000    0.00000000

     Total force =     0.000000     Total SCF correction =     0.000000


     Computing stress (Cartesian axis) and pressure

          total   stress  (Ry/bohr**3)                   (kbar)     P=   25.79
   0.00017535  -0.00000000   0.00000000         25.79     -0.00      0.00
  -0.00000000   0.00017535   0.00000000         -0.00     25.79      0.00
   0.00000000  -0.00000000   0.00017535          0.00     -0.00     25.79


     Writing output data file Cu.save/

     init_run     :      0.21s CPU      0.22s WALL (       1 calls)
     electrons    :      1.19s CPU      1.25s WALL (       1 calls)
     forces       :      0.02s CPU      0.03s WALL (       1 calls)
     stress       :      0.09s CPU      0.09s WALL (       1 calls)

     Called by init_run:
     wfcinit      :      0.05s CPU      0.05s WALL (       1 calls)
     potinit      :      0.01s CPU      0.01s WALL (       1 calls)
     hinit0       :      0.15s CPU      0.15s WALL (       1 calls)

     Called by electrons:
     c_bands      :      0.91s CPU      0.96s WALL (       7 calls)
     sum_band     :      0.22s CPU      0.23s WALL (       7 calls)
     v_of_rho     :      0.02s CPU      0.03s WALL (       7 calls)
     newd         :      0.03s CPU      0.04s WALL (       7 calls)
     mix_rho      :      0.00s CPU      0.00s WALL (       7 calls)

     Called by c_bands:
     init_us_2    :      0.03s CPU      0.03s WALL (     340 calls)
     cegterg      :      0.87s CPU      0.91s WALL (     140 calls)

     Called by sum_band:
     sum_band:bec :      0.00s CPU      0.00s WALL (     140 calls)
     addusdens    :      0.04s CPU      0.04s WALL (       7 calls)

     Called by *egterg:
     h_psi        :      0.70s CPU      0.73s WALL (     458 calls)
     s_psi        :      0.02s CPU      0.02s WALL (     458 calls)
     g_psi        :      0.00s CPU      0.00s WALL (     298 calls)
     cdiaghg      :      0.08s CPU      0.09s WALL (     418 calls)

     Called by h_psi:
     h_psi:pot    :      0.69s CPU      0.73s WALL (     458 calls)
     h_psi:calbec :      0.03s CPU      0.03s WALL (     458 calls)
     vloc_psi     :      0.64s CPU      0.67s WALL (     458 calls)
     add_vuspsi   :      0.02s CPU      0.02s WALL (     458 calls)

     General routines
     calbec       :      0.05s CPU      0.05s WALL (     698 calls)
     fft          :      0.02s CPU      0.02s WALL (     104 calls)
     ffts         :      0.00s CPU      0.00s WALL (       7 calls)
     fftw         :      0.73s CPU      0.76s WALL (    8530 calls)

     Parallel routines
     fft_scatt_xy :      0.06s CPU      0.06s WALL (    8641 calls)
     fft_scatt_yz :      0.22s CPU      0.23s WALL (    8641 calls)

     PWSCF        :     2.23s CPU         2.34s WALL


   This run was terminated on:  23:31:40  25Mar2024            

=------------------------------------------------------------------------------=
   JOB DONE.
=------------------------------------------------------------------------------=
