
     Program PWSCF v.6.3MaX starts on 25Mar2024 at 23:34:18 

     This program is part of the open-source Quantum ESPRESSO suite
     for quantum simulation of materials; please cite
         "P. Giannozzi et al., J. Phys.:Condens. Matter 21 395502 (2009);
         "P. Giannozzi et al., J. Phys.:Condens. Matter 29 465901 (2017);
          URL http://www.quantum-espresso.org", 
     in publications or presentations arising from this work. More details at
     http://www.quantum-espresso.org/quote

     Parallel version (MPI), running on     5 processors

     MPI processes distributed on     1 nodes
     R & G space division:  proc/nbgrp/npool/nimage =       5
     Waiting for input...
     Reading input from standard input

     Current dimensions of program PWSCF are:
     Max number of different atomic species (ntypx) = 10
     Max number of k-points (npk) =  40000
     Max angular momentum in pseudopotentials (lmaxx) =  3
               file Cu.pbesol-dn-kjpaw_psl.1.0.0.UPF: wavefunction(s)  4S 3D renormalized

     Subspace diagonalization in iterative solution of the eigenvalue problem:
     a serial algorithm will be used


     Parallelization info
     --------------------
     sticks:   dense  smooth     PW     G-vecs:    dense   smooth      PW
     Min          87      87     30                 1245     1245     241
     Max          88      88     31                 1247     1247     244
     Sum         439     439    151                 6231     6231    1211



     bravais-lattice index     =            2
     lattice parameter (alat)  =       6.8300  a.u.
     unit-cell volume          =      79.6530 (a.u.)^3
     number of atoms/cell      =            1
     number of atomic types    =            1
     number of electrons       =        11.00
     number of Kohn-Sham states=           10
     kinetic-energy cutoff     =      70.0000  Ry
     charge density cutoff     =     280.0000  Ry
     convergence threshold     =      1.0E-08
     mixing beta               =       0.7000
     number of iterations used =            8  plain     mixing
     Exchange-correlation      = SLA PW PSX PSC ( 1  4 10  8 0 0)

     celldm(1)=   6.830000  celldm(2)=   0.000000  celldm(3)=   0.000000
     celldm(4)=   0.000000  celldm(5)=   0.000000  celldm(6)=   0.000000

     crystal axes: (cart. coord. in units of alat)
               a(1) = (  -0.500000   0.000000   0.500000 )  
               a(2) = (   0.000000   0.500000   0.500000 )  
               a(3) = (  -0.500000   0.500000   0.000000 )  

     reciprocal axes: (cart. coord. in units 2 pi/alat)
               b(1) = ( -1.000000 -1.000000  1.000000 )  
               b(2) = (  1.000000  1.000000  1.000000 )  
               b(3) = ( -1.000000  1.000000 -1.000000 )  


     PseudoPot. # 1 for Cu read from file:
     /home/lorenzo/pseudos/Cu/Cu.pbesol-dn-kjpaw_psl.1.0.0.UPF
     MD5 check sum: 1e9735a74797514c934643dbd229f231
     Pseudo is Projector augmented-wave + core cor, Zval = 11.0
     Generated using "atomic" code by A. Dal Corso v.6.3
     Shape of augmentation charge: PSQ
     Using radial grid of 1199 points,  6 beta functions with: 
                l(1) =   0
                l(2) =   0
                l(3) =   1
                l(4) =   1
                l(5) =   2
                l(6) =   2
     Q(r) pseudized with 0 coefficients 


     atomic species   valence    mass     pseudopotential
        Cu            11.00    63.54600     Cu( 1.00)

     48 Sym. Ops., with inversion, found



   Cartesian axes

     site n.     atom                  positions (alat units)
         1           Cu  tau(   1) = (   0.0000000   0.0000000   0.0000000  )

     number of k points=    29  gaussian smearing, width (Ry)=  0.0100
                       cart. coord. in units 2pi/alat
        k(    1) = (   0.0000000   0.0000000   0.0000000), wk =   0.0039062
        k(    2) = (  -0.1250000   0.1250000  -0.1250000), wk =   0.0312500
        k(    3) = (  -0.2500000   0.2500000  -0.2500000), wk =   0.0312500
        k(    4) = (  -0.3750000   0.3750000  -0.3750000), wk =   0.0312500
        k(    5) = (   0.5000000  -0.5000000   0.5000000), wk =   0.0156250
        k(    6) = (   0.0000000   0.2500000   0.0000000), wk =   0.0234375
        k(    7) = (  -0.1250000   0.3750000  -0.1250000), wk =   0.0937500
        k(    8) = (  -0.2500000   0.5000000  -0.2500000), wk =   0.0937500
        k(    9) = (   0.6250000  -0.3750000   0.6250000), wk =   0.0937500
        k(   10) = (   0.5000000  -0.2500000   0.5000000), wk =   0.0937500
        k(   11) = (   0.3750000  -0.1250000   0.3750000), wk =   0.0937500
        k(   12) = (   0.2500000   0.0000000   0.2500000), wk =   0.0468750
        k(   13) = (   0.0000000   0.5000000   0.0000000), wk =   0.0234375
        k(   14) = (  -0.1250000   0.6250000  -0.1250000), wk =   0.0937500
        k(   15) = (   0.7500000  -0.2500000   0.7500000), wk =   0.0937500
        k(   16) = (   0.6250000  -0.1250000   0.6250000), wk =   0.0937500
        k(   17) = (   0.5000000   0.0000000   0.5000000), wk =   0.0468750
        k(   18) = (   0.0000000   0.7500000   0.0000000), wk =   0.0234375
        k(   19) = (   0.8750000  -0.1250000   0.8750000), wk =   0.0937500
        k(   20) = (   0.7500000   0.0000000   0.7500000), wk =   0.0468750
        k(   21) = (   0.0000000  -1.0000000   0.0000000), wk =   0.0117188
        k(   22) = (  -0.2500000   0.5000000   0.0000000), wk =   0.0937500
        k(   23) = (   0.6250000  -0.3750000   0.8750000), wk =   0.1875000
        k(   24) = (   0.5000000  -0.2500000   0.7500000), wk =   0.0937500
        k(   25) = (   0.7500000  -0.2500000   1.0000000), wk =   0.0937500
        k(   26) = (   0.6250000  -0.1250000   0.8750000), wk =   0.1875000
        k(   27) = (   0.5000000   0.0000000   0.7500000), wk =   0.0937500
        k(   28) = (  -0.2500000  -1.0000000   0.0000000), wk =   0.0468750
        k(   29) = (  -0.5000000  -1.0000000   0.0000000), wk =   0.0234375

     Dense  grid:     6231 G-vectors     FFT dimensions: (  25,  25,  25)

     Estimated max dynamical RAM per process >       6.77 MB

     Estimated total dynamical RAM >      33.86 MB

     Initial potential from superposition of free atoms

     starting charge   10.99979, renormalised to   11.00000
     Starting wfcs are    9 randomized atomic wfcs +    1 random wfcs
     Checking if some PAW data can be deallocated... 

     total cpu time spent up to now is        1.1 secs

     Self-consistent Calculation

     iteration #  1     ecut=    70.00 Ry     beta= 0.70
     Davidson diagonalization with overlap
     ethr =  1.00E-02,  avg # of iterations =  3.7

     Threshold (ethr) on eigenvalues was too large:
     Diagonalizing with lowered threshold

     Davidson diagonalization with overlap
     ethr =  6.90E-04,  avg # of iterations =  1.0

     total cpu time spent up to now is        1.7 secs

     total energy              =    -210.37269314 Ry
     Harris-Foulkes estimate   =    -210.43317540 Ry
     estimated scf accuracy    <       0.07561557 Ry

     iteration #  2     ecut=    70.00 Ry     beta= 0.70
     Davidson diagonalization with overlap
     ethr =  6.87E-04,  avg # of iterations =  2.1

     total cpu time spent up to now is        2.1 secs

     total energy              =    -210.37487187 Ry
     Harris-Foulkes estimate   =    -210.48292188 Ry
     estimated scf accuracy    <       0.28254779 Ry

     iteration #  3     ecut=    70.00 Ry     beta= 0.70
     Davidson diagonalization with overlap
     ethr =  6.87E-04,  avg # of iterations =  2.0

     total cpu time spent up to now is        2.5 secs

     total energy              =    -210.41842967 Ry
     Harris-Foulkes estimate   =    -210.41853719 Ry
     estimated scf accuracy    <       0.00022030 Ry

     iteration #  4     ecut=    70.00 Ry     beta= 0.70
     Davidson diagonalization with overlap
     ethr =  2.00E-06,  avg # of iterations =  2.6

     total cpu time spent up to now is        2.8 secs

     total energy              =    -210.41851783 Ry
     Harris-Foulkes estimate   =    -210.41852932 Ry
     estimated scf accuracy    <       0.00003068 Ry

     iteration #  5     ecut=    70.00 Ry     beta= 0.70
     Davidson diagonalization with overlap
     ethr =  2.79E-07,  avg # of iterations =  1.1

     total cpu time spent up to now is        3.1 secs

     total energy              =    -210.41852341 Ry
     Harris-Foulkes estimate   =    -210.41852361 Ry
     estimated scf accuracy    <       0.00000050 Ry

     iteration #  6     ecut=    70.00 Ry     beta= 0.70
     Davidson diagonalization with overlap
     ethr =  4.55E-09,  avg # of iterations =  2.3

     total cpu time spent up to now is        3.4 secs

     End of self-consistent calculation

          k = 0.0000 0.0000 0.0000 (   749 PWs)   bands (ev):

     3.0436   9.4822   9.4822   9.4822  10.3245  10.3245  35.3782  37.7518
    37.7518  37.7518

          k =-0.1250 0.1250-0.1250 (   791 PWs)   bands (ev):

     3.6066   9.3700   9.5772   9.5772  10.2949  10.2949  31.2979  35.9108
    36.4781  36.4781

          k =-0.2500 0.2500-0.2500 (   797 PWs)   bands (ev):

     5.1679   9.2175   9.6422   9.6422  10.4069  10.4069  24.8948  35.1629
    35.2331  35.2331

          k =-0.3750 0.3750-0.3750 (   784 PWs)   bands (ev):

     6.9069   9.5215   9.5215   9.8464  10.7338  10.7338  19.3410  34.2024
    34.6337  34.6337

          k = 0.5000-0.5000 0.5000 (   778 PWs)   bands (ev):

     7.3799   9.4514   9.4514  10.8985  10.8985  11.4039  16.2223  33.7866
    34.5073  34.5073

          k = 0.0000 0.2500 0.0000 (   797 PWs)   bands (ev):

     3.7923   9.2644   9.6619   9.6619  10.1325  10.4048  33.4848  33.6995
    33.6995  35.5365

          k =-0.1250 0.3750-0.1250 (   800 PWs)   bands (ev):

     5.0226   9.0468   9.6974   9.8104  10.1982  10.5270  27.3448  31.9017
    33.2947  35.7165

          k =-0.2500 0.5000-0.2500 (   788 PWs)   bands (ev):

     6.8084   9.0730   9.4571   9.7524  10.7933  10.9351  21.4299  31.1868
    31.9146  33.5577

          k = 0.6250-0.3750 0.6250 (   795 PWs)   bands (ev):

     7.6402   9.2472   9.6413   9.8073  10.9099  12.5903  16.8983  29.9305
    31.6935  33.2917

          k = 0.5000-0.2500 0.5000 (   790 PWs)   bands (ev):

     7.5292   9.3203   9.6411   9.6563  10.6893  12.0499  18.1502  28.7723
    33.4934  34.1396

          k = 0.3750-0.1250 0.3750 (   796 PWs)   bands (ev):

     6.2382   9.0774   9.5290   9.7707  10.2629  10.9804  23.3177  28.6889
    36.0570  36.4820

          k = 0.2500 0.0000 0.2500 (   799 PWs)   bands (ev):

     4.5094   9.1894   9.6581   9.7370  10.1146  10.4952  29.2075  29.9203
    38.0792  39.0898

          k = 0.0000 0.5000 0.0000 (   817 PWs)   bands (ev):

     5.8126   8.7535   9.8489  10.1528  10.1528  10.6009  29.5286  29.5286
    30.8377  31.4867

          k =-0.1250 0.6250-0.1250 (   792 PWs)   bands (ev):

     7.1382   8.5579   9.6619  10.2495  10.8208  11.0752  24.3796  27.6007
    28.3381  32.0004

          k = 0.7500-0.2500 0.7500 (   788 PWs)   bands (ev):

     8.0362   8.6227   9.4910  10.1336  10.9393  13.4079  19.1552  25.0173
    28.5301  32.0977

          k = 0.6250-0.1250 0.6250 (   787 PWs)   bands (ev):

     8.2850   8.8107   9.3182  10.0360  10.7090  14.5924  17.7026  23.4249
    30.1271  32.7635

          k = 0.5000 0.0000 0.5000 (   792 PWs)   bands (ev):

     7.7324   8.9642   9.1797   9.9931  10.3177  12.1927  22.1530  23.3564
    32.9045  34.2294

          k = 0.0000 0.7500 0.0000 (   789 PWs)   bands (ev):

     7.4588   8.2628  10.7505  10.7505  10.8002  11.2183  23.8671  26.6068
    26.6068  30.3836

          k = 0.8750-0.1250 0.8750 (   780 PWs)   bands (ev):

     7.7680   8.2151  10.3871  10.6776  10.9807  13.7550  21.1963  22.6823
    26.3288  31.2141

          k = 0.7500 0.0000 0.7500 (   786 PWs)   bands (ev):

     8.1864   8.4172   9.7323  10.4591  10.8423  16.7701  18.1798  20.2884
    27.5935  31.7737

          k = 0.0000-1.0000 0.0000 (   790 PWs)   bands (ev):

     7.5965   8.0651  10.8837  11.0413  11.0413  13.9041  19.5747  25.5223
    25.5223  30.0417

          k =-0.2500 0.5000 0.0000 (   788 PWs)   bands (ev):

     6.4062   8.8321   9.4759  10.1623  10.2053  11.0105  25.7592  26.4371
    31.7303  36.3350

          k = 0.6250-0.3750 0.8750 (   788 PWs)   bands (ev):

     7.8240   8.8787   9.2020  10.0405  10.6624  12.3426  20.4446  25.9104
    28.8277  36.3993

          k = 0.5000-0.2500 0.7500 (   782 PWs)   bands (ev):

     8.1592   8.8761   9.3993   9.9382  10.8414  14.5620  16.7107  26.6472
    27.0061  36.1219

          k = 0.7500-0.2500 1.0000 (   793 PWs)   bands (ev):

     7.8658   8.4428   9.6277  10.5990  10.7471  12.6994  23.3614  24.0968
    24.5193  34.6376

          k = 0.6250-0.1250 0.8750 (   783 PWs)   bands (ev):

     8.3021   8.5671   9.3675  10.3484  10.9208  15.7868  18.8223  22.2180
    24.4496  35.7636

          k = 0.5000 0.0000 0.7500 (   779 PWs)   bands (ev):

     8.5358   8.7422   8.9806  10.2348  10.7515  14.9035  19.6222  21.5829
    26.1699  36.9206

          k =-0.2500-1.0000 0.0000 (   778 PWs)   bands (ev):

     7.9223   8.2819  10.0914  10.6323  11.0417  15.5278  19.8656  22.4534
    23.3601  34.0795

          k =-0.5000-1.0000 0.0000 (   772 PWs)   bands (ev):

     8.3474   8.9575   8.9575  10.2802  11.0420  18.6427  18.6427  20.7733
    21.2308  40.8387

     the Fermi energy is    12.4337 ev

!    total energy              =    -210.41852355 Ry
     Harris-Foulkes estimate   =    -210.41852355 Ry
     estimated scf accuracy    <          3.8E-10 Ry

     total all-electron energy =     -3307.297585 Ry

     The total energy is the sum of the following terms:

     one-electron contribution =     -28.01546942 Ry
     hartree contribution      =      30.53680432 Ry
     xc contribution           =     -44.11351936 Ry
     ewald contribution        =     -81.22522855 Ry
     one-center paw contrib.   =     -87.60069094 Ry
     smearing contrib. (-TS)   =      -0.00041961 Ry

     convergence has been achieved in   6 iterations

     Forces acting on atoms (cartesian axes, Ry/au):

     atom    1 type  1   force =     0.00000000    0.00000000    0.00000000

     Total force =     0.000000     Total SCF correction =     0.000000


     Computing stress (Cartesian axis) and pressure

          total   stress  (Ry/bohr**3)                   (kbar)     P=  -56.87
  -0.00038661   0.00000000  -0.00000000        -56.87      0.00     -0.00
  -0.00000000  -0.00038661  -0.00000000         -0.00    -56.87     -0.00
   0.00000000  -0.00000000  -0.00038661          0.00     -0.00    -56.87


     Writing output data file Cu.save/

     init_run     :      0.33s CPU      0.35s WALL (       1 calls)
     electrons    :      2.13s CPU      2.33s WALL (       1 calls)
     forces       :      0.03s CPU      0.03s WALL (       1 calls)
     stress       :      0.11s CPU      0.11s WALL (       1 calls)

     Called by init_run:
     wfcinit      :      0.07s CPU      0.07s WALL (       1 calls)
     potinit      :      0.09s CPU      0.11s WALL (       1 calls)
     hinit0       :      0.15s CPU      0.15s WALL (       1 calls)

     Called by electrons:
     c_bands      :      1.27s CPU      1.36s WALL (       7 calls)
     sum_band     :      0.26s CPU      0.28s WALL (       7 calls)
     v_of_rho     :      0.02s CPU      0.02s WALL (       7 calls)
     newd         :      0.04s CPU      0.05s WALL (       7 calls)
     PAW_pot      :      0.61s CPU      0.71s WALL (       7 calls)
     mix_rho      :      0.01s CPU      0.01s WALL (       7 calls)

     Called by c_bands:
     init_us_2    :      0.05s CPU      0.05s WALL (     493 calls)
     cegterg      :      1.21s CPU      1.29s WALL (     203 calls)

     Called by sum_band:
     sum_band:bec :      0.00s CPU      0.00s WALL (     203 calls)
     addusdens    :      0.04s CPU      0.04s WALL (       7 calls)

     Called by *egterg:
     h_psi        :      0.96s CPU      1.02s WALL (     661 calls)
     s_psi        :      0.03s CPU      0.04s WALL (     661 calls)
     g_psi        :      0.00s CPU      0.00s WALL (     429 calls)
     cdiaghg      :      0.11s CPU      0.12s WALL (     603 calls)

     Called by h_psi:
     h_psi:pot    :      0.96s CPU      1.02s WALL (     661 calls)
     h_psi:calbec :      0.05s CPU      0.05s WALL (     661 calls)
     vloc_psi     :      0.87s CPU      0.93s WALL (     661 calls)
     add_vuspsi   :      0.03s CPU      0.04s WALL (     661 calls)

     General routines
     calbec       :      0.07s CPU      0.08s WALL (    1009 calls)
     fft          :      0.02s CPU      0.02s WALL (     104 calls)
     ffts         :      0.00s CPU      0.00s WALL (       7 calls)
     fftw         :      0.98s CPU      1.04s WALL (   12352 calls)

     Parallel routines
     fft_scatt_xy :      0.08s CPU      0.08s WALL (   12463 calls)
     fft_scatt_yz :      0.26s CPU      0.28s WALL (   12463 calls)

     PWSCF        :     3.39s CPU         3.65s WALL


   This run was terminated on:  23:34:22  25Mar2024            

=------------------------------------------------------------------------------=
   JOB DONE.
=------------------------------------------------------------------------------=
