
     Program PWSCF v.6.3MaX starts on 25Mar2024 at 23:47:38 

     This program is part of the open-source Quantum ESPRESSO suite
     for quantum simulation of materials; please cite
         "P. Giannozzi et al., J. Phys.:Condens. Matter 21 395502 (2009);
         "P. Giannozzi et al., J. Phys.:Condens. Matter 29 465901 (2017);
          URL http://www.quantum-espresso.org", 
     in publications or presentations arising from this work. More details at
     http://www.quantum-espresso.org/quote

     Parallel version (MPI), running on     5 processors

     MPI processes distributed on     1 nodes
     R & G space division:  proc/nbgrp/npool/nimage =       5
     Waiting for input...
     Reading input from standard input

     Current dimensions of program PWSCF are:
     Max number of different atomic species (ntypx) = 10
     Max number of k-points (npk) =  40000
     Max angular momentum in pseudopotentials (lmaxx) =  3
               file Cu.pbesol-dn-rrkjus_psl.1.0.0.UPF: wavefunction(s)  3D renormalized

     Subspace diagonalization in iterative solution of the eigenvalue problem:
     a serial algorithm will be used


     Parallelization info
     --------------------
     sticks:   dense  smooth     PW     G-vecs:    dense   smooth      PW
     Min         119     119     37                 1967     1967     327
     Max         119     119     38                 1969     1969     329
     Sum         595     595    187                 9841     9841    1639



     bravais-lattice index     =            2
     lattice parameter (alat)  =       6.8300  a.u.
     unit-cell volume          =      79.6530 (a.u.)^3
     number of atoms/cell      =            1
     number of atomic types    =            1
     number of electrons       =        11.00
     number of Kohn-Sham states=           10
     kinetic-energy cutoff     =      95.0000  Ry
     charge density cutoff     =     380.0000  Ry
     convergence threshold     =      1.0E-08
     mixing beta               =       0.7000
     number of iterations used =            8  plain     mixing
     Exchange-correlation      = PBESOL ( 1  4 10  8 0 0)

     celldm(1)=   6.830000  celldm(2)=   0.000000  celldm(3)=   0.000000
     celldm(4)=   0.000000  celldm(5)=   0.000000  celldm(6)=   0.000000

     crystal axes: (cart. coord. in units of alat)
               a(1) = (  -0.500000   0.000000   0.500000 )  
               a(2) = (   0.000000   0.500000   0.500000 )  
               a(3) = (  -0.500000   0.500000   0.000000 )  

     reciprocal axes: (cart. coord. in units 2 pi/alat)
               b(1) = ( -1.000000 -1.000000  1.000000 )  
               b(2) = (  1.000000  1.000000  1.000000 )  
               b(3) = ( -1.000000  1.000000 -1.000000 )  


     PseudoPot. # 1 for Cu read from file:
     /home/lorenzo/pseudos/Cu/Cu.pbesol-dn-rrkjus_psl.1.0.0.UPF
     MD5 check sum: bfa4c7aafbc42e028d5f4ccf7ceed93d
     Pseudo is Ultrasoft + core correction, Zval = 11.0
     Generated using "atomic" code by A. Dal Corso v.6.3
     Using radial grid of 1199 points,  6 beta functions with: 
                l(1) =   0
                l(2) =   0
                l(3) =   1
                l(4) =   1
                l(5) =   2
                l(6) =   2
     Q(r) pseudized with 0 coefficients 


     atomic species   valence    mass     pseudopotential
        Cu            11.00    63.54600     Cu( 1.00)

     48 Sym. Ops., with inversion, found



   Cartesian axes

     site n.     atom                  positions (alat units)
         1           Cu  tau(   1) = (   0.0000000   0.0000000   0.0000000  )

     number of k points=     4  gaussian smearing, width (Ry)=  0.0100
                       cart. coord. in units 2pi/alat
        k(    1) = (   0.0000000   0.0000000   0.0000000), wk =   0.0740741
        k(    2) = (  -0.3333333   0.3333333  -0.3333333), wk =   0.5925926
        k(    3) = (   0.0000000   0.6666667   0.0000000), wk =   0.4444444
        k(    4) = (   0.6666667  -0.0000000   0.6666667), wk =   0.8888889

     Dense  grid:     9841 G-vectors     FFT dimensions: (  30,  30,  30)

     Estimated max dynamical RAM per process >       9.19 MB

     Estimated total dynamical RAM >      45.94 MB

     Initial potential from superposition of free atoms

     starting charge   10.99979, renormalised to   11.00000
     Starting wfcs are    9 randomized atomic wfcs +    1 random wfcs

     total cpu time spent up to now is        0.9 secs

     Self-consistent Calculation

     iteration #  1     ecut=    95.00 Ry     beta= 0.70
     Davidson diagonalization with overlap
     ethr =  1.00E-02,  avg # of iterations =  5.0

     Threshold (ethr) on eigenvalues was too large:
     Diagonalizing with lowered threshold

     Davidson diagonalization with overlap
     ethr =  6.81E-04,  avg # of iterations =  1.0

     total cpu time spent up to now is        1.1 secs

     total energy              =    -122.39230596 Ry
     Harris-Foulkes estimate   =    -122.45187594 Ry
     estimated scf accuracy    <       0.07489832 Ry

     iteration #  2     ecut=    95.00 Ry     beta= 0.70
     Davidson diagonalization with overlap
     ethr =  6.81E-04,  avg # of iterations =  2.0

     total cpu time spent up to now is        1.2 secs

     total energy              =    -122.39197389 Ry
     Harris-Foulkes estimate   =    -122.49663918 Ry
     estimated scf accuracy    <       0.27177360 Ry

     iteration #  3     ecut=    95.00 Ry     beta= 0.70
     Davidson diagonalization with overlap
     ethr =  6.81E-04,  avg # of iterations =  2.0

     total cpu time spent up to now is        1.3 secs

     total energy              =    -122.43596403 Ry
     Harris-Foulkes estimate   =    -122.43599160 Ry
     estimated scf accuracy    <       0.00010474 Ry

     iteration #  4     ecut=    95.00 Ry     beta= 0.70
     Davidson diagonalization with overlap
     ethr =  9.52E-07,  avg # of iterations =  2.5

     total cpu time spent up to now is        1.4 secs

     total energy              =    -122.43609537 Ry
     Harris-Foulkes estimate   =    -122.43609622 Ry
     estimated scf accuracy    <       0.00000579 Ry

     iteration #  5     ecut=    95.00 Ry     beta= 0.70
     Davidson diagonalization with overlap
     ethr =  5.26E-08,  avg # of iterations =  1.2

     total cpu time spent up to now is        1.4 secs

     total energy              =    -122.43609591 Ry
     Harris-Foulkes estimate   =    -122.43609586 Ry
     estimated scf accuracy    <       0.00000012 Ry

     iteration #  6     ecut=    95.00 Ry     beta= 0.70
     Davidson diagonalization with overlap
     ethr =  1.12E-09,  avg # of iterations =  2.0

     total cpu time spent up to now is        1.5 secs

     End of self-consistent calculation

          k = 0.0000 0.0000 0.0000 (  1243 PWs)   bands (ev):

     3.0465   9.4169   9.4169   9.4169  10.2436  10.2436  35.3949  37.7454
    37.7454  37.7454

          k =-0.3333 0.3333-0.3333 (  1236 PWs)   bands (ev):

     6.4176   9.4053   9.4963   9.4963  10.5478  10.5478  21.0372  34.5056
    34.7544  34.7544

          k = 0.0000 0.6667 0.0000 (  1258 PWs)   bands (ev):

     7.1265   8.3484  10.3452  10.4905  10.4905  10.6579  26.0941  27.3989
    27.3989  30.6444

          k = 0.6667-0.0000 0.6667 (  1234 PWs)   bands (ev):

     8.3812   8.5492   9.2838  10.1725  10.6220  15.6756  18.3520  20.9171
    29.0620  32.3360

     the Fermi energy is    10.7752 ev

!    total energy              =    -122.43609591 Ry
     Harris-Foulkes estimate   =    -122.43609591 Ry
     estimated scf accuracy    <          6.4E-09 Ry

     The total energy is the sum of the following terms:

     one-electron contribution =     -27.58474166 Ry
     hartree contribution      =      30.47401802 Ry
     xc contribution           =     -44.09860503 Ry
     ewald contribution        =     -81.22522855 Ry
     smearing contrib. (-TS)   =      -0.00153870 Ry

     convergence has been achieved in   6 iterations

     Forces acting on atoms (cartesian axes, Ry/au):

     atom    1 type  1   force =     0.00000000    0.00000000    0.00000000

     Total force =     0.000000     Total SCF correction =     0.000000


     Computing stress (Cartesian axis) and pressure

          total   stress  (Ry/bohr**3)                   (kbar)     P=  -97.34
  -0.00066170   0.00000000   0.00000000        -97.34      0.00      0.00
   0.00000000  -0.00066170  -0.00000000          0.00    -97.34     -0.00
   0.00000000  -0.00000000  -0.00066170          0.00     -0.00    -97.34


     Writing output data file Cu.save/

     init_run     :      0.22s CPU      0.23s WALL (       1 calls)
     electrons    :      0.57s CPU      0.59s WALL (       1 calls)
     forces       :      0.06s CPU      0.06s WALL (       1 calls)
     stress       :      0.16s CPU      0.16s WALL (       1 calls)

     Called by init_run:
     wfcinit      :      0.01s CPU      0.02s WALL (       1 calls)
     potinit      :      0.01s CPU      0.01s WALL (       1 calls)
     hinit0       :      0.17s CPU      0.18s WALL (       1 calls)

     Called by electrons:
     c_bands      :      0.32s CPU      0.33s WALL (       7 calls)
     sum_band     :      0.14s CPU      0.14s WALL (       7 calls)
     v_of_rho     :      0.04s CPU      0.04s WALL (       7 calls)
     newd         :      0.07s CPU      0.07s WALL (       7 calls)
     mix_rho      :      0.00s CPU      0.00s WALL (       7 calls)

     Called by c_bands:
     init_us_2    :      0.01s CPU      0.01s WALL (      68 calls)
     cegterg      :      0.30s CPU      0.31s WALL (      28 calls)

     Called by sum_band:
     sum_band:bec :      0.00s CPU      0.00s WALL (      28 calls)
     addusdens    :      0.07s CPU      0.07s WALL (       7 calls)

     Called by *egterg:
     h_psi        :      0.24s CPU      0.25s WALL (      95 calls)
     s_psi        :      0.01s CPU      0.01s WALL (      95 calls)
     g_psi        :      0.00s CPU      0.00s WALL (      63 calls)
     cdiaghg      :      0.03s CPU      0.03s WALL (      87 calls)

     Called by h_psi:
     h_psi:pot    :      0.24s CPU      0.25s WALL (      95 calls)
     h_psi:calbec :      0.01s CPU      0.02s WALL (      95 calls)
     vloc_psi     :      0.21s CPU      0.22s WALL (      95 calls)
     add_vuspsi   :      0.01s CPU      0.01s WALL (      95 calls)

     General routines
     calbec       :      0.03s CPU      0.03s WALL (     143 calls)
     fft          :      0.03s CPU      0.03s WALL (     104 calls)
     ffts         :      0.00s CPU      0.00s WALL (       7 calls)
     fftw         :      0.24s CPU      0.25s WALL (    1706 calls)

     Parallel routines
     fft_scatt_xy :      0.02s CPU      0.02s WALL (    1817 calls)
     fft_scatt_yz :      0.09s CPU      0.09s WALL (    1817 calls)

     PWSCF        :     1.71s CPU         1.78s WALL


   This run was terminated on:  23:47:40  25Mar2024            

=------------------------------------------------------------------------------=
   JOB DONE.
=------------------------------------------------------------------------------=
