
     Program PWSCF v.6.3MaX starts on 25Mar2024 at 23:14:27 

     This program is part of the open-source Quantum ESPRESSO suite
     for quantum simulation of materials; please cite
         "P. Giannozzi et al., J. Phys.:Condens. Matter 21 395502 (2009);
         "P. Giannozzi et al., J. Phys.:Condens. Matter 29 465901 (2017);
          URL http://www.quantum-espresso.org", 
     in publications or presentations arising from this work. More details at
     http://www.quantum-espresso.org/quote

     Parallel version (MPI), running on     5 processors

     MPI processes distributed on     1 nodes
     R & G space division:  proc/nbgrp/npool/nimage =       5
     Waiting for input...
     Reading input from standard input

     Current dimensions of program PWSCF are:
     Max number of different atomic species (ntypx) = 10
     Max number of k-points (npk) =  40000
     Max angular momentum in pseudopotentials (lmaxx) =  3
               file Cu.pbesol-dn-kjpaw_psl.1.0.0.UPF: wavefunction(s)  4S 3D renormalized

     Subspace diagonalization in iterative solution of the eigenvalue problem:
     a serial algorithm will be used


     Parallelization info
     --------------------
     sticks:   dense  smooth     PW     G-vecs:    dense   smooth      PW
     Min          32      32     11                  271      271      56
     Max          33      33     11                  273      273      58
     Sum         163     163     55                 1363     1363     283



     bravais-lattice index     =            2
     lattice parameter (alat)  =       6.8300  a.u.
     unit-cell volume          =      79.6530 (a.u.)^3
     number of atoms/cell      =            1
     number of atomic types    =            1
     number of electrons       =        11.00
     number of Kohn-Sham states=           10
     kinetic-energy cutoff     =      25.0000  Ry
     charge density cutoff     =     100.0000  Ry
     convergence threshold     =      1.0E-08
     mixing beta               =       0.7000
     number of iterations used =            8  plain     mixing
     Exchange-correlation      = SLA PW PSX PSC ( 1  4 10  8 0 0)

     celldm(1)=   6.830000  celldm(2)=   0.000000  celldm(3)=   0.000000
     celldm(4)=   0.000000  celldm(5)=   0.000000  celldm(6)=   0.000000

     crystal axes: (cart. coord. in units of alat)
               a(1) = (  -0.500000   0.000000   0.500000 )  
               a(2) = (   0.000000   0.500000   0.500000 )  
               a(3) = (  -0.500000   0.500000   0.000000 )  

     reciprocal axes: (cart. coord. in units 2 pi/alat)
               b(1) = ( -1.000000 -1.000000  1.000000 )  
               b(2) = (  1.000000  1.000000  1.000000 )  
               b(3) = ( -1.000000  1.000000 -1.000000 )  


     PseudoPot. # 1 for Cu read from file:
     /home/lorenzo/pseudos/Cu/Cu.pbesol-dn-kjpaw_psl.1.0.0.UPF
     MD5 check sum: 1e9735a74797514c934643dbd229f231
     Pseudo is Projector augmented-wave + core cor, Zval = 11.0
     Generated using "atomic" code by A. Dal Corso v.6.3
     Shape of augmentation charge: PSQ
     Using radial grid of 1199 points,  6 beta functions with: 
                l(1) =   0
                l(2) =   0
                l(3) =   1
                l(4) =   1
                l(5) =   2
                l(6) =   2
     Q(r) pseudized with 0 coefficients 


     atomic species   valence    mass     pseudopotential
        Cu            11.00    63.54600     Cu( 1.00)

     48 Sym. Ops., with inversion, found



   Cartesian axes

     site n.     atom                  positions (alat units)
         1           Cu  tau(   1) = (   0.0000000   0.0000000   0.0000000  )

     number of k points=     3  gaussian smearing, width (Ry)=  0.0100
                       cart. coord. in units 2pi/alat
        k(    1) = (   0.0000000   0.0000000   0.0000000), wk =   0.2500000
        k(    2) = (   0.5000000  -0.5000000   0.5000000), wk =   1.0000000
        k(    3) = (   0.0000000  -1.0000000   0.0000000), wk =   0.7500000

     Dense  grid:     1363 G-vectors     FFT dimensions: (  15,  15,  15)

     Estimated max dynamical RAM per process >       1.90 MB

     Estimated total dynamical RAM >       9.50 MB

     Check: negative/imaginary core charge=   -0.000132    0.000000

     Initial potential from superposition of free atoms

     starting charge   10.99979, renormalised to   11.00000
     Starting wfcs are    9 randomized atomic wfcs +    1 random wfcs
     Checking if some PAW data can be deallocated... 

     total cpu time spent up to now is        1.0 secs

     Self-consistent Calculation

     iteration #  1     ecut=    25.00 Ry     beta= 0.70
     Davidson diagonalization with overlap
     ethr =  1.00E-02,  avg # of iterations =  4.0

     total cpu time spent up to now is        1.1 secs

     total energy              =    -210.07602952 Ry
     Harris-Foulkes estimate   =    -210.18832270 Ry
     estimated scf accuracy    <       0.13983768 Ry

     iteration #  2     ecut=    25.00 Ry     beta= 0.70
     Davidson diagonalization with overlap
     ethr =  1.27E-03,  avg # of iterations =  2.0

     total cpu time spent up to now is        1.3 secs

     total energy              =    -210.11877220 Ry
     Harris-Foulkes estimate   =    -210.27206856 Ry
     estimated scf accuracy    <       0.36163845 Ry

     iteration #  3     ecut=    25.00 Ry     beta= 0.70
     Davidson diagonalization with overlap
     ethr =  1.27E-03,  avg # of iterations =  2.0

     total cpu time spent up to now is        1.4 secs

     total energy              =    -210.16117509 Ry
     Harris-Foulkes estimate   =    -210.16569244 Ry
     estimated scf accuracy    <       0.01316966 Ry

     iteration #  4     ecut=    25.00 Ry     beta= 0.70
     Davidson diagonalization with overlap
     ethr =  1.20E-04,  avg # of iterations =  1.0

     total cpu time spent up to now is        1.5 secs

     total energy              =    -210.16153812 Ry
     Harris-Foulkes estimate   =    -210.16230388 Ry
     estimated scf accuracy    <       0.00161673 Ry

     iteration #  5     ecut=    25.00 Ry     beta= 0.70
     Davidson diagonalization with overlap
     ethr =  1.47E-05,  avg # of iterations =  2.0

     total cpu time spent up to now is        1.6 secs

     total energy              =    -210.16189773 Ry
     Harris-Foulkes estimate   =    -210.16190784 Ry
     estimated scf accuracy    <       0.00013684 Ry

     iteration #  6     ecut=    25.00 Ry     beta= 0.70
     Davidson diagonalization with overlap
     ethr =  1.24E-06,  avg # of iterations =  1.7

     total cpu time spent up to now is        1.7 secs

     total energy              =    -210.16189943 Ry
     Harris-Foulkes estimate   =    -210.16190083 Ry
     estimated scf accuracy    <       0.00006427 Ry

     iteration #  7     ecut=    25.00 Ry     beta= 0.70
     Davidson diagonalization with overlap
     ethr =  5.84E-07,  avg # of iterations =  1.0

     total cpu time spent up to now is        1.8 secs

     total energy              =    -210.16188297 Ry
     Harris-Foulkes estimate   =    -210.16189953 Ry
     estimated scf accuracy    <       0.00005379 Ry

     iteration #  8     ecut=    25.00 Ry     beta= 0.70
     Davidson diagonalization with overlap
     ethr =  4.89E-07,  avg # of iterations =  1.0

     total cpu time spent up to now is        1.9 secs

     total energy              =    -210.16189193 Ry
     Harris-Foulkes estimate   =    -210.16189247 Ry
     estimated scf accuracy    <       0.00000177 Ry

     iteration #  9     ecut=    25.00 Ry     beta= 0.70
     Davidson diagonalization with overlap
     ethr =  1.61E-08,  avg # of iterations =  1.0

     total cpu time spent up to now is        2.0 secs

     total energy              =    -210.16189222 Ry
     Harris-Foulkes estimate   =    -210.16189221 Ry
     estimated scf accuracy    <       0.00000003 Ry

     iteration # 10     ecut=    25.00 Ry     beta= 0.70
     Davidson diagonalization with overlap
     ethr =  2.37E-10,  avg # of iterations =  3.0

     total cpu time spent up to now is        2.1 secs

     total energy              =    -210.16189217 Ry
     Harris-Foulkes estimate   =    -210.16189224 Ry
     estimated scf accuracy    <       0.00000019 Ry

     iteration # 11     ecut=    25.00 Ry     beta= 0.70
     Davidson diagonalization with overlap
     ethr =  2.37E-10,  avg # of iterations =  2.0

     total cpu time spent up to now is        2.3 secs

     total energy              =    -210.16189221 Ry
     Harris-Foulkes estimate   =    -210.16189222 Ry
     estimated scf accuracy    <       0.00000003 Ry

     iteration # 12     ecut=    25.00 Ry     beta= 0.70
     Davidson diagonalization with overlap
     ethr =  2.37E-10,  avg # of iterations =  1.0

     total cpu time spent up to now is        2.4 secs

     End of self-consistent calculation

          k = 0.0000 0.0000 0.0000 (   169 PWs)   bands (ev):

     3.1127   9.6556   9.6556   9.6556  10.4924  10.4924  35.4062  37.8285
    37.8285  37.8285

          k = 0.5000-0.5000 0.5000 (   168 PWs)   bands (ev):

     7.4982   9.6790   9.6790  11.1398  11.1398  11.4588  16.4825  33.8070
    34.6037  34.6037

          k = 0.0000-1.0000 0.0000 (   174 PWs)   bands (ev):

     7.7244   8.2242  11.2494  11.2704  11.2704  13.9699  19.8478  25.6049
    25.6049  30.8442

     the Fermi energy is    11.5260 ev

!    total energy              =    -210.16189221 Ry
     Harris-Foulkes estimate   =    -210.16189222 Ry
     estimated scf accuracy    <          1.0E-09 Ry

     total all-electron energy =     -3307.040953 Ry

     The total energy is the sum of the following terms:

     one-electron contribution =     -27.83754744 Ry
     hartree contribution      =      30.53532722 Ry
     xc contribution           =     -44.08392583 Ry
     ewald contribution        =     -81.22522862 Ry
     one-center paw contrib.   =     -87.54814711 Ry
     smearing contrib. (-TS)   =      -0.00237044 Ry

     convergence has been achieved in  12 iterations

     Forces acting on atoms (cartesian axes, Ry/au):

     atom    1 type  1   force =     0.00000000    0.00000000    0.00000000

     Total force =     0.000000     Total SCF correction =     0.000000


     Computing stress (Cartesian axis) and pressure

          total   stress  (Ry/bohr**3)                   (kbar)     P=-1037.95
  -0.00705585   0.00000000   0.00000000      -1037.95      0.00      0.00
   0.00000000  -0.00705585  -0.00000000          0.00  -1037.95     -0.00
   0.00000000  -0.00000000  -0.00705585          0.00     -0.00  -1037.95


     Writing output data file Cu.save/

     init_run     :      0.19s CPU      0.21s WALL (       1 calls)
     electrons    :      1.26s CPU      1.43s WALL (       1 calls)
     forces       :      0.01s CPU      0.01s WALL (       1 calls)
     stress       :      0.02s CPU      0.02s WALL (       1 calls)

     Called by init_run:
     wfcinit      :      0.00s CPU      0.00s WALL (       1 calls)
     potinit      :      0.10s CPU      0.11s WALL (       1 calls)
     hinit0       :      0.08s CPU      0.08s WALL (       1 calls)

     Called by electrons:
     c_bands      :      0.08s CPU      0.09s WALL (      12 calls)
     sum_band     :      0.04s CPU      0.04s WALL (      12 calls)
     v_of_rho     :      0.01s CPU      0.01s WALL (      13 calls)
     newd         :      0.02s CPU      0.02s WALL (      13 calls)
     PAW_pot      :      1.21s CPU      1.36s WALL (      13 calls)
     mix_rho      :      0.00s CPU      0.00s WALL (      12 calls)

     Called by c_bands:
     init_us_2    :      0.00s CPU      0.00s WALL (      81 calls)
     cegterg      :      0.07s CPU      0.08s WALL (      36 calls)

     Called by sum_band:
     sum_band:bec :      0.00s CPU      0.00s WALL (      36 calls)
     addusdens    :      0.01s CPU      0.02s WALL (      12 calls)

     Called by *egterg:
     h_psi        :      0.05s CPU      0.05s WALL (     104 calls)
     s_psi        :      0.00s CPU      0.00s WALL (     104 calls)
     g_psi        :      0.00s CPU      0.00s WALL (      65 calls)
     cdiaghg      :      0.02s CPU      0.02s WALL (     101 calls)

     Called by h_psi:
     h_psi:pot    :      0.04s CPU      0.05s WALL (     104 calls)
     h_psi:calbec :      0.00s CPU      0.00s WALL (     104 calls)
     vloc_psi     :      0.04s CPU      0.05s WALL (     104 calls)
     add_vuspsi   :      0.00s CPU      0.00s WALL (     104 calls)

     General routines
     calbec       :      0.00s CPU      0.00s WALL (     155 calls)
     fft          :      0.01s CPU      0.01s WALL (     169 calls)
     ffts         :      0.00s CPU      0.00s WALL (      12 calls)
     fftw         :      0.04s CPU      0.05s WALL (    2056 calls)

     Parallel routines
     fft_scatt_xy :      0.01s CPU      0.01s WALL (    2237 calls)
     fft_scatt_yz :      0.02s CPU      0.02s WALL (    2237 calls)

     PWSCF        :     2.23s CPU         2.45s WALL


   This run was terminated on:  23:14:30  25Mar2024            

=------------------------------------------------------------------------------=
   JOB DONE.
=------------------------------------------------------------------------------=
