
     Program PWSCF v.6.3MaX starts on 25Mar2024 at 23:31: 0 

     This program is part of the open-source Quantum ESPRESSO suite
     for quantum simulation of materials; please cite
         "P. Giannozzi et al., J. Phys.:Condens. Matter 21 395502 (2009);
         "P. Giannozzi et al., J. Phys.:Condens. Matter 29 465901 (2017);
          URL http://www.quantum-espresso.org", 
     in publications or presentations arising from this work. More details at
     http://www.quantum-espresso.org/quote

     Parallel version (MPI), running on     5 processors

     MPI processes distributed on     1 nodes
     R & G space division:  proc/nbgrp/npool/nimage =       5
     Waiting for input...
     Reading input from standard input

     Current dimensions of program PWSCF are:
     Max number of different atomic species (ntypx) = 10
     Max number of k-points (npk) =  40000
     Max angular momentum in pseudopotentials (lmaxx) =  3
               file Cu.pbesol-dn-kjpaw_psl.1.0.0.UPF: wavefunction(s)  4S 3D renormalized

     Subspace diagonalization in iterative solution of the eigenvalue problem:
     a serial algorithm will be used


     Parallelization info
     --------------------
     sticks:   dense  smooth     PW     G-vecs:    dense   smooth      PW
     Min          84      84     24                 1134     1134     187
     Max          85      85     25                 1137     1137     191
     Sum         421     421    121                 5673     5673     941



     bravais-lattice index     =            2
     lattice parameter (alat)  =       6.8300  a.u.
     unit-cell volume          =      79.6530 (a.u.)^3
     number of atoms/cell      =            1
     number of atomic types    =            1
     number of electrons       =        11.00
     number of Kohn-Sham states=           10
     kinetic-energy cutoff     =      65.0000  Ry
     charge density cutoff     =     260.0000  Ry
     convergence threshold     =      1.0E-08
     mixing beta               =       0.7000
     number of iterations used =            8  plain     mixing
     Exchange-correlation      = SLA PW PSX PSC ( 1  4 10  8 0 0)

     celldm(1)=   6.830000  celldm(2)=   0.000000  celldm(3)=   0.000000
     celldm(4)=   0.000000  celldm(5)=   0.000000  celldm(6)=   0.000000

     crystal axes: (cart. coord. in units of alat)
               a(1) = (  -0.500000   0.000000   0.500000 )  
               a(2) = (   0.000000   0.500000   0.500000 )  
               a(3) = (  -0.500000   0.500000   0.000000 )  

     reciprocal axes: (cart. coord. in units 2 pi/alat)
               b(1) = ( -1.000000 -1.000000  1.000000 )  
               b(2) = (  1.000000  1.000000  1.000000 )  
               b(3) = ( -1.000000  1.000000 -1.000000 )  


     PseudoPot. # 1 for Cu read from file:
     /home/lorenzo/pseudos/Cu/Cu.pbesol-dn-kjpaw_psl.1.0.0.UPF
     MD5 check sum: 1e9735a74797514c934643dbd229f231
     Pseudo is Projector augmented-wave + core cor, Zval = 11.0
     Generated using "atomic" code by A. Dal Corso v.6.3
     Shape of augmentation charge: PSQ
     Using radial grid of 1199 points,  6 beta functions with: 
                l(1) =   0
                l(2) =   0
                l(3) =   1
                l(4) =   1
                l(5) =   2
                l(6) =   2
     Q(r) pseudized with 0 coefficients 


     atomic species   valence    mass     pseudopotential
        Cu            11.00    63.54600     Cu( 1.00)

     48 Sym. Ops., with inversion, found



   Cartesian axes

     site n.     atom                  positions (alat units)
         1           Cu  tau(   1) = (   0.0000000   0.0000000   0.0000000  )

     number of k points=     4  gaussian smearing, width (Ry)=  0.0100
                       cart. coord. in units 2pi/alat
        k(    1) = (   0.0000000   0.0000000   0.0000000), wk =   0.0740741
        k(    2) = (  -0.3333333   0.3333333  -0.3333333), wk =   0.5925926
        k(    3) = (   0.0000000   0.6666667   0.0000000), wk =   0.4444444
        k(    4) = (   0.6666667  -0.0000000   0.6666667), wk =   0.8888889

     Dense  grid:     5673 G-vectors     FFT dimensions: (  25,  25,  25)

     Estimated max dynamical RAM per process >       5.73 MB

     Estimated total dynamical RAM >      28.64 MB

     Initial potential from superposition of free atoms

     starting charge   10.99979, renormalised to   11.00000
     Starting wfcs are    9 randomized atomic wfcs +    1 random wfcs
     Checking if some PAW data can be deallocated... 

     total cpu time spent up to now is        1.0 secs

     Self-consistent Calculation

     iteration #  1     ecut=    65.00 Ry     beta= 0.70
     Davidson diagonalization with overlap
     ethr =  1.00E-02,  avg # of iterations =  3.5

     Threshold (ethr) on eigenvalues was too large:
     Diagonalizing with lowered threshold

     Davidson diagonalization with overlap
     ethr =  6.77E-04,  avg # of iterations =  3.2

     total cpu time spent up to now is        1.2 secs

     total energy              =    -210.40264398 Ry
     Harris-Foulkes estimate   =    -210.46230204 Ry
     estimated scf accuracy    <       0.07463402 Ry

     iteration #  2     ecut=    65.00 Ry     beta= 0.70
     Davidson diagonalization with overlap
     ethr =  6.78E-04,  avg # of iterations =  2.0

     total cpu time spent up to now is        1.4 secs

     total energy              =    -210.40287853 Ry
     Harris-Foulkes estimate   =    -210.50741143 Ry
     estimated scf accuracy    <       0.27123659 Ry

     iteration #  3     ecut=    65.00 Ry     beta= 0.70
     Davidson diagonalization with overlap
     ethr =  6.78E-04,  avg # of iterations =  2.0

     total cpu time spent up to now is        1.5 secs

     total energy              =    -210.44644908 Ry
     Harris-Foulkes estimate   =    -210.44647079 Ry
     estimated scf accuracy    <       0.00009180 Ry

     iteration #  4     ecut=    65.00 Ry     beta= 0.70
     Davidson diagonalization with overlap
     ethr =  8.35E-07,  avg # of iterations =  2.5

     total cpu time spent up to now is        1.7 secs

     total energy              =    -210.44656717 Ry
     Harris-Foulkes estimate   =    -210.44656806 Ry
     estimated scf accuracy    <       0.00000538 Ry

     iteration #  5     ecut=    65.00 Ry     beta= 0.70
     Davidson diagonalization with overlap
     ethr =  4.89E-08,  avg # of iterations =  1.0

     total cpu time spent up to now is        1.8 secs

     total energy              =    -210.44656757 Ry
     Harris-Foulkes estimate   =    -210.44656754 Ry
     estimated scf accuracy    <       0.00000015 Ry

     iteration #  6     ecut=    65.00 Ry     beta= 0.70
     Davidson diagonalization with overlap
     ethr =  1.39E-09,  avg # of iterations =  3.0

     total cpu time spent up to now is        2.0 secs

     End of self-consistent calculation

          k = 0.0000 0.0000 0.0000 (   725 PWs)   bands (ev):

     3.0399   9.4017   9.4017   9.4017  10.2340  10.2340  35.3855  37.7412
    37.7412  37.7412

          k =-0.3333 0.3333-0.3333 (   697 PWs)   bands (ev):

     6.4094   9.3929   9.4839   9.4839  10.5353  10.5353  21.0306  34.4969
    34.7504  34.7504

          k = 0.0000 0.6667 0.0000 (   717 PWs)   bands (ev):

     7.1186   8.3337  10.3372  10.4751  10.4751  10.6484  26.0886  27.3939
    27.3939  30.6356

          k = 0.6667-0.0000 0.6667 (   702 PWs)   bands (ev):

     8.3679   8.5395   9.2698  10.1629  10.6065  15.6679  18.3443  20.9124
    29.0575  32.3296

     the Fermi energy is    10.7625 ev

!    total energy              =    -210.44656758 Ry
     Harris-Foulkes estimate   =    -210.44656759 Ry
     estimated scf accuracy    <          4.7E-09 Ry

     total all-electron energy =     -3307.325629 Ry

     The total energy is the sum of the following terms:

     one-electron contribution =     -27.99643075 Ry
     hartree contribution      =      30.48023770 Ry
     xc contribution           =     -44.10023663 Ry
     ewald contribution        =     -81.22522855 Ry
     one-center paw contrib.   =     -87.60337963 Ry
     smearing contrib. (-TS)   =      -0.00152972 Ry

     convergence has been achieved in   6 iterations

     Forces acting on atoms (cartesian axes, Ry/au):

     atom    1 type  1   force =     0.00000000    0.00000000    0.00000000

     Total force =     0.000000     Total SCF correction =     0.000000


     Computing stress (Cartesian axis) and pressure

          total   stress  (Ry/bohr**3)                   (kbar)     P= -104.57
  -0.00071084   0.00000000   0.00000000       -104.57      0.00      0.00
   0.00000000  -0.00071084  -0.00000000          0.00   -104.57     -0.00
   0.00000000  -0.00000000  -0.00071084          0.00     -0.00   -104.57


     Writing output data file Cu.save/

     init_run     :      0.28s CPU      0.30s WALL (       1 calls)
     electrons    :      0.84s CPU      0.94s WALL (       1 calls)
     forces       :      0.02s CPU      0.02s WALL (       1 calls)
     stress       :      0.06s CPU      0.06s WALL (       1 calls)

     Called by init_run:
     wfcinit      :      0.01s CPU      0.01s WALL (       1 calls)
     potinit      :      0.11s CPU      0.12s WALL (       1 calls)
     hinit0       :      0.14s CPU      0.15s WALL (       1 calls)

     Called by electrons:
     c_bands      :      0.18s CPU      0.18s WALL (       7 calls)
     sum_band     :      0.07s CPU      0.08s WALL (       7 calls)
     v_of_rho     :      0.02s CPU      0.02s WALL (       7 calls)
     newd         :      0.04s CPU      0.04s WALL (       7 calls)
     PAW_pot      :      0.63s CPU      0.72s WALL (       7 calls)
     mix_rho      :      0.00s CPU      0.00s WALL (       7 calls)

     Called by c_bands:
     init_us_2    :      0.01s CPU      0.01s WALL (      68 calls)
     cegterg      :      0.17s CPU      0.17s WALL (      28 calls)

     Called by sum_band:
     sum_band:bec :      0.00s CPU      0.00s WALL (      28 calls)
     addusdens    :      0.04s CPU      0.04s WALL (       7 calls)

     Called by *egterg:
     h_psi        :      0.13s CPU      0.13s WALL (     101 calls)
     s_psi        :      0.00s CPU      0.00s WALL (     101 calls)
     g_psi        :      0.00s CPU      0.00s WALL (      69 calls)
     cdiaghg      :      0.02s CPU      0.02s WALL (      93 calls)

     Called by h_psi:
     h_psi:pot    :      0.13s CPU      0.13s WALL (     101 calls)
     h_psi:calbec :      0.01s CPU      0.01s WALL (     101 calls)
     vloc_psi     :      0.12s CPU      0.12s WALL (     101 calls)
     add_vuspsi   :      0.00s CPU      0.00s WALL (     101 calls)

     General routines
     calbec       :      0.01s CPU      0.01s WALL (     149 calls)
     fft          :      0.02s CPU      0.02s WALL (     104 calls)
     ffts         :      0.00s CPU      0.00s WALL (       7 calls)
     fftw         :      0.13s CPU      0.14s WALL (    1704 calls)

     Parallel routines
     fft_scatt_xy :      0.01s CPU      0.01s WALL (    1815 calls)
     fft_scatt_yz :      0.04s CPU      0.04s WALL (    1815 calls)

     PWSCF        :     1.93s CPU         2.10s WALL


   This run was terminated on:  23:31: 2  25Mar2024            

=------------------------------------------------------------------------------=
   JOB DONE.
=------------------------------------------------------------------------------=
