
     Program PWSCF v.6.3MaX starts on 25Mar2024 at 23:33:33 

     This program is part of the open-source Quantum ESPRESSO suite
     for quantum simulation of materials; please cite
         "P. Giannozzi et al., J. Phys.:Condens. Matter 21 395502 (2009);
         "P. Giannozzi et al., J. Phys.:Condens. Matter 29 465901 (2017);
          URL http://www.quantum-espresso.org", 
     in publications or presentations arising from this work. More details at
     http://www.quantum-espresso.org/quote

     Parallel version (MPI), running on     5 processors

     MPI processes distributed on     1 nodes
     R & G space division:  proc/nbgrp/npool/nimage =       5
     Waiting for input...
     Reading input from standard input

     Current dimensions of program PWSCF are:
     Max number of different atomic species (ntypx) = 10
     Max number of k-points (npk) =  40000
     Max angular momentum in pseudopotentials (lmaxx) =  3
               file Cu.pbesol-dn-kjpaw_psl.1.0.0.UPF: wavefunction(s)  4S 3D renormalized

     Subspace diagonalization in iterative solution of the eigenvalue problem:
     a serial algorithm will be used


     Parallelization info
     --------------------
     sticks:   dense  smooth     PW     G-vecs:    dense   smooth      PW
     Min          87      87     30                 1245     1245     227
     Max          88      88     31                 1247     1247     228
     Sum         439     439    151                 6231     6231    1139



     bravais-lattice index     =            2
     lattice parameter (alat)  =       6.8300  a.u.
     unit-cell volume          =      79.6530 (a.u.)^3
     number of atoms/cell      =            1
     number of atomic types    =            1
     number of electrons       =        11.00
     number of Kohn-Sham states=           10
     kinetic-energy cutoff     =      70.0000  Ry
     charge density cutoff     =     280.0000  Ry
     convergence threshold     =      1.0E-08
     mixing beta               =       0.7000
     number of iterations used =            8  plain     mixing
     Exchange-correlation      = SLA PW PSX PSC ( 1  4 10  8 0 0)

     celldm(1)=   6.830000  celldm(2)=   0.000000  celldm(3)=   0.000000
     celldm(4)=   0.000000  celldm(5)=   0.000000  celldm(6)=   0.000000

     crystal axes: (cart. coord. in units of alat)
               a(1) = (  -0.500000   0.000000   0.500000 )  
               a(2) = (   0.000000   0.500000   0.500000 )  
               a(3) = (  -0.500000   0.500000   0.000000 )  

     reciprocal axes: (cart. coord. in units 2 pi/alat)
               b(1) = ( -1.000000 -1.000000  1.000000 )  
               b(2) = (  1.000000  1.000000  1.000000 )  
               b(3) = ( -1.000000  1.000000 -1.000000 )  


     PseudoPot. # 1 for Cu read from file:
     /home/lorenzo/pseudos/Cu/Cu.pbesol-dn-kjpaw_psl.1.0.0.UPF
     MD5 check sum: 1e9735a74797514c934643dbd229f231
     Pseudo is Projector augmented-wave + core cor, Zval = 11.0
     Generated using "atomic" code by A. Dal Corso v.6.3
     Shape of augmentation charge: PSQ
     Using radial grid of 1199 points,  6 beta functions with: 
                l(1) =   0
                l(2) =   0
                l(3) =   1
                l(4) =   1
                l(5) =   2
                l(6) =   2
     Q(r) pseudized with 0 coefficients 


     atomic species   valence    mass     pseudopotential
        Cu            11.00    63.54600     Cu( 1.00)

     48 Sym. Ops., with inversion, found



   Cartesian axes

     site n.     atom                  positions (alat units)
         1           Cu  tau(   1) = (   0.0000000   0.0000000   0.0000000  )

     number of k points=     8  gaussian smearing, width (Ry)=  0.0100
                       cart. coord. in units 2pi/alat
        k(    1) = (   0.0000000   0.0000000   0.0000000), wk =   0.0312500
        k(    2) = (  -0.2500000   0.2500000  -0.2500000), wk =   0.2500000
        k(    3) = (   0.5000000  -0.5000000   0.5000000), wk =   0.1250000
        k(    4) = (   0.0000000   0.5000000   0.0000000), wk =   0.1875000
        k(    5) = (   0.7500000  -0.2500000   0.7500000), wk =   0.7500000
        k(    6) = (   0.5000000   0.0000000   0.5000000), wk =   0.3750000
        k(    7) = (   0.0000000  -1.0000000   0.0000000), wk =   0.0937500
        k(    8) = (  -0.5000000  -1.0000000   0.0000000), wk =   0.1875000

     Dense  grid:     6231 G-vectors     FFT dimensions: (  25,  25,  25)

     Estimated max dynamical RAM per process >       6.27 MB

     Estimated total dynamical RAM >      31.34 MB

     Initial potential from superposition of free atoms

     starting charge   10.99979, renormalised to   11.00000
     Starting wfcs are    9 randomized atomic wfcs +    1 random wfcs
     Checking if some PAW data can be deallocated... 

     total cpu time spent up to now is        1.1 secs

     Self-consistent Calculation

     iteration #  1     ecut=    70.00 Ry     beta= 0.70
     Davidson diagonalization with overlap
     ethr =  1.00E-02,  avg # of iterations =  3.5

     Threshold (ethr) on eigenvalues was too large:
     Diagonalizing with lowered threshold

     Davidson diagonalization with overlap
     ethr =  6.67E-04,  avg # of iterations =  1.0

     total cpu time spent up to now is        1.4 secs

     total energy              =    -210.36510788 Ry
     Harris-Foulkes estimate   =    -210.42370604 Ry
     estimated scf accuracy    <       0.07326435 Ry

     iteration #  2     ecut=    70.00 Ry     beta= 0.70
     Davidson diagonalization with overlap
     ethr =  6.66E-04,  avg # of iterations =  2.0

     total cpu time spent up to now is        1.6 secs

     total energy              =    -210.36832298 Ry
     Harris-Foulkes estimate   =    -210.46755599 Ry
     estimated scf accuracy    <       0.25414325 Ry

     iteration #  3     ecut=    70.00 Ry     beta= 0.70
     Davidson diagonalization with overlap
     ethr =  6.66E-04,  avg # of iterations =  2.0

     total cpu time spent up to now is        1.8 secs

     total energy              =    -210.40879853 Ry
     Harris-Foulkes estimate   =    -210.40884911 Ry
     estimated scf accuracy    <       0.00010292 Ry

     iteration #  4     ecut=    70.00 Ry     beta= 0.70
     Davidson diagonalization with overlap
     ethr =  9.36E-07,  avg # of iterations =  3.0

     total cpu time spent up to now is        2.1 secs

     total energy              =    -210.40885315 Ry
     Harris-Foulkes estimate   =    -210.40885979 Ry
     estimated scf accuracy    <       0.00001881 Ry

     iteration #  5     ecut=    70.00 Ry     beta= 0.70
     Davidson diagonalization with overlap
     ethr =  1.71E-07,  avg # of iterations =  1.1

     total cpu time spent up to now is        2.3 secs

     total energy              =    -210.40885609 Ry
     Harris-Foulkes estimate   =    -210.40885609 Ry
     estimated scf accuracy    <       0.00000002 Ry

     iteration #  6     ecut=    70.00 Ry     beta= 0.70
     Davidson diagonalization with overlap
     ethr =  1.65E-10,  avg # of iterations =  3.0

     total cpu time spent up to now is        2.5 secs

     End of self-consistent calculation

          k = 0.0000 0.0000 0.0000 (   749 PWs)   bands (ev):

     3.0407   9.4492   9.4492   9.4492  10.2909  10.2909  35.3752  37.7489
    37.7489  37.7489

          k =-0.2500 0.2500-0.2500 (   797 PWs)   bands (ev):

     5.1640   9.1879   9.6094   9.6094  10.3729  10.3729  24.8859  35.1628
    35.2256  35.2256

          k = 0.5000-0.5000 0.5000 (   778 PWs)   bands (ev):

     7.3580   9.4197   9.4197  10.8630  10.8630  11.4024  16.2031  33.7885
    34.4997  34.4997

          k = 0.0000 0.5000 0.0000 (   817 PWs)   bands (ev):

     5.8082   8.7228   9.8193  10.1187  10.1187  10.5667  29.5221  29.5221
    30.8330  31.4764

          k = 0.7500-0.2500 0.7500 (   788 PWs)   bands (ev):

     8.0138   8.5968   9.4623  10.1005  10.9036  13.3896  19.1443  25.0088
    28.5238  32.0906

          k = 0.5000 0.0000 0.5000 (   792 PWs)   bands (ev):

     7.7200   8.9348   9.1507   9.9608  10.2829  12.1656  22.1417  23.3491
    32.8966  34.2254

          k = 0.0000-1.0000 0.0000 (   790 PWs)   bands (ev):

     7.5741   8.0362  10.8488  11.0048  11.0048  13.9000  19.5606  25.5179
    25.5179  30.0286

          k =-0.5000-1.0000 0.0000 (   772 PWs)   bands (ev):

     8.3229   8.9288   8.9288  10.2476  11.0056  18.6319  18.6319  20.7635
    21.2218  40.8330

     the Fermi energy is    13.2230 ev

!    total energy              =    -210.40885611 Ry
     Harris-Foulkes estimate   =    -210.40885611 Ry
     estimated scf accuracy    <          2.7E-09 Ry

     total all-electron energy =     -3307.287917 Ry

     The total energy is the sum of the following terms:

     one-electron contribution =     -27.98668257 Ry
     hartree contribution      =      30.51519004 Ry
     xc contribution           =     -44.10975836 Ry
     ewald contribution        =     -81.22522855 Ry
     one-center paw contrib.   =     -87.60190428 Ry
     smearing contrib. (-TS)   =      -0.00047239 Ry

     convergence has been achieved in   6 iterations

     Forces acting on atoms (cartesian axes, Ry/au):

     atom    1 type  1   force =     0.00000000    0.00000000    0.00000000

     Total force =     0.000000     Total SCF correction =     0.000000


     Computing stress (Cartesian axis) and pressure

          total   stress  (Ry/bohr**3)                   (kbar)     P=  -46.08
  -0.00031327   0.00000000   0.00000000        -46.08      0.00      0.00
   0.00000000  -0.00031327  -0.00000000          0.00    -46.08     -0.00
   0.00000000  -0.00000000  -0.00031327          0.00     -0.00    -46.08


     Writing output data file Cu.save/

     init_run     :      0.28s CPU      0.30s WALL (       1 calls)
     electrons    :      1.30s CPU      1.40s WALL (       1 calls)
     forces       :      0.02s CPU      0.02s WALL (       1 calls)
     stress       :      0.07s CPU      0.08s WALL (       1 calls)

     Called by init_run:
     wfcinit      :      0.02s CPU      0.02s WALL (       1 calls)
     potinit      :      0.09s CPU      0.11s WALL (       1 calls)
     hinit0       :      0.15s CPU      0.15s WALL (       1 calls)

     Called by electrons:
     c_bands      :      0.44s CPU      0.46s WALL (       7 calls)
     sum_band     :      0.16s CPU      0.16s WALL (       7 calls)
     v_of_rho     :      0.03s CPU      0.03s WALL (       7 calls)
     newd         :      0.05s CPU      0.05s WALL (       7 calls)
     PAW_pot      :      0.71s CPU      0.79s WALL (       7 calls)
     mix_rho      :      0.00s CPU      0.00s WALL (       7 calls)

     Called by c_bands:
     init_us_2    :      0.02s CPU      0.02s WALL (     136 calls)
     cegterg      :      0.42s CPU      0.44s WALL (      56 calls)

     Called by sum_band:
     sum_band:bec :      0.00s CPU      0.00s WALL (      56 calls)
     addusdens    :      0.04s CPU      0.04s WALL (       7 calls)

     Called by *egterg:
     h_psi        :      0.32s CPU      0.35s WALL (     189 calls)
     s_psi        :      0.01s CPU      0.01s WALL (     189 calls)
     g_psi        :      0.00s CPU      0.00s WALL (     125 calls)
     cdiaghg      :      0.04s CPU      0.04s WALL (     173 calls)

     Called by h_psi:
     h_psi:pot    :      0.32s CPU      0.34s WALL (     189 calls)
     h_psi:calbec :      0.02s CPU      0.02s WALL (     189 calls)
     vloc_psi     :      0.30s CPU      0.32s WALL (     189 calls)
     add_vuspsi   :      0.01s CPU      0.01s WALL (     189 calls)

     General routines
     calbec       :      0.02s CPU      0.03s WALL (     285 calls)
     fft          :      0.02s CPU      0.02s WALL (     104 calls)
     ffts         :      0.00s CPU      0.00s WALL (       7 calls)
     fftw         :      0.34s CPU      0.36s WALL (    3504 calls)

     Parallel routines
     fft_scatt_xy :      0.03s CPU      0.03s WALL (    3615 calls)
     fft_scatt_yz :      0.12s CPU      0.13s WALL (    3615 calls)

     PWSCF        :     2.49s CPU         2.66s WALL


   This run was terminated on:  23:33:35  25Mar2024            

=------------------------------------------------------------------------------=
   JOB DONE.
=------------------------------------------------------------------------------=
