
     Program PWSCF v.6.3MaX starts on 25Mar2024 at 23:15:49 

     This program is part of the open-source Quantum ESPRESSO suite
     for quantum simulation of materials; please cite
         "P. Giannozzi et al., J. Phys.:Condens. Matter 21 395502 (2009);
         "P. Giannozzi et al., J. Phys.:Condens. Matter 29 465901 (2017);
          URL http://www.quantum-espresso.org", 
     in publications or presentations arising from this work. More details at
     http://www.quantum-espresso.org/quote

     Parallel version (MPI), running on     5 processors

     MPI processes distributed on     1 nodes
     R & G space division:  proc/nbgrp/npool/nimage =       5
     Waiting for input...
     Reading input from standard input

     Current dimensions of program PWSCF are:
     Max number of different atomic species (ntypx) = 10
     Max number of k-points (npk) =  40000
     Max angular momentum in pseudopotentials (lmaxx) =  3
               file Cu.pbe-dn-kjpaw_psl.1.0.0.UPF: wavefunction(s)  4S 3D renormalized

     Subspace diagonalization in iterative solution of the eigenvalue problem:
     a serial algorithm will be used


     Parallelization info
     --------------------
     sticks:   dense  smooth     PW     G-vecs:    dense   smooth      PW
     Min          39      39     14                  361      361      82
     Max          40      40     15                  363      363      83
     Sum         199     199     73                 1807     1807     411



     bravais-lattice index     =            2
     lattice parameter (alat)  =       6.8300  a.u.
     unit-cell volume          =      79.6530 (a.u.)^3
     number of atoms/cell      =            1
     number of atomic types    =            1
     number of electrons       =        11.00
     number of Kohn-Sham states=           10
     kinetic-energy cutoff     =      30.0000  Ry
     charge density cutoff     =     120.0000  Ry
     convergence threshold     =      1.0E-08
     mixing beta               =       0.7000
     number of iterations used =            8  plain     mixing
     Exchange-correlation      = SLA PW PBX PBC ( 1  4  3  4 0 0)

     celldm(1)=   6.830000  celldm(2)=   0.000000  celldm(3)=   0.000000
     celldm(4)=   0.000000  celldm(5)=   0.000000  celldm(6)=   0.000000

     crystal axes: (cart. coord. in units of alat)
               a(1) = (  -0.500000   0.000000   0.500000 )  
               a(2) = (   0.000000   0.500000   0.500000 )  
               a(3) = (  -0.500000   0.500000   0.000000 )  

     reciprocal axes: (cart. coord. in units 2 pi/alat)
               b(1) = ( -1.000000 -1.000000  1.000000 )  
               b(2) = (  1.000000  1.000000  1.000000 )  
               b(3) = ( -1.000000  1.000000 -1.000000 )  


     PseudoPot. # 1 for Cu read from file:
     /home/lorenzo/pseudos/Cu/Cu.pbe-dn-kjpaw_psl.1.0.0.UPF
     MD5 check sum: cfffd1f38ee05704b3e17f46f1730a6f
     Pseudo is Projector augmented-wave + core cor, Zval = 11.0
     Generated using "atomic" code by A. Dal Corso v.6.3
     Shape of augmentation charge: PSQ
     Using radial grid of 1199 points,  6 beta functions with: 
                l(1) =   0
                l(2) =   0
                l(3) =   1
                l(4) =   1
                l(5) =   2
                l(6) =   2
     Q(r) pseudized with 0 coefficients 


     atomic species   valence    mass     pseudopotential
        Cu            11.00    63.54600     Cu( 1.00)

     48 Sym. Ops., with inversion, found



   Cartesian axes

     site n.     atom                  positions (alat units)
         1           Cu  tau(   1) = (   0.0000000   0.0000000   0.0000000  )

     number of k points=    56  gaussian smearing, width (Ry)=  0.0100
                       cart. coord. in units 2pi/alat
        k(    1) = (   0.0000000   0.0000000   0.0000000), wk =   0.0015026
        k(    2) = (  -0.0909091   0.0909091  -0.0909091), wk =   0.0120210
        k(    3) = (  -0.1818182   0.1818182  -0.1818182), wk =   0.0120210
        k(    4) = (  -0.2727273   0.2727273  -0.2727273), wk =   0.0120210
        k(    5) = (  -0.3636364   0.3636364  -0.3636364), wk =   0.0120210
        k(    6) = (  -0.4545455   0.4545455  -0.4545455), wk =   0.0120210
        k(    7) = (   0.0000000   0.1818182   0.0000000), wk =   0.0090158
        k(    8) = (  -0.0909091   0.2727273  -0.0909091), wk =   0.0360631
        k(    9) = (  -0.1818182   0.3636364  -0.1818182), wk =   0.0360631
        k(   10) = (  -0.2727273   0.4545455  -0.2727273), wk =   0.0360631
        k(   11) = (  -0.3636364   0.5454545  -0.3636364), wk =   0.0360631
        k(   12) = (   0.5454545  -0.3636364   0.5454545), wk =   0.0360631
        k(   13) = (   0.4545455  -0.2727273   0.4545455), wk =   0.0360631
        k(   14) = (   0.3636364  -0.1818182   0.3636364), wk =   0.0360631
        k(   15) = (   0.2727273  -0.0909091   0.2727273), wk =   0.0360631
        k(   16) = (   0.1818182  -0.0000000   0.1818182), wk =   0.0180316
        k(   17) = (   0.0000000   0.3636364   0.0000000), wk =   0.0090158
        k(   18) = (  -0.0909091   0.4545455  -0.0909091), wk =   0.0360631
        k(   19) = (  -0.1818182   0.5454545  -0.1818182), wk =   0.0360631
        k(   20) = (  -0.2727273   0.6363636  -0.2727273), wk =   0.0360631
        k(   21) = (   0.6363636  -0.2727273   0.6363636), wk =   0.0360631
        k(   22) = (   0.5454545  -0.1818182   0.5454545), wk =   0.0360631
        k(   23) = (   0.4545455  -0.0909091   0.4545455), wk =   0.0360631
        k(   24) = (   0.3636364   0.0000000   0.3636364), wk =   0.0180316
        k(   25) = (   0.0000000   0.5454545   0.0000000), wk =   0.0090158
        k(   26) = (  -0.0909091   0.6363636  -0.0909091), wk =   0.0360631
        k(   27) = (  -0.1818182   0.7272727  -0.1818182), wk =   0.0360631
        k(   28) = (   0.7272727  -0.1818182   0.7272727), wk =   0.0360631
        k(   29) = (   0.6363636  -0.0909091   0.6363636), wk =   0.0360631
        k(   30) = (   0.5454545   0.0000000   0.5454545), wk =   0.0180316
        k(   31) = (   0.0000000   0.7272727   0.0000000), wk =   0.0090158
        k(   32) = (  -0.0909091   0.8181818  -0.0909091), wk =   0.0360631
        k(   33) = (   0.8181818  -0.0909091   0.8181818), wk =   0.0360631
        k(   34) = (   0.7272727   0.0000000   0.7272727), wk =   0.0180316
        k(   35) = (   0.0000000   0.9090909   0.0000000), wk =   0.0090158
        k(   36) = (   0.9090909  -0.0000000   0.9090909), wk =   0.0180316
        k(   37) = (  -0.1818182   0.3636364   0.0000000), wk =   0.0360631
        k(   38) = (  -0.2727273   0.4545455  -0.0909091), wk =   0.0721262
        k(   39) = (  -0.3636364   0.5454545  -0.1818182), wk =   0.0721262
        k(   40) = (   0.5454545  -0.3636364   0.7272727), wk =   0.0721262
        k(   41) = (  -0.1818182   0.5454545   0.0000000), wk =   0.0360631
        k(   42) = (  -0.2727273   0.6363636  -0.0909091), wk =   0.0721262
        k(   43) = (   0.6363636  -0.2727273   0.8181818), wk =   0.0721262
        k(   44) = (   0.5454545  -0.1818182   0.7272727), wk =   0.0721262
        k(   45) = (   0.4545455  -0.0909091   0.6363636), wk =   0.0721262
        k(   46) = (   0.3636364   0.0000000   0.5454545), wk =   0.0360631
        k(   47) = (  -0.1818182   0.7272727   0.0000000), wk =   0.0360631
        k(   48) = (   0.7272727  -0.1818182   0.9090909), wk =   0.0721262
        k(   49) = (   0.6363636  -0.0909091   0.8181818), wk =   0.0721262
        k(   50) = (   0.5454545   0.0000000   0.7272727), wk =   0.0360631
        k(   51) = (   0.8181818  -0.0909091   1.0000000), wk =   0.0360631
        k(   52) = (   0.7272727   0.0000000   0.9090909), wk =   0.0360631
        k(   53) = (   0.6363636  -0.2727273   1.0000000), wk =   0.0360631
        k(   54) = (   0.5454545  -0.1818182   0.9090909), wk =   0.0721262
        k(   55) = (   0.6363636  -0.0909091   1.0000000), wk =   0.0360631
        k(   56) = (   0.5454545   0.0000000   0.9090909), wk =   0.0360631

     Dense  grid:     1807 G-vectors     FFT dimensions: (  18,  18,  18)

     Estimated max dynamical RAM per process >       2.70 MB

     Estimated total dynamical RAM >      13.52 MB

     Check: negative/imaginary core charge=   -0.000038    0.000000

     Initial potential from superposition of free atoms

     starting charge   10.99977, renormalised to   11.00000
     Starting wfcs are    9 randomized atomic wfcs +    1 random wfcs
     Checking if some PAW data can be deallocated... 

     total cpu time spent up to now is        1.2 secs

     Self-consistent Calculation

     iteration #  1     ecut=    30.00 Ry     beta= 0.70
     Davidson diagonalization with overlap
     ethr =  1.00E-02,  avg # of iterations =  3.8

     Threshold (ethr) on eigenvalues was too large:
     Diagonalizing with lowered threshold

     Davidson diagonalization with overlap
     ethr =  6.48E-04,  avg # of iterations =  1.0

     total cpu time spent up to now is        1.8 secs

     total energy              =    -213.03910385 Ry
     Harris-Foulkes estimate   =    -213.09553922 Ry
     estimated scf accuracy    <       0.07107189 Ry

     iteration #  2     ecut=    30.00 Ry     beta= 0.70
     Davidson diagonalization with overlap
     ethr =  6.46E-04,  avg # of iterations =  2.0

     total cpu time spent up to now is        2.1 secs

     total energy              =    -213.04400840 Ry
     Harris-Foulkes estimate   =    -213.13691479 Ry
     estimated scf accuracy    <       0.23485712 Ry

     iteration #  3     ecut=    30.00 Ry     beta= 0.70
     Davidson diagonalization with overlap
     ethr =  6.46E-04,  avg # of iterations =  2.0

     total cpu time spent up to now is        2.5 secs

     total energy              =    -213.08148245 Ry
     Harris-Foulkes estimate   =    -213.08153452 Ry
     estimated scf accuracy    <       0.00012915 Ry

     iteration #  4     ecut=    30.00 Ry     beta= 0.70
     Davidson diagonalization with overlap
     ethr =  1.17E-06,  avg # of iterations =  2.4

     total cpu time spent up to now is        2.9 secs

     total energy              =    -213.08155435 Ry
     Harris-Foulkes estimate   =    -213.08156273 Ry
     estimated scf accuracy    <       0.00002594 Ry

     iteration #  5     ecut=    30.00 Ry     beta= 0.70
     Davidson diagonalization with overlap
     ethr =  2.36E-07,  avg # of iterations =  1.1

     total cpu time spent up to now is        3.1 secs

     total energy              =    -213.08155870 Ry
     Harris-Foulkes estimate   =    -213.08155874 Ry
     estimated scf accuracy    <       0.00000009 Ry

     iteration #  6     ecut=    30.00 Ry     beta= 0.70
     Davidson diagonalization with overlap
     ethr =  8.13E-10,  avg # of iterations =  2.9

     total cpu time spent up to now is        3.5 secs

     End of self-consistent calculation

          k = 0.0000 0.0000 0.0000 (   229 PWs)   bands (ev):

     3.2812   9.6284   9.6284   9.6284  10.4533  10.4533  35.6020  37.9964
    37.9964  37.9964

          k =-0.0909 0.0909-0.0909 (   220 PWs)   bands (ev):

     3.5810   9.5649   9.6883   9.6883  10.4368  10.4368  33.3888  36.2995
    37.2483  37.2483

          k =-0.1818 0.1818-0.1818 (   220 PWs)   bands (ev):

     4.4503   9.4234   9.7790   9.7790  10.4383  10.4383  28.6342  35.8806
    36.1934  36.1934

          k =-0.2727 0.2727-0.2727 (   217 PWs)   bands (ev):

     5.7524   9.3842   9.7682   9.7682  10.5953  10.5953  24.0890  35.2237
    35.4244  35.4244

          k =-0.3636 0.3636-0.3636 (   226 PWs)   bands (ev):

     7.0031   9.6696   9.6696   9.8948  10.8246  10.8246  20.0336  34.5020
    34.9693  34.9693

          k =-0.4545 0.4545-0.4545 (   225 PWs)   bands (ev):

     7.5137   9.5976   9.5976  10.9924  10.9924  11.2739  16.9965  34.0628
    34.7868  34.7868

          k = 0.0000 0.1818 0.0000 (   226 PWs)   bands (ev):

     3.6804   9.4979   9.7207   9.7207  10.3482  10.5037  34.4417  35.3146
    35.3146  36.6313

          k =-0.0909 0.2727-0.0909 (   221 PWs)   bands (ev):

     4.3592   9.3652   9.8238   9.8306  10.2774  10.5431  30.4203  33.8338
    34.5793  37.7822

          k =-0.1818 0.3636-0.1818 (   222 PWs)   bands (ev):

     5.5271   9.2421   9.7837   9.8710  10.4455  10.6734  25.7623  32.8541
    33.9367  36.7879

          k =-0.2727 0.4545-0.2727 (   219 PWs)   bands (ev):

     6.8548   9.3863   9.6390   9.8077  10.8754  10.9181  21.5257  32.4343
    33.2869  34.7632

          k =-0.3636 0.5455-0.3636 (   225 PWs)   bands (ev):

     7.5924   9.5074   9.7173  10.0343  11.0117  11.8322  17.9728  32.2182
    32.6120  33.9137

          k = 0.5455-0.3636 0.5455 (   225 PWs)   bands (ev):

     7.7138   9.4853   9.6837  10.3193  10.9815  12.5811  16.5851  31.1677
    33.4555  34.0510

          k = 0.4545-0.2727 0.4545 (   224 PWs)   bands (ev):

     7.4459   9.5613   9.7241   9.8611  10.7868  11.5718  19.0446  30.6310
    34.7917  34.9622

          k = 0.3636-0.1818 0.3636 (   217 PWs)   bands (ev):

     6.4406   9.3241   9.6972   9.8263  10.4982  10.9980  22.8911  30.6511
    36.0555  37.0518

          k = 0.2727-0.0909 0.2727 (   217 PWs)   bands (ev):

     5.0958   9.3043   9.7961   9.8824  10.2904  10.6722  27.2907  31.1795
    37.5083  38.9862

          k = 0.1818-0.0000 0.1818 (   217 PWs)   bands (ev):

     4.0712   9.4531   9.7676   9.7714  10.3331  10.5116  31.7327  32.5114
    37.5535  39.1290

          k = 0.0000 0.3636 0.0000 (   218 PWs)   bands (ev):

     4.8287   9.1977   9.9906   9.9906  10.1072  10.6207  32.0005  32.0005
    32.8579  34.2331

          k =-0.0909 0.4545-0.0909 (   221 PWs)   bands (ev):

     5.7899   9.0217   9.8384  10.1160  10.3856  10.7241  27.8363  30.7347
    32.4297  33.6939

          k =-0.1818 0.5455-0.1818 (   221 PWs)   bands (ev):

     7.0057   8.9465   9.6165  10.0987  10.9140  11.0635  23.4702  30.1002
    30.5156  33.1112

          k =-0.2727 0.6364-0.2727 (   225 PWs)   bands (ev):

     7.8705   9.0808   9.5504  10.0160  11.0369  12.3259  19.5867  28.6581
    30.1621  32.9407

          k = 0.6364-0.2727 0.6364 (   221 PWs)   bands (ev):

     8.1143   9.1664   9.7225   9.9492  10.9971  14.0328  16.8646  27.2688
    30.9470  33.2023

          k = 0.5455-0.1818 0.5455 (   222 PWs)   bands (ev):

     8.0506   9.2768   9.5690   9.9367  10.7750  13.0570  18.4973  26.4329
    32.4224  33.9252

          k = 0.4545-0.0909 0.4545 (   221 PWs)   bands (ev):

     7.4328   9.1826   9.4790   9.9958  10.4502  11.7768  22.1555  26.1940
    34.5245  35.1830

          k = 0.3636 0.0000 0.3636 (   218 PWs)   bands (ev):

     6.2024   9.1560   9.6877  10.1198  10.1322  11.0904  26.1124  26.8224
    36.9298  37.1502

          k = 0.0000 0.5455 0.0000 (   218 PWs)   bands (ev):

     6.4616   8.7999  10.0246  10.3966  10.3966  10.7729  29.1748  29.1748
    29.8751  31.6346

          k =-0.0909 0.6364-0.0909 (   220 PWs)   bands (ev):

     7.3085   8.6505   9.9781  10.4859  10.9197  11.0762  25.7545  27.4355
    28.2675  32.1018

          k =-0.1818 0.7273-0.1818 (   219 PWs)   bands (ev):

     7.9776   8.6381   9.8161  10.4183  11.0654  12.6150  21.8009  25.3569
    28.1068  32.1952

          k = 0.7273-0.1818 0.7273 (   222 PWs)   bands (ev):

     8.3466   8.7359   9.6633  10.3190  11.0226  14.9055  18.3364  23.7728
    28.7252  32.4074

          k = 0.6364-0.0909 0.6364 (   224 PWs)   bands (ev):

     8.5304   8.8908   9.4354  10.2364  10.8112  15.0983  18.2535  22.7773
    30.0789  32.9684

          k = 0.5455 0.0000 0.5455 (   222 PWs)   bands (ev):

     8.3078   9.1620   9.1719  10.1623  10.5561  13.0819  21.3101  22.8014
    32.0653  33.9148

          k = 0.0000 0.7273 0.0000 (   218 PWs)   bands (ev):

     7.5834   8.4473  10.8321  10.8321  10.9133  11.1543  24.7414  27.0701
    27.0701  30.8725

          k =-0.0909 0.8182-0.0909 (   216 PWs)   bands (ev):

     7.8312   8.3758  10.6166  10.8152  11.0772  12.8556  22.6104  24.3623
    26.6402  31.4926

          k = 0.8182-0.0909 0.8182 (   222 PWs)   bands (ev):

     8.1007   8.4513  10.2220  10.6946  11.0631  15.1370  20.7894  21.1612
    27.0423  31.8348

          k = 0.7273 0.0000 0.7273 (   224 PWs)   bands (ev):

     8.4182   8.6213   9.7567  10.5189  10.9230  17.4168  17.7090  20.6833
    28.2334  32.2517

          k = 0.0000 0.9091 0.0000 (   222 PWs)   bands (ev):

     7.7541   8.2410  10.9979  11.1130  11.1130  13.5446  20.6288  25.9232
    25.9232  30.4880

          k = 0.9091-0.0000 0.9091 (   220 PWs)   bands (ev):

     7.8488   8.2731  10.8518  10.9445  11.1281  14.6582  19.9034  23.8520
    26.0657  31.2827

          k =-0.1818 0.3636 0.0000 (   217 PWs)   bands (ev):

     5.1905   9.2052   9.8218  10.0051  10.2295  10.6989  28.9895  29.5822
    35.9189  36.4111

          k =-0.2727 0.4545-0.0909 (   221 PWs)   bands (ev):

     6.4185   9.0952   9.6462  10.0458  10.4345  11.0557  24.7098  28.6176
    33.6225  36.5218

          k =-0.3636 0.5455-0.1818 (   221 PWs)   bands (ev):

     7.5548   9.2490   9.4799   9.9559  10.7751  11.7868  20.6401  28.4561
    31.5630  35.9295

          k = 0.5455-0.3636 0.7273 (   220 PWs)   bands (ev):

     7.9737   9.2852   9.7603   9.8919  10.9601  13.2247  17.3785  28.8638
    30.0044  35.5374

          k =-0.1818 0.5455 0.0000 (   220 PWs)   bands (ev):

     6.7638   8.8563   9.6954  10.3972  10.4889  11.0511  26.6782  27.1910
    30.3431  34.6969

          k =-0.2727 0.6364-0.0909 (   223 PWs)   bands (ev):

     7.7591   8.8124   9.5009  10.3503  10.8127  11.9570  22.7194  26.6148
    28.0982  35.0971

          k = 0.6364-0.2727 0.8182 (   225 PWs)   bands (ev):

     8.2899   8.8958   9.4528  10.2288  10.9810  13.7317  19.0299  26.2614
    26.9568  35.1941

          k = 0.5455-0.1818 0.7273 (   224 PWs)   bands (ev):

     8.4430   8.9366   9.4762  10.1492  10.9358  15.1350  17.2116  25.0430
    27.8424  35.6942

          k = 0.4545-0.0909 0.6364 (   222 PWs)   bands (ev):

     8.3014   9.0756   9.2343  10.1947  10.7230  13.2050  20.1996  24.3928
    29.3246  36.7173

          k = 0.3636 0.0000 0.5455 (   219 PWs)   bands (ev):

     7.5359   9.0031   9.4013  10.2651  10.4284  11.8320  23.7697  24.6764
    31.2919  38.1734

          k =-0.1818 0.7273 0.0000 (   223 PWs)   bands (ev):

     7.8126   8.5392  10.0176  10.8073  10.8233  12.1386  24.9138  24.9897
    25.5325  33.5539

          k = 0.7273-0.1818 0.9091 (   219 PWs)   bands (ev):

     8.1819   8.5779   9.8349  10.6294  11.0315  14.0966  21.4120  23.1742
    25.3511  34.3253

          k = 0.6364-0.0909 0.8182 (   222 PWs)   bands (ev):

     8.4793   8.6903   9.5775  10.4510  11.0039  16.6441  18.1438  21.8600
    26.1117  34.8282

          k = 0.5455 0.0000 0.7273 (   225 PWs)   bands (ev):

     8.7168   8.7998   9.2568  10.3327  10.8351  15.2713  19.4570  21.6147
    27.4718  35.6812

          k = 0.8182-0.0909 1.0000 (   220 PWs)   bands (ev):

     7.9403   8.3569  10.4997  10.8762  11.1182  14.4460  20.8416  23.9441
    24.5301  33.0245

          k = 0.7273 0.0000 0.9091 (   219 PWs)   bands (ev):

     8.1683   8.4953  10.0776  10.6934  11.1142  16.1777  20.1923  20.9842
    24.8921  34.0914

          k = 0.6364-0.2727 1.0000 (   218 PWs)   bands (ev):

     8.3612   8.8213   9.2954  10.5118  10.8224  13.5062  22.0252  23.2294
    25.9933  38.1156

          k = 0.5455-0.1818 0.9091 (   219 PWs)   bands (ev):

     8.6199   8.8646   9.2275  10.3856  10.9955  15.7787  18.9115  23.3006
    24.3725  38.4670

          k = 0.6364-0.0909 1.0000 (   214 PWs)   bands (ev):

     8.3603   8.7049   9.6140  10.5542  11.1245  16.2236  21.0615  21.5519
    22.5145  37.5074

          k = 0.5455 0.0000 0.9091 (   220 PWs)   bands (ev):

     8.5183   8.9261   9.2799  10.4163  11.1167  18.3696  18.3970  21.0497
    22.9453  38.7708

     the Fermi energy is    12.7508 ev

!    total energy              =    -213.08155875 Ry
     Harris-Foulkes estimate   =    -213.08155875 Ry
     estimated scf accuracy    <          1.7E-09 Ry

     total all-electron energy =     -3309.961325 Ry

     The total energy is the sum of the following terms:

     one-electron contribution =     -27.96814197 Ry
     hartree contribution      =      30.56160235 Ry
     xc contribution           =     -44.60947010 Ry
     ewald contribution        =     -81.22522858 Ry
     one-center paw contrib.   =     -89.84020440 Ry
     smearing contrib. (-TS)   =      -0.00011604 Ry

     convergence has been achieved in   6 iterations

     Forces acting on atoms (cartesian axes, Ry/au):

     atom    1 type  1   force =     0.00000000    0.00000000    0.00000000

     Total force =     0.000000     Total SCF correction =     0.000000


     Computing stress (Cartesian axis) and pressure

          total   stress  (Ry/bohr**3)                   (kbar)     P= -220.79
  -0.00150092  -0.00000000   0.00000000       -220.79     -0.00      0.00
  -0.00000000  -0.00150092  -0.00000000         -0.00   -220.79     -0.00
   0.00000000  -0.00000000  -0.00150092          0.00     -0.00   -220.79


     Writing output data file Cu.save/

     init_run     :      0.27s CPU      0.29s WALL (       1 calls)
     electrons    :      2.06s CPU      2.29s WALL (       1 calls)
     forces       :      0.02s CPU      0.02s WALL (       1 calls)
     stress       :      0.06s CPU      0.06s WALL (       1 calls)

     Called by init_run:
     wfcinit      :      0.07s CPU      0.07s WALL (       1 calls)
     potinit      :      0.09s CPU      0.10s WALL (       1 calls)
     hinit0       :      0.10s CPU      0.10s WALL (       1 calls)

     Called by electrons:
     c_bands      :      1.27s CPU      1.41s WALL (       7 calls)
     sum_band     :      0.22s CPU      0.25s WALL (       7 calls)
     v_of_rho     :      0.01s CPU      0.01s WALL (       7 calls)
     newd         :      0.01s CPU      0.01s WALL (       7 calls)
     PAW_pot      :      0.63s CPU      0.71s WALL (       7 calls)
     mix_rho      :      0.00s CPU      0.00s WALL (       7 calls)

     Called by c_bands:
     init_us_2    :      0.03s CPU      0.03s WALL (     952 calls)
     cegterg      :      1.23s CPU      1.36s WALL (     392 calls)

     Called by sum_band:
     sum_band:bec :      0.00s CPU      0.00s WALL (     392 calls)
     addusdens    :      0.01s CPU      0.01s WALL (       7 calls)

     Called by *egterg:
     h_psi        :      0.90s CPU      1.00s WALL (    1304 calls)
     s_psi        :      0.02s CPU      0.03s WALL (    1304 calls)
     g_psi        :      0.00s CPU      0.00s WALL (     856 calls)
     cdiaghg      :      0.22s CPU      0.23s WALL (    1192 calls)

     Called by h_psi:
     h_psi:pot    :      0.90s CPU      0.99s WALL (    1304 calls)
     h_psi:calbec :      0.04s CPU      0.05s WALL (    1304 calls)
     vloc_psi     :      0.82s CPU      0.91s WALL (    1304 calls)
     add_vuspsi   :      0.02s CPU      0.03s WALL (    1304 calls)

     General routines
     calbec       :      0.06s CPU      0.07s WALL (    1976 calls)
     fft          :      0.01s CPU      0.01s WALL (     104 calls)
     ffts         :      0.00s CPU      0.00s WALL (       7 calls)
     fftw         :      0.91s CPU      1.02s WALL (   24296 calls)

     Parallel routines
     fft_scatt_xy :      0.08s CPU      0.09s WALL (   24407 calls)
     fft_scatt_yz :      0.33s CPU      0.36s WALL (   24407 calls)

     PWSCF        :     3.35s CPU         3.66s WALL


   This run was terminated on:  23:15:53  25Mar2024            

=------------------------------------------------------------------------------=
   JOB DONE.
=------------------------------------------------------------------------------=
