
     Program PWSCF v.6.3MaX starts on 25Mar2024 at 23:29:33 

     This program is part of the open-source Quantum ESPRESSO suite
     for quantum simulation of materials; please cite
         "P. Giannozzi et al., J. Phys.:Condens. Matter 21 395502 (2009);
         "P. Giannozzi et al., J. Phys.:Condens. Matter 29 465901 (2017);
          URL http://www.quantum-espresso.org", 
     in publications or presentations arising from this work. More details at
     http://www.quantum-espresso.org/quote

     Parallel version (MPI), running on     5 processors

     MPI processes distributed on     1 nodes
     R & G space division:  proc/nbgrp/npool/nimage =       5
     Waiting for input...
     Reading input from standard input

     Current dimensions of program PWSCF are:
     Max number of different atomic species (ntypx) = 10
     Max number of k-points (npk) =  40000
     Max angular momentum in pseudopotentials (lmaxx) =  3
               file Cu.pbesol-dn-rrkjus_psl.1.0.0.UPF: wavefunction(s)  3D renormalized

     Subspace diagonalization in iterative solution of the eigenvalue problem:
     a serial algorithm will be used


     Parallelization info
     --------------------
     sticks:   dense  smooth     PW     G-vecs:    dense   smooth      PW
     Min          75      75     24                 1003     1003     187
     Max          76      76     25                 1007     1007     191
     Sum         379     379    121                 5029     5029     941



     bravais-lattice index     =            2
     lattice parameter (alat)  =       6.8300  a.u.
     unit-cell volume          =      79.6530 (a.u.)^3
     number of atoms/cell      =            1
     number of atomic types    =            1
     number of electrons       =        11.00
     number of Kohn-Sham states=           10
     kinetic-energy cutoff     =      60.0000  Ry
     charge density cutoff     =     240.0000  Ry
     convergence threshold     =      1.0E-08
     mixing beta               =       0.7000
     number of iterations used =            8  plain     mixing
     Exchange-correlation      = PBESOL ( 1  4 10  8 0 0)

     celldm(1)=   6.830000  celldm(2)=   0.000000  celldm(3)=   0.000000
     celldm(4)=   0.000000  celldm(5)=   0.000000  celldm(6)=   0.000000

     crystal axes: (cart. coord. in units of alat)
               a(1) = (  -0.500000   0.000000   0.500000 )  
               a(2) = (   0.000000   0.500000   0.500000 )  
               a(3) = (  -0.500000   0.500000   0.000000 )  

     reciprocal axes: (cart. coord. in units 2 pi/alat)
               b(1) = ( -1.000000 -1.000000  1.000000 )  
               b(2) = (  1.000000  1.000000  1.000000 )  
               b(3) = ( -1.000000  1.000000 -1.000000 )  


     PseudoPot. # 1 for Cu read from file:
     /home/lorenzo/pseudos/Cu/Cu.pbesol-dn-rrkjus_psl.1.0.0.UPF
     MD5 check sum: bfa4c7aafbc42e028d5f4ccf7ceed93d
     Pseudo is Ultrasoft + core correction, Zval = 11.0
     Generated using "atomic" code by A. Dal Corso v.6.3
     Using radial grid of 1199 points,  6 beta functions with: 
                l(1) =   0
                l(2) =   0
                l(3) =   1
                l(4) =   1
                l(5) =   2
                l(6) =   2
     Q(r) pseudized with 0 coefficients 


     atomic species   valence    mass     pseudopotential
        Cu            11.00    63.54600     Cu( 1.00)

     48 Sym. Ops., with inversion, found



   Cartesian axes

     site n.     atom                  positions (alat units)
         1           Cu  tau(   1) = (   0.0000000   0.0000000   0.0000000  )

     number of k points=    29  gaussian smearing, width (Ry)=  0.0100
                       cart. coord. in units 2pi/alat
        k(    1) = (   0.0000000   0.0000000   0.0000000), wk =   0.0039062
        k(    2) = (  -0.1250000   0.1250000  -0.1250000), wk =   0.0312500
        k(    3) = (  -0.2500000   0.2500000  -0.2500000), wk =   0.0312500
        k(    4) = (  -0.3750000   0.3750000  -0.3750000), wk =   0.0312500
        k(    5) = (   0.5000000  -0.5000000   0.5000000), wk =   0.0156250
        k(    6) = (   0.0000000   0.2500000   0.0000000), wk =   0.0234375
        k(    7) = (  -0.1250000   0.3750000  -0.1250000), wk =   0.0937500
        k(    8) = (  -0.2500000   0.5000000  -0.2500000), wk =   0.0937500
        k(    9) = (   0.6250000  -0.3750000   0.6250000), wk =   0.0937500
        k(   10) = (   0.5000000  -0.2500000   0.5000000), wk =   0.0937500
        k(   11) = (   0.3750000  -0.1250000   0.3750000), wk =   0.0937500
        k(   12) = (   0.2500000   0.0000000   0.2500000), wk =   0.0468750
        k(   13) = (   0.0000000   0.5000000   0.0000000), wk =   0.0234375
        k(   14) = (  -0.1250000   0.6250000  -0.1250000), wk =   0.0937500
        k(   15) = (   0.7500000  -0.2500000   0.7500000), wk =   0.0937500
        k(   16) = (   0.6250000  -0.1250000   0.6250000), wk =   0.0937500
        k(   17) = (   0.5000000   0.0000000   0.5000000), wk =   0.0468750
        k(   18) = (   0.0000000   0.7500000   0.0000000), wk =   0.0234375
        k(   19) = (   0.8750000  -0.1250000   0.8750000), wk =   0.0937500
        k(   20) = (   0.7500000   0.0000000   0.7500000), wk =   0.0468750
        k(   21) = (   0.0000000  -1.0000000   0.0000000), wk =   0.0117188
        k(   22) = (  -0.2500000   0.5000000   0.0000000), wk =   0.0937500
        k(   23) = (   0.6250000  -0.3750000   0.8750000), wk =   0.1875000
        k(   24) = (   0.5000000  -0.2500000   0.7500000), wk =   0.0937500
        k(   25) = (   0.7500000  -0.2500000   1.0000000), wk =   0.0937500
        k(   26) = (   0.6250000  -0.1250000   0.8750000), wk =   0.1875000
        k(   27) = (   0.5000000   0.0000000   0.7500000), wk =   0.0937500
        k(   28) = (  -0.2500000  -1.0000000   0.0000000), wk =   0.0468750
        k(   29) = (  -0.5000000  -1.0000000   0.0000000), wk =   0.0234375

     Dense  grid:     5029 G-vectors     FFT dimensions: (  24,  24,  24)

     Estimated max dynamical RAM per process >       5.66 MB

     Estimated total dynamical RAM >      28.32 MB

     Initial potential from superposition of free atoms

     starting charge   10.99979, renormalised to   11.00000
     Starting wfcs are    9 randomized atomic wfcs +    1 random wfcs

     total cpu time spent up to now is        0.9 secs

     Self-consistent Calculation

     iteration #  1     ecut=    60.00 Ry     beta= 0.70
     Davidson diagonalization with overlap
     ethr =  1.00E-02,  avg # of iterations =  3.6

     Threshold (ethr) on eigenvalues was too large:
     Diagonalizing with lowered threshold

     Davidson diagonalization with overlap
     ethr =  6.91E-04,  avg # of iterations =  1.2

     total cpu time spent up to now is        1.3 secs

     total energy              =    -122.36203463 Ry
     Harris-Foulkes estimate   =    -122.42227046 Ry
     estimated scf accuracy    <       0.07579228 Ry

     iteration #  2     ecut=    60.00 Ry     beta= 0.70
     Davidson diagonalization with overlap
     ethr =  6.89E-04,  avg # of iterations =  2.1

     total cpu time spent up to now is        1.5 secs

     total energy              =    -122.36365337 Ry
     Harris-Foulkes estimate   =    -122.47152486 Ry
     estimated scf accuracy    <       0.28226959 Ry

     iteration #  3     ecut=    60.00 Ry     beta= 0.70
     Davidson diagonalization with overlap
     ethr =  6.89E-04,  avg # of iterations =  2.0

     total cpu time spent up to now is        1.8 secs

     total energy              =    -122.40751485 Ry
     Harris-Foulkes estimate   =    -122.40758332 Ry
     estimated scf accuracy    <       0.00017011 Ry

     iteration #  4     ecut=    60.00 Ry     beta= 0.70
     Davidson diagonalization with overlap
     ethr =  1.55E-06,  avg # of iterations =  2.5

     total cpu time spent up to now is        2.0 secs

     total energy              =    -122.40759437 Ry
     Harris-Foulkes estimate   =    -122.40759965 Ry
     estimated scf accuracy    <       0.00001542 Ry

     iteration #  5     ecut=    60.00 Ry     beta= 0.70
     Davidson diagonalization with overlap
     ethr =  1.40E-07,  avg # of iterations =  1.2

     total cpu time spent up to now is        2.2 secs

     total energy              =    -122.40759728 Ry
     Harris-Foulkes estimate   =    -122.40759739 Ry
     estimated scf accuracy    <       0.00000032 Ry

     iteration #  6     ecut=    60.00 Ry     beta= 0.70
     Davidson diagonalization with overlap
     ethr =  2.87E-09,  avg # of iterations =  2.0

     total cpu time spent up to now is        2.4 secs

     End of self-consistent calculation

          k = 0.0000 0.0000 0.0000 (   609 PWs)   bands (ev):

     3.0502   9.4977   9.4977   9.4977  10.3329  10.3329  35.3876  37.7558
    37.7558  37.7558

          k =-0.1250 0.1250-0.1250 (   618 PWs)   bands (ev):

     3.6132   9.3855   9.5927   9.5927  10.3036  10.3036  31.3054  35.9188
    36.4840  36.4840

          k =-0.2500 0.2500-0.2500 (   616 PWs)   bands (ev):

     5.1748   9.2324   9.6558   9.6558  10.4176  10.4176  24.9018  35.1716
    35.2389  35.2389

          k =-0.3750 0.3750-0.3750 (   613 PWs)   bands (ev):

     6.9168   9.5333   9.5333   9.8572  10.7462  10.7462  19.3484  34.2110
    34.6382  34.6382

          k = 0.5000-0.5000 0.5000 (   628 PWs)   bands (ev):

     7.3926   9.4629   9.4629  10.9114  10.9114  11.4105  16.2310  33.7950
    34.5107  34.5107

          k = 0.0000 0.2500 0.0000 (   609 PWs)   bands (ev):

     3.7989   9.2800   9.6775   9.6775  10.1410  10.4133  33.4952  33.7055
    33.7055  35.5426

          k =-0.1250 0.3750-0.1250 (   616 PWs)   bands (ev):

     5.0292   9.0621   9.7100   9.8250  10.2098  10.5365  27.3519  31.9075
    33.3036  35.7229

          k =-0.2500 0.5000-0.2500 (   620 PWs)   bands (ev):

     6.8168   9.0863   9.4689   9.7648  10.8051  10.9472  21.4369  31.1921
    31.9225  33.5632

          k = 0.6250-0.3750 0.6250 (   620 PWs)   bands (ev):

     7.6529   9.2572   9.6527   9.8202  10.9229  12.5991  16.9063  29.9368
    31.6985  33.2983

          k = 0.5000-0.2500 0.5000 (   621 PWs)   bands (ev):

     7.5410   9.3309   9.6522   9.6686  10.7025  12.0601  18.1578  28.7786
    33.4982  34.1463

          k = 0.3750-0.1250 0.3750 (   622 PWs)   bands (ev):

     6.2456   9.0920   9.5409   9.7827  10.2753  10.9921  23.3247  28.6953
    36.0639  36.4869

          k = 0.2500 0.0000 0.2500 (   614 PWs)   bands (ev):

     4.5160   9.2048   9.6722   9.7527  10.1231  10.5051  29.2157  29.9261
    38.0864  39.0970

          k = 0.0000 0.5000 0.0000 (   632 PWs)   bands (ev):

     5.8193   8.7689   9.8573  10.1686  10.1686  10.6093  29.5342  29.5342
    30.8451  31.4978

          k =-0.1250 0.6250-0.1250 (   618 PWs)   bands (ev):

     7.1459   8.5729   9.6732  10.2626  10.8319  11.0873  24.3862  27.6067
    28.3435  32.0089

          k = 0.7500-0.2500 0.7500 (   626 PWs)   bands (ev):

     8.0473   8.6345   9.5047  10.1447  10.9526  13.4168  19.1621  25.0229
    28.5352  32.1055

          k = 0.6250-0.1250 0.6250 (   630 PWs)   bands (ev):

     8.2985   8.8194   9.3326  10.0459  10.7236  14.6006  17.7101  23.4305
    30.1320  32.7709

          k = 0.5000 0.0000 0.5000 (   624 PWs)   bands (ev):

     7.7418   8.9790   9.1901  10.0016  10.3336  12.2035  22.1609  23.3615
    32.9096  34.2364

          k = 0.0000 0.7500 0.0000 (   628 PWs)   bands (ev):

     7.4670   8.2780  10.7664  10.7664  10.8084  11.2251  23.8726  26.6120
    26.6120  30.3952

          k = 0.8750-0.1250 0.8750 (   628 PWs)   bands (ev):

     7.7768   8.2300  10.4016  10.6874  10.9952  13.7628  21.2016  22.6884
    26.3338  31.2233

          k = 0.7500 0.0000 0.7500 (   626 PWs)   bands (ev):

     8.1963   8.4306   9.7468  10.4675  10.8583  16.7782  18.1869  20.2931
    27.5984  31.7818

          k = 0.0000-1.0000 0.0000 (   636 PWs)   bands (ev):

     7.6053   8.0802  10.8919  11.0573  11.0573  13.9106  19.5795  25.5273
    25.5273  30.0534

          k =-0.2500 0.5000 0.0000 (   624 PWs)   bands (ev):

     6.4133   8.8473   9.4872  10.1781  10.2144  11.0221  25.7669  26.4425
    31.7363  36.3439

          k = 0.6250-0.3750 0.8750 (   627 PWs)   bands (ev):

     7.8341   8.8912   9.2146  10.0513  10.6758  12.3529  20.4516  25.9164
    28.8333  36.4057

          k = 0.5000-0.2500 0.7500 (   638 PWs)   bands (ev):

     8.1726   8.8849   9.4136   9.9487  10.8552  14.5699  16.7185  26.6540
    27.0106  36.1278

          k = 0.7500-0.2500 1.0000 (   636 PWs)   bands (ev):

     7.8743   8.4578   9.6407  10.6075  10.7630  12.7088  23.3687  24.1028
    24.5236  34.6470

          k = 0.6250-0.1250 0.8750 (   632 PWs)   bands (ev):

     8.3114   8.5811   9.3817  10.3573  10.9364  15.7946  18.8293  22.2233
    24.4550  35.7711

          k = 0.5000 0.0000 0.7500 (   637 PWs)   bands (ev):

     8.5455   8.7548   8.9953  10.2433  10.7674  14.9116  19.6300  21.5877
    26.1754  36.9271

          k =-0.2500-1.0000 0.0000 (   632 PWs)   bands (ev):

     7.9311   8.2969  10.1061  10.6406  11.0577  15.5356  19.8706  22.4604
    23.3647  34.0891

          k =-0.5000-1.0000 0.0000 (   616 PWs)   bands (ev):

     8.3562   8.9721   8.9721  10.2886  11.0581  18.6505  18.6505  20.7797
    21.2340  40.8479

     the Fermi energy is    12.4438 ev

!    total energy              =    -122.40759735 Ry
     Harris-Foulkes estimate   =    -122.40759735 Ry
     estimated scf accuracy    <          2.5E-10 Ry

     The total energy is the sum of the following terms:

     one-electron contribution =     -27.60259202 Ry
     hartree contribution      =      30.53348987 Ry
     xc contribution           =     -44.11284445 Ry
     ewald contribution        =     -81.22522856 Ry
     smearing contrib. (-TS)   =      -0.00042219 Ry

     convergence has been achieved in   6 iterations

     Forces acting on atoms (cartesian axes, Ry/au):

     atom    1 type  1   force =     0.00000000    0.00000000    0.00000000

     Total force =     0.000000     Total SCF correction =     0.000000


     Computing stress (Cartesian axis) and pressure

          total   stress  (Ry/bohr**3)                   (kbar)     P=  -48.12
  -0.00032710   0.00000000   0.00000000        -48.12      0.00      0.00
   0.00000000  -0.00032710  -0.00000000          0.00    -48.12     -0.00
   0.00000000  -0.00000000  -0.00032710          0.00     -0.00    -48.12


     Writing output data file Cu.save/

     init_run     :      0.21s CPU      0.22s WALL (       1 calls)
     electrons    :      1.37s CPU      1.45s WALL (       1 calls)
     forces       :      0.04s CPU      0.04s WALL (       1 calls)
     stress       :      0.11s CPU      0.11s WALL (       1 calls)

     Called by init_run:
     wfcinit      :      0.05s CPU      0.06s WALL (       1 calls)
     potinit      :      0.01s CPU      0.01s WALL (       1 calls)
     hinit0       :      0.15s CPU      0.15s WALL (       1 calls)

     Called by electrons:
     c_bands      :      1.06s CPU      1.13s WALL (       7 calls)
     sum_band     :      0.25s CPU      0.26s WALL (       7 calls)
     v_of_rho     :      0.02s CPU      0.02s WALL (       7 calls)
     newd         :      0.04s CPU      0.04s WALL (       7 calls)
     mix_rho      :      0.00s CPU      0.00s WALL (       7 calls)

     Called by c_bands:
     init_us_2    :      0.04s CPU      0.04s WALL (     493 calls)
     cegterg      :      1.01s CPU      1.07s WALL (     203 calls)

     Called by sum_band:
     sum_band:bec :      0.00s CPU      0.00s WALL (     203 calls)
     addusdens    :      0.03s CPU      0.04s WALL (       7 calls)

     Called by *egterg:
     h_psi        :      0.78s CPU      0.83s WALL (     655 calls)
     s_psi        :      0.03s CPU      0.03s WALL (     655 calls)
     g_psi        :      0.00s CPU      0.00s WALL (     423 calls)
     cdiaghg      :      0.11s CPU      0.12s WALL (     597 calls)

     Called by h_psi:
     h_psi:pot    :      0.78s CPU      0.82s WALL (     655 calls)
     h_psi:calbec :      0.04s CPU      0.04s WALL (     655 calls)
     vloc_psi     :      0.70s CPU      0.75s WALL (     655 calls)
     add_vuspsi   :      0.03s CPU      0.03s WALL (     655 calls)

     General routines
     calbec       :      0.09s CPU      0.09s WALL (    1003 calls)
     fft          :      0.02s CPU      0.02s WALL (     104 calls)
     ffts         :      0.00s CPU      0.00s WALL (       7 calls)
     fftw         :      0.80s CPU      0.84s WALL (   12286 calls)

     Parallel routines
     fft_scatt_xy :      0.07s CPU      0.08s WALL (   12397 calls)
     fft_scatt_yz :      0.27s CPU      0.29s WALL (   12397 calls)

     PWSCF        :     2.45s CPU         2.62s WALL


   This run was terminated on:  23:29:36  25Mar2024            

=------------------------------------------------------------------------------=
   JOB DONE.
=------------------------------------------------------------------------------=
