
     Program PWSCF v.6.3MaX starts on 25Mar2024 at 23:31:50 

     This program is part of the open-source Quantum ESPRESSO suite
     for quantum simulation of materials; please cite
         "P. Giannozzi et al., J. Phys.:Condens. Matter 21 395502 (2009);
         "P. Giannozzi et al., J. Phys.:Condens. Matter 29 465901 (2017);
          URL http://www.quantum-espresso.org", 
     in publications or presentations arising from this work. More details at
     http://www.quantum-espresso.org/quote

     Parallel version (MPI), running on     5 processors

     MPI processes distributed on     1 nodes
     R & G space division:  proc/nbgrp/npool/nimage =       5
     Waiting for input...
     Reading input from standard input

     Current dimensions of program PWSCF are:
     Max number of different atomic species (ntypx) = 10
     Max number of k-points (npk) =  40000
     Max angular momentum in pseudopotentials (lmaxx) =  3
               file Cu.pbe-dn-rrkjus_psl.1.0.0.UPF: wavefunction(s)  3D renormalized

     Subspace diagonalization in iterative solution of the eigenvalue problem:
     a serial algorithm will be used


     Parallelization info
     --------------------
     sticks:   dense  smooth     PW     G-vecs:    dense   smooth      PW
     Min          84      84     27                 1134     1134     213
     Max          85      85     28                 1137     1137     214
     Sum         421     421    139                 5673     5673    1067



     bravais-lattice index     =            2
     lattice parameter (alat)  =       6.8300  a.u.
     unit-cell volume          =      79.6530 (a.u.)^3
     number of atoms/cell      =            1
     number of atomic types    =            1
     number of electrons       =        11.00
     number of Kohn-Sham states=           10
     kinetic-energy cutoff     =      65.0000  Ry
     charge density cutoff     =     260.0000  Ry
     convergence threshold     =      1.0E-08
     mixing beta               =       0.7000
     number of iterations used =            8  plain     mixing
     Exchange-correlation      = PBE ( 1  4  3  4 0 0)

     celldm(1)=   6.830000  celldm(2)=   0.000000  celldm(3)=   0.000000
     celldm(4)=   0.000000  celldm(5)=   0.000000  celldm(6)=   0.000000

     crystal axes: (cart. coord. in units of alat)
               a(1) = (  -0.500000   0.000000   0.500000 )  
               a(2) = (   0.000000   0.500000   0.500000 )  
               a(3) = (  -0.500000   0.500000   0.000000 )  

     reciprocal axes: (cart. coord. in units 2 pi/alat)
               b(1) = ( -1.000000 -1.000000  1.000000 )  
               b(2) = (  1.000000  1.000000  1.000000 )  
               b(3) = ( -1.000000  1.000000 -1.000000 )  


     PseudoPot. # 1 for Cu read from file:
     /home/lorenzo/pseudos/Cu/Cu.pbe-dn-rrkjus_psl.1.0.0.UPF
     MD5 check sum: ba3d6c84e19846e79d48cdc68ff7152b
     Pseudo is Ultrasoft + core correction, Zval = 11.0
     Generated using "atomic" code by A. Dal Corso v.6.3
     Using radial grid of 1199 points,  6 beta functions with: 
                l(1) =   0
                l(2) =   0
                l(3) =   1
                l(4) =   1
                l(5) =   2
                l(6) =   2
     Q(r) pseudized with 0 coefficients 


     atomic species   valence    mass     pseudopotential
        Cu            11.00    63.54600     Cu( 1.00)

     48 Sym. Ops., with inversion, found



   Cartesian axes

     site n.     atom                  positions (alat units)
         1           Cu  tau(   1) = (   0.0000000   0.0000000   0.0000000  )

     number of k points=    29  gaussian smearing, width (Ry)=  0.0100
                       cart. coord. in units 2pi/alat
        k(    1) = (   0.0000000   0.0000000   0.0000000), wk =   0.0039062
        k(    2) = (  -0.1250000   0.1250000  -0.1250000), wk =   0.0312500
        k(    3) = (  -0.2500000   0.2500000  -0.2500000), wk =   0.0312500
        k(    4) = (  -0.3750000   0.3750000  -0.3750000), wk =   0.0312500
        k(    5) = (   0.5000000  -0.5000000   0.5000000), wk =   0.0156250
        k(    6) = (   0.0000000   0.2500000   0.0000000), wk =   0.0234375
        k(    7) = (  -0.1250000   0.3750000  -0.1250000), wk =   0.0937500
        k(    8) = (  -0.2500000   0.5000000  -0.2500000), wk =   0.0937500
        k(    9) = (   0.6250000  -0.3750000   0.6250000), wk =   0.0937500
        k(   10) = (   0.5000000  -0.2500000   0.5000000), wk =   0.0937500
        k(   11) = (   0.3750000  -0.1250000   0.3750000), wk =   0.0937500
        k(   12) = (   0.2500000   0.0000000   0.2500000), wk =   0.0468750
        k(   13) = (   0.0000000   0.5000000   0.0000000), wk =   0.0234375
        k(   14) = (  -0.1250000   0.6250000  -0.1250000), wk =   0.0937500
        k(   15) = (   0.7500000  -0.2500000   0.7500000), wk =   0.0937500
        k(   16) = (   0.6250000  -0.1250000   0.6250000), wk =   0.0937500
        k(   17) = (   0.5000000   0.0000000   0.5000000), wk =   0.0468750
        k(   18) = (   0.0000000   0.7500000   0.0000000), wk =   0.0234375
        k(   19) = (   0.8750000  -0.1250000   0.8750000), wk =   0.0937500
        k(   20) = (   0.7500000   0.0000000   0.7500000), wk =   0.0468750
        k(   21) = (   0.0000000  -1.0000000   0.0000000), wk =   0.0117188
        k(   22) = (  -0.2500000   0.5000000   0.0000000), wk =   0.0937500
        k(   23) = (   0.6250000  -0.3750000   0.8750000), wk =   0.1875000
        k(   24) = (   0.5000000  -0.2500000   0.7500000), wk =   0.0937500
        k(   25) = (   0.7500000  -0.2500000   1.0000000), wk =   0.0937500
        k(   26) = (   0.6250000  -0.1250000   0.8750000), wk =   0.1875000
        k(   27) = (   0.5000000   0.0000000   0.7500000), wk =   0.0937500
        k(   28) = (  -0.2500000  -1.0000000   0.0000000), wk =   0.0468750
        k(   29) = (  -0.5000000  -1.0000000   0.0000000), wk =   0.0234375

     Dense  grid:     5673 G-vectors     FFT dimensions: (  25,  25,  25)

     Estimated max dynamical RAM per process >       6.27 MB

     Estimated total dynamical RAM >      31.33 MB

     Initial potential from superposition of free atoms

     starting charge   10.99977, renormalised to   11.00000
     Starting wfcs are    9 randomized atomic wfcs +    1 random wfcs

     total cpu time spent up to now is        1.0 secs

     Self-consistent Calculation

     iteration #  1     ecut=    65.00 Ry     beta= 0.70
     Davidson diagonalization with overlap
     ethr =  1.00E-02,  avg # of iterations =  3.6

     Threshold (ethr) on eigenvalues was too large:
     Diagonalizing with lowered threshold

     Davidson diagonalization with overlap
     ethr =  5.71E-04,  avg # of iterations =  1.0

     total cpu time spent up to now is        1.4 secs

     total energy              =    -122.70740328 Ry
     Harris-Foulkes estimate   =    -122.75641678 Ry
     estimated scf accuracy    <       0.06255104 Ry

     iteration #  2     ecut=    65.00 Ry     beta= 0.70
     Davidson diagonalization with overlap
     ethr =  5.69E-04,  avg # of iterations =  2.1

     total cpu time spent up to now is        1.7 secs

     total energy              =    -122.70816586 Ry
     Harris-Foulkes estimate   =    -122.79631885 Ry
     estimated scf accuracy    <       0.23028222 Ry

     iteration #  3     ecut=    65.00 Ry     beta= 0.70
     Davidson diagonalization with overlap
     ethr =  5.69E-04,  avg # of iterations =  2.2

     total cpu time spent up to now is        1.9 secs

     total energy              =    -122.74446983 Ry
     Harris-Foulkes estimate   =    -122.74449706 Ry
     estimated scf accuracy    <       0.00008807 Ry

     iteration #  4     ecut=    65.00 Ry     beta= 0.70
     Davidson diagonalization with overlap
     ethr =  8.01E-07,  avg # of iterations =  2.6

     total cpu time spent up to now is        2.2 secs

     total energy              =    -122.74451834 Ry
     Harris-Foulkes estimate   =    -122.74452273 Ry
     estimated scf accuracy    <       0.00001383 Ry

     iteration #  5     ecut=    65.00 Ry     beta= 0.70
     Davidson diagonalization with overlap
     ethr =  1.26E-07,  avg # of iterations =  1.2

     total cpu time spent up to now is        2.4 secs

     total energy              =    -122.74452102 Ry
     Harris-Foulkes estimate   =    -122.74452121 Ry
     estimated scf accuracy    <       0.00000052 Ry

     iteration #  6     ecut=    65.00 Ry     beta= 0.70
     Davidson diagonalization with overlap
     ethr =  4.74E-09,  avg # of iterations =  1.2

     total cpu time spent up to now is        2.6 secs

     End of self-consistent calculation

          k = 0.0000 0.0000 0.0000 (   725 PWs)   bands (ev):

     3.2765   9.6933   9.6933   9.6933  10.5212  10.5212  35.5982  37.9945
    37.9945  37.9945

          k =-0.1250 0.1250-0.1250 (   706 PWs)   bands (ev):

     3.8395   9.5817   9.7878   9.7878  10.4921  10.4921  31.5325  36.1339
    36.7239  36.7239

          k =-0.2500 0.2500-0.2500 (   703 PWs)   bands (ev):

     5.4006   9.4312   9.8496   9.8496  10.6067  10.6067  25.1260  35.3807
    35.4810  35.4810

          k =-0.3750 0.3750-0.3750 (   709 PWs)   bands (ev):

     7.1346   9.7269   9.7269  10.0681  10.9346  10.9346  19.5673  34.4190
    34.8852  34.8852

          k = 0.5000-0.5000 0.5000 (   718 PWs)   bands (ev):

     7.6023   9.6565   9.6565  11.0992  11.0992  11.6364  16.4425  34.0030
    34.7618  34.7618

          k = 0.0000 0.2500 0.0000 (   697 PWs)   bands (ev):

     4.0252   9.4764   9.8725   9.8725  10.3303  10.6012  33.7109  33.9451
    33.9451  35.7610

          k =-0.1250 0.3750-0.1250 (   697 PWs)   bands (ev):

     5.2552   9.2599   9.9032  10.0189  10.4014  10.7245  27.5787  32.1474
    33.5176  35.9551

          k =-0.2500 0.5000-0.2500 (   703 PWs)   bands (ev):

     7.0378   9.2873   9.6632   9.9578  10.9930  11.1414  21.6591  31.4334
    32.1400  33.7961

          k = 0.6250-0.3750 0.6250 (   707 PWs)   bands (ev):

     7.8620   9.4522   9.8456  10.0220  11.1106  12.8085  17.1215  30.1636
    31.9413  33.5223

          k = 0.5000-0.2500 0.5000 (   708 PWs)   bands (ev):

     7.7530   9.5255   9.8449   9.8725  10.8915  12.2618  18.3755  29.0072
    33.7422  34.3684

          k = 0.3750-0.1250 0.3750 (   709 PWs)   bands (ev):

     6.4699   9.2916   9.7350   9.9751  10.4659  11.1822  23.5482  28.9237
    36.2855  36.7318

          k = 0.2500 0.0000 0.2500 (   694 PWs)   bands (ev):

     4.7422   9.4019   9.8666   9.9472  10.3124  10.6938  29.4423  30.1552
    38.3097  39.3180

          k = 0.0000 0.5000 0.0000 (   713 PWs)   bands (ev):

     6.0440   8.9673  10.0513  10.3616  10.3616  10.7963  29.7740  29.7740
    31.0627  31.7130

          k =-0.1250 0.6250-0.1250 (   703 PWs)   bands (ev):

     7.3635   8.7724   9.8709  10.4538  11.0193  11.2843  24.6139  27.8299
    28.5840  32.2275

          k = 0.7500-0.2500 0.7500 (   703 PWs)   bands (ev):

     8.2527   8.8346   9.7043  10.3354  11.1403  13.6260  19.3842  25.2464
    28.7763  32.3229

          k = 0.6250-0.1250 0.6250 (   702 PWs)   bands (ev):

     8.5038   9.0173   9.5325  10.2364  10.9131  14.8128  17.9291  23.6542
    30.3732  32.9892

          k = 0.5000 0.0000 0.5000 (   708 PWs)   bands (ev):

     7.9592   9.1785   9.3854  10.1916  10.5255  12.4014  22.3844  23.5857
    33.1511  34.4565

          k = 0.0000 0.7500 0.0000 (   701 PWs)   bands (ev):

     7.6749   8.4781  10.9567  10.9567  10.9946  11.4412  24.0923  26.8533
    26.8533  30.6090

          k = 0.8750-0.1250 0.8750 (   706 PWs)   bands (ev):

     7.9787   8.4307  10.5978  10.8750  11.1834  13.9819  21.4176  22.9194
    26.5756  31.4387

          k = 0.7500 0.0000 0.7500 (   706 PWs)   bands (ev):

     8.3956   8.6320   9.9455  10.6555  11.0478  17.0007  18.4069  20.5110
    27.8396  31.9973

          k = 0.0000-1.0000 0.0000 (   692 PWs)   bands (ev):

     7.8068   8.2810  11.0776  11.2459  11.2459  14.1424  19.7907  25.7697
    25.7697  30.2667

          k =-0.2500 0.5000 0.0000 (   700 PWs)   bands (ev):

     6.6372   9.0460   9.6811  10.3709  10.4051  11.2127  25.9935  26.6705
    31.9644  36.5724

          k = 0.6250-0.3750 0.8750 (   703 PWs)   bands (ev):

     8.0472   9.0912   9.4113  10.2427  10.8655  12.5541  20.6738  26.1440
    29.0622  36.6373

          k = 0.5000-0.2500 0.7500 (   702 PWs)   bands (ev):

     8.3783   9.0822   9.6137  10.1400  11.0439  14.7833  16.9350  26.8751
    27.2464  36.3600

          k = 0.7500-0.2500 1.0000 (   712 PWs)   bands (ev):

     8.0805   8.6580   9.8401  10.7957  10.9532  12.9161  23.5969  24.3246
    24.7544  34.8743

          k = 0.6250-0.1250 0.8750 (   709 PWs)   bands (ev):

     8.5110   8.7820   9.5814  10.5463  11.1254  16.0116  19.0516  22.4445
    24.6846  35.9992

          k = 0.5000 0.0000 0.7500 (   701 PWs)   bands (ev):

     8.7480   8.9543   9.1952  10.4326  10.9575  15.1246  19.8533  21.8096
    26.4038  37.1576

          k =-0.2500-1.0000 0.0000 (   708 PWs)   bands (ev):

     8.1312   8.4976  10.3031  10.8278  11.2463  15.7599  20.0833  22.6900
    23.5964  34.3157

          k =-0.5000-1.0000 0.0000 (   700 PWs)   bands (ev):

     8.5545   9.1723   9.1723  10.4779  11.2467  18.8746  18.8746  20.9888
    21.4658  41.0820

     the Fermi energy is    12.6464 ev

!    total energy              =    -122.74452112 Ry
     Harris-Foulkes estimate   =    -122.74452112 Ry
     estimated scf accuracy    <          2.5E-10 Ry

     The total energy is the sum of the following terms:

     one-electron contribution =     -27.51138173 Ry
     hartree contribution      =      30.62229976 Ry
     xc contribution           =     -44.62980245 Ry
     ewald contribution        =     -81.22522855 Ry
     smearing contrib. (-TS)   =      -0.00040816 Ry

     convergence has been achieved in   6 iterations

     Forces acting on atoms (cartesian axes, Ry/au):

     atom    1 type  1   force =     0.00000000    0.00000000    0.00000000

     Total force =     0.000000     Total SCF correction =     0.000000


     Computing stress (Cartesian axis) and pressure

          total   stress  (Ry/bohr**3)                   (kbar)     P=   34.75
   0.00023625  -0.00000000   0.00000000         34.75     -0.00      0.00
  -0.00000000   0.00023625   0.00000000         -0.00     34.75      0.00
   0.00000000  -0.00000000   0.00023625          0.00     -0.00     34.75


     Writing output data file Cu.save/

     init_run     :      0.25s CPU      0.26s WALL (       1 calls)
     electrons    :      1.57s CPU      1.68s WALL (       1 calls)
     forces       :      0.04s CPU      0.04s WALL (       1 calls)
     stress       :      0.12s CPU      0.12s WALL (       1 calls)

     Called by init_run:
     wfcinit      :      0.08s CPU      0.09s WALL (       1 calls)
     potinit      :      0.01s CPU      0.01s WALL (       1 calls)
     hinit0       :      0.14s CPU      0.15s WALL (       1 calls)

     Called by electrons:
     c_bands      :      1.24s CPU      1.32s WALL (       7 calls)
     sum_band     :      0.27s CPU      0.29s WALL (       7 calls)
     v_of_rho     :      0.02s CPU      0.02s WALL (       7 calls)
     newd         :      0.04s CPU      0.04s WALL (       7 calls)
     mix_rho      :      0.00s CPU      0.00s WALL (       7 calls)

     Called by c_bands:
     init_us_2    :      0.04s CPU      0.05s WALL (     493 calls)
     cegterg      :      1.18s CPU      1.25s WALL (     203 calls)

     Called by sum_band:
     sum_band:bec :      0.00s CPU      0.00s WALL (     203 calls)
     addusdens    :      0.04s CPU      0.04s WALL (       7 calls)

     Called by *egterg:
     h_psi        :      0.96s CPU      1.03s WALL (     634 calls)
     s_psi        :      0.03s CPU      0.03s WALL (     634 calls)
     g_psi        :      0.00s CPU      0.00s WALL (     402 calls)
     cdiaghg      :      0.11s CPU      0.12s WALL (     576 calls)

     Called by h_psi:
     h_psi:pot    :      0.95s CPU      1.02s WALL (     634 calls)
     h_psi:calbec :      0.04s CPU      0.05s WALL (     634 calls)
     vloc_psi     :      0.88s CPU      0.94s WALL (     634 calls)
     add_vuspsi   :      0.03s CPU      0.03s WALL (     634 calls)

     General routines
     calbec       :      0.09s CPU      0.10s WALL (     982 calls)
     fft          :      0.02s CPU      0.02s WALL (     104 calls)
     ffts         :      0.00s CPU      0.00s WALL (       7 calls)
     fftw         :      0.99s CPU      1.06s WALL (   12262 calls)

     Parallel routines
     fft_scatt_xy :      0.08s CPU      0.09s WALL (   12373 calls)
     fft_scatt_yz :      0.29s CPU      0.30s WALL (   12373 calls)

     PWSCF        :     2.69s CPU         2.86s WALL


   This run was terminated on:  23:31:53  25Mar2024            

=------------------------------------------------------------------------------=
   JOB DONE.
=------------------------------------------------------------------------------=
