
     Program PWSCF v.6.3MaX starts on 25Mar2024 at 23:42:36 

     This program is part of the open-source Quantum ESPRESSO suite
     for quantum simulation of materials; please cite
         "P. Giannozzi et al., J. Phys.:Condens. Matter 21 395502 (2009);
         "P. Giannozzi et al., J. Phys.:Condens. Matter 29 465901 (2017);
          URL http://www.quantum-espresso.org", 
     in publications or presentations arising from this work. More details at
     http://www.quantum-espresso.org/quote

     Parallel version (MPI), running on     5 processors

     MPI processes distributed on     1 nodes
     R & G space division:  proc/nbgrp/npool/nimage =       5
     Waiting for input...
     Reading input from standard input

     Current dimensions of program PWSCF are:
     Max number of different atomic species (ntypx) = 10
     Max number of k-points (npk) =  40000
     Max angular momentum in pseudopotentials (lmaxx) =  3
               file Cu.pbesol-dn-rrkjus_psl.1.0.0.UPF: wavefunction(s)  3D renormalized

     Subspace diagonalization in iterative solution of the eigenvalue problem:
     a serial algorithm will be used


     Parallelization info
     --------------------
     sticks:   dense  smooth     PW     G-vecs:    dense   smooth      PW
     Min         109     109     32                 1678     1678     290
     Max         110     110     33                 1680     1680     293
     Sum         547     547    163                 8393     8393    1459



     bravais-lattice index     =            2
     lattice parameter (alat)  =       6.8300  a.u.
     unit-cell volume          =      79.6530 (a.u.)^3
     number of atoms/cell      =            1
     number of atomic types    =            1
     number of electrons       =        11.00
     number of Kohn-Sham states=           10
     kinetic-energy cutoff     =      85.0000  Ry
     charge density cutoff     =     340.0000  Ry
     convergence threshold     =      1.0E-08
     mixing beta               =       0.7000
     number of iterations used =            8  plain     mixing
     Exchange-correlation      = PBESOL ( 1  4 10  8 0 0)

     celldm(1)=   6.830000  celldm(2)=   0.000000  celldm(3)=   0.000000
     celldm(4)=   0.000000  celldm(5)=   0.000000  celldm(6)=   0.000000

     crystal axes: (cart. coord. in units of alat)
               a(1) = (  -0.500000   0.000000   0.500000 )  
               a(2) = (   0.000000   0.500000   0.500000 )  
               a(3) = (  -0.500000   0.500000   0.000000 )  

     reciprocal axes: (cart. coord. in units 2 pi/alat)
               b(1) = ( -1.000000 -1.000000  1.000000 )  
               b(2) = (  1.000000  1.000000  1.000000 )  
               b(3) = ( -1.000000  1.000000 -1.000000 )  


     PseudoPot. # 1 for Cu read from file:
     /home/lorenzo/pseudos/Cu/Cu.pbesol-dn-rrkjus_psl.1.0.0.UPF
     MD5 check sum: bfa4c7aafbc42e028d5f4ccf7ceed93d
     Pseudo is Ultrasoft + core correction, Zval = 11.0
     Generated using "atomic" code by A. Dal Corso v.6.3
     Using radial grid of 1199 points,  6 beta functions with: 
                l(1) =   0
                l(2) =   0
                l(3) =   1
                l(4) =   1
                l(5) =   2
                l(6) =   2
     Q(r) pseudized with 0 coefficients 


     atomic species   valence    mass     pseudopotential
        Cu            11.00    63.54600     Cu( 1.00)

     48 Sym. Ops., with inversion, found



   Cartesian axes

     site n.     atom                  positions (alat units)
         1           Cu  tau(   1) = (   0.0000000   0.0000000   0.0000000  )

     number of k points=    29  gaussian smearing, width (Ry)=  0.0100
                       cart. coord. in units 2pi/alat
        k(    1) = (   0.0000000   0.0000000   0.0000000), wk =   0.0039062
        k(    2) = (  -0.1250000   0.1250000  -0.1250000), wk =   0.0312500
        k(    3) = (  -0.2500000   0.2500000  -0.2500000), wk =   0.0312500
        k(    4) = (  -0.3750000   0.3750000  -0.3750000), wk =   0.0312500
        k(    5) = (   0.5000000  -0.5000000   0.5000000), wk =   0.0156250
        k(    6) = (   0.0000000   0.2500000   0.0000000), wk =   0.0234375
        k(    7) = (  -0.1250000   0.3750000  -0.1250000), wk =   0.0937500
        k(    8) = (  -0.2500000   0.5000000  -0.2500000), wk =   0.0937500
        k(    9) = (   0.6250000  -0.3750000   0.6250000), wk =   0.0937500
        k(   10) = (   0.5000000  -0.2500000   0.5000000), wk =   0.0937500
        k(   11) = (   0.3750000  -0.1250000   0.3750000), wk =   0.0937500
        k(   12) = (   0.2500000   0.0000000   0.2500000), wk =   0.0468750
        k(   13) = (   0.0000000   0.5000000   0.0000000), wk =   0.0234375
        k(   14) = (  -0.1250000   0.6250000  -0.1250000), wk =   0.0937500
        k(   15) = (   0.7500000  -0.2500000   0.7500000), wk =   0.0937500
        k(   16) = (   0.6250000  -0.1250000   0.6250000), wk =   0.0937500
        k(   17) = (   0.5000000   0.0000000   0.5000000), wk =   0.0468750
        k(   18) = (   0.0000000   0.7500000   0.0000000), wk =   0.0234375
        k(   19) = (   0.8750000  -0.1250000   0.8750000), wk =   0.0937500
        k(   20) = (   0.7500000   0.0000000   0.7500000), wk =   0.0468750
        k(   21) = (   0.0000000  -1.0000000   0.0000000), wk =   0.0117188
        k(   22) = (  -0.2500000   0.5000000   0.0000000), wk =   0.0937500
        k(   23) = (   0.6250000  -0.3750000   0.8750000), wk =   0.1875000
        k(   24) = (   0.5000000  -0.2500000   0.7500000), wk =   0.0937500
        k(   25) = (   0.7500000  -0.2500000   1.0000000), wk =   0.0937500
        k(   26) = (   0.6250000  -0.1250000   0.8750000), wk =   0.1875000
        k(   27) = (   0.5000000   0.0000000   0.7500000), wk =   0.0937500
        k(   28) = (  -0.2500000  -1.0000000   0.0000000), wk =   0.0468750
        k(   29) = (  -0.5000000  -1.0000000   0.0000000), wk =   0.0234375

     Dense  grid:     8393 G-vectors     FFT dimensions: (  30,  30,  30)

     Estimated max dynamical RAM per process >       8.84 MB

     Estimated total dynamical RAM >      44.21 MB

     Initial potential from superposition of free atoms

     starting charge   10.99979, renormalised to   11.00000
     Starting wfcs are    9 randomized atomic wfcs +    1 random wfcs

     total cpu time spent up to now is        1.0 secs

     Self-consistent Calculation

     iteration #  1     ecut=    85.00 Ry     beta= 0.70
     Davidson diagonalization with overlap
     ethr =  1.00E-02,  avg # of iterations =  3.7

     Threshold (ethr) on eigenvalues was too large:
     Diagonalizing with lowered threshold

     Davidson diagonalization with overlap
     ethr =  6.93E-04,  avg # of iterations =  1.0

     total cpu time spent up to now is        1.7 secs

     total energy              =    -122.36225404 Ry
     Harris-Foulkes estimate   =    -122.42266159 Ry
     estimated scf accuracy    <       0.07598618 Ry

     iteration #  2     ecut=    85.00 Ry     beta= 0.70
     Davidson diagonalization with overlap
     ethr =  6.91E-04,  avg # of iterations =  2.1

     total cpu time spent up to now is        2.0 secs

     total energy              =    -122.36389195 Ry
     Harris-Foulkes estimate   =    -122.47208511 Ry
     estimated scf accuracy    <       0.28314264 Ry

     iteration #  3     ecut=    85.00 Ry     beta= 0.70
     Davidson diagonalization with overlap
     ethr =  6.91E-04,  avg # of iterations =  2.1

     total cpu time spent up to now is        2.4 secs

     total energy              =    -122.40787156 Ry
     Harris-Foulkes estimate   =    -122.40794087 Ry
     estimated scf accuracy    <       0.00017233 Ry

     iteration #  4     ecut=    85.00 Ry     beta= 0.70
     Davidson diagonalization with overlap
     ethr =  1.57E-06,  avg # of iterations =  2.4

     total cpu time spent up to now is        2.8 secs

     total energy              =    -122.40795178 Ry
     Harris-Foulkes estimate   =    -122.40795706 Ry
     estimated scf accuracy    <       0.00001546 Ry

     iteration #  5     ecut=    85.00 Ry     beta= 0.70
     Davidson diagonalization with overlap
     ethr =  1.41E-07,  avg # of iterations =  1.3

     total cpu time spent up to now is        3.0 secs

     total energy              =    -122.40795473 Ry
     Harris-Foulkes estimate   =    -122.40795486 Ry
     estimated scf accuracy    <       0.00000034 Ry

     iteration #  6     ecut=    85.00 Ry     beta= 0.70
     Davidson diagonalization with overlap
     ethr =  3.07E-09,  avg # of iterations =  1.9

     total cpu time spent up to now is        3.4 secs

     End of self-consistent calculation

          k = 0.0000 0.0000 0.0000 (  1067 PWs)   bands (ev):

     3.0502   9.4964   9.4964   9.4964  10.3315  10.3315  35.3876  37.7560
    37.7560  37.7560

          k =-0.1250 0.1250-0.1250 (  1034 PWs)   bands (ev):

     3.6132   9.3841   9.5913   9.5913  10.3021  10.3021  31.3044  35.9187
    36.4830  36.4830

          k =-0.2500 0.2500-0.2500 (  1053 PWs)   bands (ev):

     5.1747   9.2311   9.6544   9.6544  10.4161  10.4161  24.9012  35.1714
    35.2379  35.2379

          k =-0.3750 0.3750-0.3750 (  1053 PWs)   bands (ev):

     6.9163   9.5320   9.5320   9.8565  10.7447  10.7447  19.3479  34.2109
    34.6378  34.6378

          k = 0.5000-0.5000 0.5000 (  1056 PWs)   bands (ev):

     7.3916   9.4615   9.4615  10.9099  10.9099  11.4104  16.2304  33.7950
    34.5108  34.5108

          k = 0.0000 0.2500 0.0000 (  1038 PWs)   bands (ev):

     3.7989   9.2786   9.6761   9.6761  10.1396  10.4118  33.4938  33.7047
    33.7047  35.5423

          k =-0.1250 0.3750-0.1250 (  1046 PWs)   bands (ev):

     5.0292   9.0608   9.7086   9.8236  10.2084  10.5350  27.3511  31.9067
    33.3025  35.7219

          k =-0.2500 0.5000-0.2500 (  1061 PWs)   bands (ev):

     6.8164   9.0851   9.4676   9.7634  10.8036  10.9459  21.4364  31.1916
    31.9214  33.5627

          k = 0.6250-0.3750 0.6250 (  1055 PWs)   bands (ev):

     7.6519   9.2559   9.6514   9.8191  10.9214  12.5984  16.9058  29.9361
    31.6980  33.2979

          k = 0.5000-0.2500 0.5000 (  1054 PWs)   bands (ev):

     7.5402   9.3295   9.6508   9.6676  10.7011  12.0592  18.1573  28.7779
    33.4975  34.1460

          k = 0.3750-0.1250 0.3750 (  1056 PWs)   bands (ev):

     6.2454   9.0908   9.5396   9.7813  10.2739  10.9907  23.3241  28.6946
    36.0637  36.4859

          k = 0.2500 0.0000 0.2500 (  1049 PWs)   bands (ev):

     4.5160   9.2035   9.6708   9.7513  10.1216  10.5037  29.2145  29.9256
    38.0864  39.0966

          k = 0.0000 0.5000 0.0000 (  1062 PWs)   bands (ev):

     5.8192   8.7676   9.8560  10.1672  10.1672  10.6078  29.5338  29.5338
    30.8439  31.4958

          k =-0.1250 0.6250-0.1250 (  1050 PWs)   bands (ev):

     7.1454   8.5716   9.6720  10.2611  10.8304  11.0861  24.3857  27.6059
    28.3432  32.0075

          k = 0.7500-0.2500 0.7500 (  1053 PWs)   bands (ev):

     8.0463   8.6333   9.5035  10.1433  10.9511  13.4161  19.1617  25.0224
    28.5349  32.1044

          k = 0.6250-0.1250 0.6250 (  1064 PWs)   bands (ev):

     8.2974   8.8182   9.3314  10.0445  10.7221  14.6000  17.7096  23.4300
    30.1315  32.7700

          k = 0.5000 0.0000 0.5000 (  1049 PWs)   bands (ev):

     7.7413   8.9778   9.1888  10.0002  10.3321  12.2024  22.1602  23.3612
    32.9088  34.2358

          k = 0.0000 0.7500 0.0000 (  1042 PWs)   bands (ev):

     7.4662   8.2767  10.7649  10.7649  10.8070  11.2247  23.8720  26.6119
    26.6119  30.3928

          k = 0.8750-0.1250 0.8750 (  1056 PWs)   bands (ev):

     7.7756   8.2288  10.4003  10.6859  10.9937  13.7624  21.2010  22.6881
    26.3337  31.2216

          k = 0.7500 0.0000 0.7500 (  1063 PWs)   bands (ev):

     8.1951   8.4294   9.7455  10.4660  10.8568  16.7777  18.1864  20.2927
    27.5982  31.7804

          k = 0.0000-1.0000 0.0000 (  1034 PWs)   bands (ev):

     7.6042   8.0789  10.8904  11.0558  11.0558  13.9105  19.5790  25.5273
    25.5273  30.0509

          k =-0.2500 0.5000 0.0000 (  1048 PWs)   bands (ev):

     6.4131   8.8460   9.4858  10.1767  10.2130  11.0208  25.7660  26.4422
    31.7355  36.3424

          k = 0.6250-0.3750 0.8750 (  1056 PWs)   bands (ev):

     7.8334   8.8900   9.2133  10.0499  10.6744  12.3519  20.4511  25.9159
    28.8327  36.4052

          k = 0.5000-0.2500 0.7500 (  1058 PWs)   bands (ev):

     8.1715   8.8837   9.4124   9.9473  10.8538  14.5693  16.7180  26.6532
    27.0104  36.1276

          k = 0.7500-0.2500 1.0000 (  1051 PWs)   bands (ev):

     7.8734   8.4566   9.6395  10.6060  10.7616  12.7081  23.3681  24.1023
    24.5234  34.6453

          k = 0.6250-0.1250 0.8750 (  1057 PWs)   bands (ev):

     8.3102   8.5798   9.3805  10.3559  10.9349  15.7941  18.8288  22.2229
    24.4547  35.7699

          k = 0.5000 0.0000 0.7500 (  1060 PWs)   bands (ev):

     8.5444   8.7536   8.9940  10.2418  10.7659  14.9111  19.6295  21.5874
    26.1749  36.9263

          k =-0.2500-1.0000 0.0000 (  1058 PWs)   bands (ev):

     7.9299   8.2956  10.1048  10.6392  11.0561  15.5352  19.8700  22.4599
    23.3646  34.0873

          k =-0.5000-1.0000 0.0000 (  1048 PWs)   bands (ev):

     8.3549   8.9709   8.9709  10.2871  11.0565  18.6500  18.6500  20.7789
    21.2341  40.8462

     the Fermi energy is    12.4429 ev

!    total energy              =    -122.40795481 Ry
     Harris-Foulkes estimate   =    -122.40795481 Ry
     estimated scf accuracy    <          4.6E-10 Ry

     The total energy is the sum of the following terms:

     one-electron contribution =     -27.60258361 Ry
     hartree contribution      =      30.53277618 Ry
     xc contribution           =     -44.11249712 Ry
     ewald contribution        =     -81.22522855 Ry
     smearing contrib. (-TS)   =      -0.00042172 Ry

     convergence has been achieved in   6 iterations

     Forces acting on atoms (cartesian axes, Ry/au):

     atom    1 type  1   force =     0.00000000    0.00000000    0.00000000

     Total force =     0.000000     Total SCF correction =     0.000000


     Computing stress (Cartesian axis) and pressure

          total   stress  (Ry/bohr**3)                   (kbar)     P=  -48.72
  -0.00033118  -0.00000000  -0.00000000        -48.72     -0.00     -0.00
  -0.00000000  -0.00033118   0.00000000         -0.00    -48.72      0.00
  -0.00000000   0.00000000  -0.00033118         -0.00      0.00    -48.72


     Writing output data file Cu.save/

     init_run     :      0.31s CPU      0.32s WALL (       1 calls)
     electrons    :      2.26s CPU      2.36s WALL (       1 calls)
     forces       :      0.06s CPU      0.06s WALL (       1 calls)
     stress       :      0.15s CPU      0.15s WALL (       1 calls)

     Called by init_run:
     wfcinit      :      0.10s CPU      0.11s WALL (       1 calls)
     potinit      :      0.01s CPU      0.01s WALL (       1 calls)
     hinit0       :      0.18s CPU      0.18s WALL (       1 calls)

     Called by electrons:
     c_bands      :      1.75s CPU      1.84s WALL (       7 calls)
     sum_band     :      0.42s CPU      0.43s WALL (       7 calls)
     v_of_rho     :      0.04s CPU      0.04s WALL (       7 calls)
     newd         :      0.06s CPU      0.06s WALL (       7 calls)
     mix_rho      :      0.00s CPU      0.00s WALL (       7 calls)

     Called by c_bands:
     init_us_2    :      0.06s CPU      0.07s WALL (     493 calls)
     cegterg      :      1.67s CPU      1.75s WALL (     203 calls)

     Called by sum_band:
     sum_band:bec :      0.00s CPU      0.00s WALL (     203 calls)
     addusdens    :      0.06s CPU      0.06s WALL (       7 calls)

     Called by *egterg:
     h_psi        :      1.38s CPU      1.45s WALL (     653 calls)
     s_psi        :      0.04s CPU      0.04s WALL (     653 calls)
     g_psi        :      0.00s CPU      0.00s WALL (     421 calls)
     cdiaghg      :      0.12s CPU      0.12s WALL (     595 calls)

     Called by h_psi:
     h_psi:pot    :      1.37s CPU      1.44s WALL (     653 calls)
     h_psi:calbec :      0.06s CPU      0.06s WALL (     653 calls)
     vloc_psi     :      1.27s CPU      1.33s WALL (     653 calls)
     add_vuspsi   :      0.04s CPU      0.04s WALL (     653 calls)

     General routines
     calbec       :      0.12s CPU      0.13s WALL (    1001 calls)
     fft          :      0.03s CPU      0.03s WALL (     104 calls)
     ffts         :      0.00s CPU      0.00s WALL (       7 calls)
     fftw         :      1.45s CPU      1.51s WALL (   12312 calls)

     Parallel routines
     fft_scatt_xy :      0.12s CPU      0.12s WALL (   12423 calls)
     fft_scatt_yz :      0.44s CPU      0.46s WALL (   12423 calls)

     PWSCF        :     3.50s CPU         3.66s WALL


   This run was terminated on:  23:42:39  25Mar2024            

=------------------------------------------------------------------------------=
   JOB DONE.
=------------------------------------------------------------------------------=
