
     Program PWSCF v.6.3MaX starts on 25Mar2024 at 23: 6:25 

     This program is part of the open-source Quantum ESPRESSO suite
     for quantum simulation of materials; please cite
         "P. Giannozzi et al., J. Phys.:Condens. Matter 21 395502 (2009);
         "P. Giannozzi et al., J. Phys.:Condens. Matter 29 465901 (2017);
          URL http://www.quantum-espresso.org", 
     in publications or presentations arising from this work. More details at
     http://www.quantum-espresso.org/quote

     Parallel version (MPI), running on     5 processors

     MPI processes distributed on     1 nodes
     R & G space division:  proc/nbgrp/npool/nimage =       5
     Waiting for input...
     Reading input from standard input

     Current dimensions of program PWSCF are:
     Max number of different atomic species (ntypx) = 10
     Max number of k-points (npk) =  40000
     Max angular momentum in pseudopotentials (lmaxx) =  3
               file Cu.pbesol-dn-rrkjus_psl.1.0.0.UPF: wavefunction(s)  3D renormalized

     Subspace diagonalization in iterative solution of the eigenvalue problem:
     a serial algorithm will be used


     Parallelization info
     --------------------
     sticks:   dense  smooth     PW     G-vecs:    dense   smooth      PW
     Min         129     129     39                 2168     2168     381
     Max         130     130     40                 2171     2171     384
     Sum         649     649    199                10849    10849    1917



     bravais-lattice index     =            2
     lattice parameter (alat)  =       6.8300  a.u.
     unit-cell volume          =      79.6530 (a.u.)^3
     number of atoms/cell      =            1
     number of atomic types    =            1
     number of electrons       =        11.00
     number of Kohn-Sham states=           10
     kinetic-energy cutoff     =     100.0000  Ry
     charge density cutoff     =     400.0000  Ry
     convergence threshold     =      1.0E-08
     mixing beta               =       0.7000
     number of iterations used =            8  plain     mixing
     Exchange-correlation      = PBESOL ( 1  4 10  8 0 0)

     celldm(1)=   6.830000  celldm(2)=   0.000000  celldm(3)=   0.000000
     celldm(4)=   0.000000  celldm(5)=   0.000000  celldm(6)=   0.000000

     crystal axes: (cart. coord. in units of alat)
               a(1) = (  -0.500000   0.000000   0.500000 )  
               a(2) = (   0.000000   0.500000   0.500000 )  
               a(3) = (  -0.500000   0.500000   0.000000 )  

     reciprocal axes: (cart. coord. in units 2 pi/alat)
               b(1) = ( -1.000000 -1.000000  1.000000 )  
               b(2) = (  1.000000  1.000000  1.000000 )  
               b(3) = ( -1.000000  1.000000 -1.000000 )  


     PseudoPot. # 1 for Cu read from file:
     /home/lorenzo/pseudos/Cu/Cu.pbesol-dn-rrkjus_psl.1.0.0.UPF
     MD5 check sum: bfa4c7aafbc42e028d5f4ccf7ceed93d
     Pseudo is Ultrasoft + core correction, Zval = 11.0
     Generated using "atomic" code by A. Dal Corso v.6.3
     Using radial grid of 1199 points,  6 beta functions with: 
                l(1) =   0
                l(2) =   0
                l(3) =   1
                l(4) =   1
                l(5) =   2
                l(6) =   2
     Q(r) pseudized with 0 coefficients 


     atomic species   valence    mass     pseudopotential
        Cu            11.00    63.54600     Cu( 1.00)

     48 Sym. Ops., with inversion, found



   Cartesian axes

     site n.     atom                  positions (alat units)
         1           Cu  tau(   1) = (   0.0000000   0.0000000   0.0000000  )

     number of k points=    56  gaussian smearing, width (Ry)=  0.0100
                       cart. coord. in units 2pi/alat
        k(    1) = (   0.0000000   0.0000000   0.0000000), wk =   0.0015026
        k(    2) = (  -0.0909091   0.0909091  -0.0909091), wk =   0.0120210
        k(    3) = (  -0.1818182   0.1818182  -0.1818182), wk =   0.0120210
        k(    4) = (  -0.2727273   0.2727273  -0.2727273), wk =   0.0120210
        k(    5) = (  -0.3636364   0.3636364  -0.3636364), wk =   0.0120210
        k(    6) = (  -0.4545455   0.4545455  -0.4545455), wk =   0.0120210
        k(    7) = (   0.0000000   0.1818182   0.0000000), wk =   0.0090158
        k(    8) = (  -0.0909091   0.2727273  -0.0909091), wk =   0.0360631
        k(    9) = (  -0.1818182   0.3636364  -0.1818182), wk =   0.0360631
        k(   10) = (  -0.2727273   0.4545455  -0.2727273), wk =   0.0360631
        k(   11) = (  -0.3636364   0.5454545  -0.3636364), wk =   0.0360631
        k(   12) = (   0.5454545  -0.3636364   0.5454545), wk =   0.0360631
        k(   13) = (   0.4545455  -0.2727273   0.4545455), wk =   0.0360631
        k(   14) = (   0.3636364  -0.1818182   0.3636364), wk =   0.0360631
        k(   15) = (   0.2727273  -0.0909091   0.2727273), wk =   0.0360631
        k(   16) = (   0.1818182  -0.0000000   0.1818182), wk =   0.0180316
        k(   17) = (   0.0000000   0.3636364   0.0000000), wk =   0.0090158
        k(   18) = (  -0.0909091   0.4545455  -0.0909091), wk =   0.0360631
        k(   19) = (  -0.1818182   0.5454545  -0.1818182), wk =   0.0360631
        k(   20) = (  -0.2727273   0.6363636  -0.2727273), wk =   0.0360631
        k(   21) = (   0.6363636  -0.2727273   0.6363636), wk =   0.0360631
        k(   22) = (   0.5454545  -0.1818182   0.5454545), wk =   0.0360631
        k(   23) = (   0.4545455  -0.0909091   0.4545455), wk =   0.0360631
        k(   24) = (   0.3636364   0.0000000   0.3636364), wk =   0.0180316
        k(   25) = (   0.0000000   0.5454545   0.0000000), wk =   0.0090158
        k(   26) = (  -0.0909091   0.6363636  -0.0909091), wk =   0.0360631
        k(   27) = (  -0.1818182   0.7272727  -0.1818182), wk =   0.0360631
        k(   28) = (   0.7272727  -0.1818182   0.7272727), wk =   0.0360631
        k(   29) = (   0.6363636  -0.0909091   0.6363636), wk =   0.0360631
        k(   30) = (   0.5454545   0.0000000   0.5454545), wk =   0.0180316
        k(   31) = (   0.0000000   0.7272727   0.0000000), wk =   0.0090158
        k(   32) = (  -0.0909091   0.8181818  -0.0909091), wk =   0.0360631
        k(   33) = (   0.8181818  -0.0909091   0.8181818), wk =   0.0360631
        k(   34) = (   0.7272727   0.0000000   0.7272727), wk =   0.0180316
        k(   35) = (   0.0000000   0.9090909   0.0000000), wk =   0.0090158
        k(   36) = (   0.9090909  -0.0000000   0.9090909), wk =   0.0180316
        k(   37) = (  -0.1818182   0.3636364   0.0000000), wk =   0.0360631
        k(   38) = (  -0.2727273   0.4545455  -0.0909091), wk =   0.0721262
        k(   39) = (  -0.3636364   0.5454545  -0.1818182), wk =   0.0721262
        k(   40) = (   0.5454545  -0.3636364   0.7272727), wk =   0.0721262
        k(   41) = (  -0.1818182   0.5454545   0.0000000), wk =   0.0360631
        k(   42) = (  -0.2727273   0.6363636  -0.0909091), wk =   0.0721262
        k(   43) = (   0.6363636  -0.2727273   0.8181818), wk =   0.0721262
        k(   44) = (   0.5454545  -0.1818182   0.7272727), wk =   0.0721262
        k(   45) = (   0.4545455  -0.0909091   0.6363636), wk =   0.0721262
        k(   46) = (   0.3636364   0.0000000   0.5454545), wk =   0.0360631
        k(   47) = (  -0.1818182   0.7272727   0.0000000), wk =   0.0360631
        k(   48) = (   0.7272727  -0.1818182   0.9090909), wk =   0.0721262
        k(   49) = (   0.6363636  -0.0909091   0.8181818), wk =   0.0721262
        k(   50) = (   0.5454545   0.0000000   0.7272727), wk =   0.0360631
        k(   51) = (   0.8181818  -0.0909091   1.0000000), wk =   0.0360631
        k(   52) = (   0.7272727   0.0000000   0.9090909), wk =   0.0360631
        k(   53) = (   0.6363636  -0.2727273   1.0000000), wk =   0.0360631
        k(   54) = (   0.5454545  -0.1818182   0.9090909), wk =   0.0721262
        k(   55) = (   0.6363636  -0.0909091   1.0000000), wk =   0.0360631
        k(   56) = (   0.5454545   0.0000000   0.9090909), wk =   0.0360631

     Dense  grid:    10849 G-vectors     FFT dimensions: (  32,  32,  32)

     Estimated max dynamical RAM per process >      12.21 MB

     Estimated total dynamical RAM >      61.06 MB

     Initial potential from superposition of free atoms

     starting charge   10.99979, renormalised to   11.00000
     Starting wfcs are    9 randomized atomic wfcs +    1 random wfcs

     total cpu time spent up to now is        1.1 secs

     Self-consistent Calculation

     iteration #  1     ecut=   100.00 Ry     beta= 0.70
     Davidson diagonalization with overlap
     ethr =  1.00E-02,  avg # of iterations =  3.8

     Threshold (ethr) on eigenvalues was too large:
     Diagonalizing with lowered threshold

     Davidson diagonalization with overlap
     ethr =  6.86E-04,  avg # of iterations =  1.2

     total cpu time spent up to now is        2.6 secs

     total energy              =    -122.36565259 Ry
     Harris-Foulkes estimate   =    -122.42545307 Ry
     estimated scf accuracy    <       0.07521502 Ry

     iteration #  2     ecut=   100.00 Ry     beta= 0.70
     Davidson diagonalization with overlap
     ethr =  6.84E-04,  avg # of iterations =  2.1

     total cpu time spent up to now is        3.3 secs

     total energy              =    -122.36726431 Ry
     Harris-Foulkes estimate   =    -122.47285270 Ry
     estimated scf accuracy    <       0.27470538 Ry

     iteration #  3     ecut=   100.00 Ry     beta= 0.70
     Davidson diagonalization with overlap
     ethr =  6.84E-04,  avg # of iterations =  2.0

     total cpu time spent up to now is        4.0 secs

     total energy              =    -122.41053713 Ry
     Harris-Foulkes estimate   =    -122.41057782 Ry
     estimated scf accuracy    <       0.00010671 Ry

     iteration #  4     ecut=   100.00 Ry     beta= 0.70
     Davidson diagonalization with overlap
     ethr =  9.70E-07,  avg # of iterations =  2.6

     total cpu time spent up to now is        4.8 secs

     total energy              =    -122.41060929 Ry
     Harris-Foulkes estimate   =    -122.41061397 Ry
     estimated scf accuracy    <       0.00001361 Ry

     iteration #  5     ecut=   100.00 Ry     beta= 0.70
     Davidson diagonalization with overlap
     ethr =  1.24E-07,  avg # of iterations =  1.1

     total cpu time spent up to now is        5.4 secs

     total energy              =    -122.41061186 Ry
     Harris-Foulkes estimate   =    -122.41061205 Ry
     estimated scf accuracy    <       0.00000057 Ry

     iteration #  6     ecut=   100.00 Ry     beta= 0.70
     Davidson diagonalization with overlap
     ethr =  5.19E-09,  avg # of iterations =  1.4

     total cpu time spent up to now is        6.0 secs

     End of self-consistent calculation

          k = 0.0000 0.0000 0.0000 (  1363 PWs)   bands (ev):

     3.0494   9.4820   9.4820   9.4820  10.3161  10.3161  35.3880  37.7543
    37.7543  37.7543

          k =-0.0909 0.0909-0.0909 (  1363 PWs)   bands (ev):

     3.3492   9.4192   9.5371   9.5371  10.2960  10.2960  33.0610  36.0775
    36.9131  36.9131

          k =-0.1818 0.1818-0.1818 (  1342 PWs)   bands (ev):

     4.2189   9.2798   9.6347   9.6347  10.2986  10.2986  28.3265  35.6447
    35.8348  35.8348

          k =-0.2727 0.2727-0.2727 (  1351 PWs)   bands (ev):

     5.5250   9.2314   9.6245   9.6245  10.4551  10.4551  23.8061  34.9887
    35.0789  35.0789

          k =-0.3636 0.3636-0.3636 (  1350 PWs)   bands (ev):

     6.7982   9.5295   9.5295   9.7167  10.7009  10.7009  19.7932  34.2851
    34.6652  34.6652

          k =-0.4545 0.4545-0.4545 (  1356 PWs)   bands (ev):

     7.3351   9.4574   9.4574  10.8704  10.8704  11.0527  16.7713  33.8531
    34.5209  34.5209

          k = 0.0000 0.1818 0.0000 (  1343 PWs)   bands (ev):

     3.4486   9.3637   9.5779   9.5779  10.2101  10.3595  34.1607  34.9769
    34.9769  36.3871

          k =-0.0909 0.2727-0.0909 (  1346 PWs)   bands (ev):

     4.1277   9.2227   9.6808   9.6904  10.1361  10.4062  30.1031  33.5012
    34.2785  37.4719

          k =-0.1818 0.3636-0.1818 (  1344 PWs)   bands (ev):

     5.2979   9.0982   9.6402   9.7335  10.3103  10.5387  25.4736  32.5352
    33.6395  36.4617

          k =-0.2727 0.4545-0.2727 (  1345 PWs)   bands (ev):

     6.6401   9.2244   9.4942   9.6648  10.7488  10.7726  21.2565  32.1193
    32.9830  34.4598

          k =-0.3636 0.5455-0.3636 (  1350 PWs)   bands (ev):

     7.4109   9.3616   9.5767   9.8708  10.8902  11.6638  17.7438  31.9182
    32.3093  33.6498

          k = 0.5455-0.3636 0.5455 (  1353 PWs)   bands (ev):

     7.5404   9.3448   9.5397  10.1633  10.8625  12.3867  16.3647  30.8779
    33.1541  33.8043

          k = 0.4545-0.2727 0.4545 (  1348 PWs)   bands (ev):

     7.2543   9.4210   9.5799   9.6923  10.6600  11.4229  18.8069  30.3349
    34.5566  34.6565

          k = 0.3636-0.1818 0.3636 (  1355 PWs)   bands (ev):

     6.2181   9.1690   9.5506   9.6800  10.3642  10.8620  22.6103  30.3406
    35.8195  36.7362

          k = 0.2727-0.0909 0.2727 (  1359 PWs)   bands (ev):

     4.8652   9.1610   9.6483   9.7368  10.1492  10.5356  26.9853  30.8640
    37.2615  38.6197

          k = 0.1818-0.0000 0.1818 (  1357 PWs)   bands (ev):

     3.8395   9.3095   9.6210   9.6227  10.1905  10.3676  31.3859  32.2029
    37.3251  38.8567

          k = 0.0000 0.3636 0.0000 (  1343 PWs)   bands (ev):

     4.5976   9.0517   9.8534   9.8534   9.9598  10.4767  31.6863  31.6863
    32.4718  33.9234

          k =-0.0909 0.4545-0.0909 (  1344 PWs)   bands (ev):

     5.5616   8.8745   9.7021   9.9813  10.2467  10.5896  27.5364  30.4365
    32.0999  33.3417

          k =-0.1818 0.5455-0.1818 (  1341 PWs)   bands (ev):

     6.7896   8.7965   9.4759   9.9626  10.7832  10.9152  23.1970  29.8103
    30.2100  32.7818

          k =-0.2727 0.6364-0.2727 (  1342 PWs)   bands (ev):

     7.6880   8.9266   9.4033   9.8747  10.9142  12.1600  19.3433  28.3687
    29.8695  32.6379

          k = 0.6364-0.2727 0.6364 (  1352 PWs)   bands (ev):

     7.9458   9.0156   9.5697   9.8039  10.8712  13.8318  16.6334  26.9798
    30.6471  32.9004

          k = 0.5455-0.1818 0.5455 (  1346 PWs)   bands (ev):

     7.8747   9.1268   9.4104   9.7947  10.6483  12.8764  18.2595  26.1463
    32.1164  33.6368

          k = 0.4545-0.0909 0.4545 (  1341 PWs)   bands (ev):

     7.2224   9.0299   9.3327   9.8608  10.3184  11.6287  21.8814  25.9085
    34.1943  34.9065

          k = 0.3636 0.0000 0.3636 (  1350 PWs)   bands (ev):

     5.9754   9.0116   9.5388   9.9822   9.9915  10.9544  25.8035  26.5421
    36.6588  36.7651

          k = 0.0000 0.5455 0.0000 (  1343 PWs)   bands (ev):

     6.2395   8.6542   9.8747  10.2625  10.2625  10.6319  28.8904  28.8904
    29.5632  31.2269

          k =-0.0909 0.6364-0.0909 (  1344 PWs)   bands (ev):

     7.1046   8.5023   9.8258  10.3521  10.7888  10.9256  25.4721  27.1455
    27.9937  31.7271

          k =-0.1818 0.7273-0.1818 (  1339 PWs)   bands (ev):

     7.8009   8.4836   9.6644  10.2823  10.9342  12.4353  21.5349  25.0738
    27.8350  31.8407

          k = 0.7273-0.1818 0.7273 (  1341 PWs)   bands (ev):

     8.1880   8.5794   9.5144  10.1858  10.8984  14.6957  18.0961  23.5034
    28.4516  32.0740

          k = 0.6364-0.0909 0.6364 (  1339 PWs)   bands (ev):

     8.3682   8.7347   9.2897  10.1053  10.6884  14.8905  18.0190  22.5079
    29.7964  32.6380

          k = 0.5455 0.0000 0.5455 (  1336 PWs)   bands (ev):

     8.1216   9.0144   9.0211  10.0275  10.4271  12.9070  21.0494  22.5366
    31.7570  33.6046

          k = 0.0000 0.7273 0.0000 (  1347 PWs)   bands (ev):

     7.3997   8.2997  10.7005  10.7005  10.7762  10.9560  24.4622  26.8084
    26.8084  30.4542

          k =-0.0909 0.8182-0.0909 (  1341 PWs)   bands (ev):

     7.6601   8.2241  10.4734  10.6774  10.9470  12.6490  22.3239  24.0966
    26.3829  31.0859

          k = 0.8182-0.0909 0.8182 (  1343 PWs)   bands (ev):

     7.9420   8.2964  10.0783  10.5696  10.9462  14.9187  20.5237  20.9080
    26.7840  31.4660

          k = 0.7273 0.0000 0.7273 (  1346 PWs)   bands (ev):

     8.2664   8.4651   9.6127  10.3920  10.8043  17.1886  17.4746  20.4316
    27.9659  31.9138

          k = 0.0000 0.9091 0.0000 (  1338 PWs)   bands (ev):

     7.5907   8.0938  10.8629  10.9976  10.9976  13.3127  20.3693  25.6732
    25.6732  30.0897

          k = 0.9091-0.0000 0.9091 (  1344 PWs)   bands (ev):

     7.6875   8.1221  10.7254  10.8051  11.0128  14.4298  19.6452  23.5909
    25.8134  30.8869

          k =-0.1818 0.3636 0.0000 (  1350 PWs)   bands (ev):

     4.9600   9.0587   9.6775   9.8646  10.0879  10.5591  28.6568  29.2928
    35.5738  36.0508

          k =-0.2727 0.4545-0.0909 (  1352 PWs)   bands (ev):

     6.1938   8.9478   9.5050   9.9070  10.2977  10.9215  24.4247  28.3210
    33.3064  36.1953

          k =-0.3636 0.5455-0.1818 (  1345 PWs)   bands (ev):

     7.3546   9.0906   9.3366   9.8136  10.6442  11.6326  20.3800  28.1614
    31.2647  35.6446

          k = 0.5455-0.3636 0.7273 (  1342 PWs)   bands (ev):

     7.8003   9.1388   9.6032   9.7413  10.8345  13.0292  17.1439  28.5662
    29.7145  35.2828

          k =-0.1818 0.5455 0.0000 (  1339 PWs)   bands (ev):

     6.5437   8.7090   9.5549  10.2629  10.3469  10.9128  26.3716  26.9215
    30.0408  34.3110

          k =-0.2727 0.6364-0.0909 (  1340 PWs)   bands (ev):

     7.5626   8.6621   9.3563  10.2148  10.6824  11.8005  22.4534  26.3363
    27.8153  34.7521

          k = 0.6364-0.2727 0.8182 (  1346 PWs)   bands (ev):

     8.1233   8.7428   9.3034  10.0944  10.8558  13.5429  18.7907  25.9760
    26.6850  34.8831

          k = 0.5455-0.1818 0.7273 (  1348 PWs)   bands (ev):

     8.2814   8.7827   9.3270  10.0157  10.8117  14.9251  16.9828  24.7660
    27.5625  35.3976

          k = 0.4545-0.0909 0.6364 (  1348 PWs)   bands (ev):

     8.1214   8.9236   9.0842  10.0550  10.5956  13.0263  19.9451  24.1184
    29.0325  36.4267

          k = 0.3636 0.0000 0.5455 (  1350 PWs)   bands (ev):

     7.3245   8.8530   9.2600  10.1231  10.2915  11.6790  23.4755  24.4142
    30.9887  37.8955

          k =-0.1818 0.7273 0.0000 (  1342 PWs)   bands (ev):

     7.6328   8.3912   9.8666  10.6684  10.6984  11.9687  24.6390  24.7105
    25.2810  33.1595

          k = 0.7273-0.1818 0.9091 (  1345 PWs)   bands (ev):

     8.0170   8.4238   9.6848  10.4965  10.9060  13.8934  21.1472  22.8951
    25.0827  33.9543

          k = 0.6364-0.0909 0.8182 (  1344 PWs)   bands (ev):

     8.3251   8.5347   9.4291  10.3205  10.8824  16.4203  17.9050  21.5956
    25.8413  34.4862

          k = 0.5455 0.0000 0.7273 (  1338 PWs)   bands (ev):

     8.5533   8.6503   9.1069  10.2055  10.7146  15.0608  19.2086  21.3585
    27.1958  35.3630

          k = 0.8182-0.0909 1.0000 (  1343 PWs)   bands (ev):

     7.7782   8.2052  10.3618  10.7445  10.9974  14.2266  20.5788  23.6729
    24.2775  32.6047

          k = 0.7273 0.0000 0.9091 (  1342 PWs)   bands (ev):

     8.0099   8.3399   9.9351  10.5599  10.9950  15.9514  19.9309  20.7245
    24.6269  33.7000

          k = 0.6364-0.2727 1.0000 (  1349 PWs)   bands (ev):

     8.1864   8.6660   9.1419  10.3755  10.6966  13.3147  21.7458  22.9659
    25.7048  37.6765

          k = 0.5455-0.1818 0.9091 (  1347 PWs)   bands (ev):

     8.4604   8.7094   9.0740  10.2498  10.8702  15.5598  18.6655  23.0233
    24.1000  38.1436

          k = 0.6364-0.0909 1.0000 (  1342 PWs)   bands (ev):

     8.1992   8.5470   9.4628  10.4193  10.9964  15.9967  20.7867  21.2699
    22.2585  37.0482

          k = 0.5455 0.0000 0.9091 (  1346 PWs)   bands (ev):

     8.3619   8.7714   9.1315  10.2851  10.9950  18.1273  18.1589  20.7873
    22.6785  38.3892

     the Fermi energy is    12.5556 ev

!    total energy              =    -122.41061196 Ry
     Harris-Foulkes estimate   =    -122.41061196 Ry
     estimated scf accuracy    <          7.9E-10 Ry

     The total energy is the sum of the following terms:

     one-electron contribution =     -27.59779432 Ry
     hartree contribution      =      30.52285247 Ry
     xc contribution           =     -44.11030924 Ry
     ewald contribution        =     -81.22522855 Ry
     smearing contrib. (-TS)   =      -0.00013233 Ry

     convergence has been achieved in   6 iterations

     Forces acting on atoms (cartesian axes, Ry/au):

     atom    1 type  1   force =     0.00000000    0.00000000    0.00000000

     Total force =     0.000000     Total SCF correction =     0.000000


     Computing stress (Cartesian axis) and pressure

          total   stress  (Ry/bohr**3)                   (kbar)     P=  -57.62
  -0.00039170  -0.00000000  -0.00000000        -57.62     -0.00     -0.00
  -0.00000000  -0.00039170   0.00000000         -0.00    -57.62      0.00
  -0.00000000   0.00000000  -0.00039170         -0.00      0.00    -57.62


     Writing output data file Cu.save/

     init_run     :      0.41s CPU      0.44s WALL (       1 calls)
     electrons    :      4.54s CPU      4.88s WALL (       1 calls)
     forces       :      0.16s CPU      0.16s WALL (       1 calls)
     stress       :      0.36s CPU      0.36s WALL (       1 calls)

     Called by init_run:
     wfcinit      :      0.19s CPU      0.21s WALL (       1 calls)
     potinit      :      0.01s CPU      0.01s WALL (       1 calls)
     hinit0       :      0.19s CPU      0.19s WALL (       1 calls)

     Called by electrons:
     c_bands      :      3.65s CPU      3.92s WALL (       7 calls)
     sum_band     :      0.76s CPU      0.81s WALL (       7 calls)
     v_of_rho     :      0.05s CPU      0.05s WALL (       7 calls)
     newd         :      0.07s CPU      0.07s WALL (       7 calls)
     mix_rho      :      0.00s CPU      0.00s WALL (       7 calls)

     Called by c_bands:
     init_us_2    :      0.14s CPU      0.15s WALL (     952 calls)
     cegterg      :      3.45s CPU      3.72s WALL (     392 calls)

     Called by sum_band:
     sum_band:bec :      0.00s CPU      0.00s WALL (     392 calls)
     addusdens    :      0.07s CPU      0.08s WALL (       7 calls)

     Called by *egterg:
     h_psi        :      2.82s CPU      3.06s WALL (    1239 calls)
     s_psi        :      0.10s CPU      0.10s WALL (    1239 calls)
     g_psi        :      0.01s CPU      0.01s WALL (     791 calls)
     cdiaghg      :      0.22s CPU      0.23s WALL (    1127 calls)

     Called by h_psi:
     h_psi:pot    :      2.81s CPU      3.05s WALL (    1239 calls)
     h_psi:calbec :      0.15s CPU      0.17s WALL (    1239 calls)
     vloc_psi     :      2.54s CPU      2.77s WALL (    1239 calls)
     add_vuspsi   :      0.10s CPU      0.11s WALL (    1239 calls)

     General routines
     calbec       :      0.39s CPU      0.40s WALL (    1911 calls)
     fft          :      0.02s CPU      0.03s WALL (     104 calls)
     ffts         :      0.00s CPU      0.00s WALL (       7 calls)
     fftw         :      2.86s CPU      3.10s WALL (   23794 calls)

     Parallel routines
     fft_scatt_xy :      0.28s CPU      0.30s WALL (   23905 calls)
     fft_scatt_yz :      0.92s CPU      1.00s WALL (   23905 calls)

     PWSCF        :     6.23s CPU         6.68s WALL


   This run was terminated on:  23: 6:31  25Mar2024            

=------------------------------------------------------------------------------=
   JOB DONE.
=------------------------------------------------------------------------------=
