
     Program PWSCF v.6.3MaX starts on 25Mar2024 at 23:17: 6 

     This program is part of the open-source Quantum ESPRESSO suite
     for quantum simulation of materials; please cite
         "P. Giannozzi et al., J. Phys.:Condens. Matter 21 395502 (2009);
         "P. Giannozzi et al., J. Phys.:Condens. Matter 29 465901 (2017);
          URL http://www.quantum-espresso.org", 
     in publications or presentations arising from this work. More details at
     http://www.quantum-espresso.org/quote

     Parallel version (MPI), running on     5 processors

     MPI processes distributed on     1 nodes
     R & G space division:  proc/nbgrp/npool/nimage =       5
     Waiting for input...
     Reading input from standard input

     Current dimensions of program PWSCF are:
     Max number of different atomic species (ntypx) = 10
     Max number of k-points (npk) =  40000
     Max angular momentum in pseudopotentials (lmaxx) =  3
               file Cu.pbesol-dn-kjpaw_psl.1.0.0.UPF: wavefunction(s)  4S 3D renormalized

     Subspace diagonalization in iterative solution of the eigenvalue problem:
     a serial algorithm will be used


     Parallelization info
     --------------------
     sticks:   dense  smooth     PW     G-vecs:    dense   smooth      PW
     Min          39      39     14                  361      361      82
     Max          40      40     15                  363      363      83
     Sum         199     199     73                 1807     1807     411



     bravais-lattice index     =            2
     lattice parameter (alat)  =       6.8300  a.u.
     unit-cell volume          =      79.6530 (a.u.)^3
     number of atoms/cell      =            1
     number of atomic types    =            1
     number of electrons       =        11.00
     number of Kohn-Sham states=           10
     kinetic-energy cutoff     =      30.0000  Ry
     charge density cutoff     =     120.0000  Ry
     convergence threshold     =      1.0E-08
     mixing beta               =       0.7000
     number of iterations used =            8  plain     mixing
     Exchange-correlation      = SLA PW PSX PSC ( 1  4 10  8 0 0)

     celldm(1)=   6.830000  celldm(2)=   0.000000  celldm(3)=   0.000000
     celldm(4)=   0.000000  celldm(5)=   0.000000  celldm(6)=   0.000000

     crystal axes: (cart. coord. in units of alat)
               a(1) = (  -0.500000   0.000000   0.500000 )  
               a(2) = (   0.000000   0.500000   0.500000 )  
               a(3) = (  -0.500000   0.500000   0.000000 )  

     reciprocal axes: (cart. coord. in units 2 pi/alat)
               b(1) = ( -1.000000 -1.000000  1.000000 )  
               b(2) = (  1.000000  1.000000  1.000000 )  
               b(3) = ( -1.000000  1.000000 -1.000000 )  


     PseudoPot. # 1 for Cu read from file:
     /home/lorenzo/pseudos/Cu/Cu.pbesol-dn-kjpaw_psl.1.0.0.UPF
     MD5 check sum: 1e9735a74797514c934643dbd229f231
     Pseudo is Projector augmented-wave + core cor, Zval = 11.0
     Generated using "atomic" code by A. Dal Corso v.6.3
     Shape of augmentation charge: PSQ
     Using radial grid of 1199 points,  6 beta functions with: 
                l(1) =   0
                l(2) =   0
                l(3) =   1
                l(4) =   1
                l(5) =   2
                l(6) =   2
     Q(r) pseudized with 0 coefficients 


     atomic species   valence    mass     pseudopotential
        Cu            11.00    63.54600     Cu( 1.00)

     48 Sym. Ops., with inversion, found



   Cartesian axes

     site n.     atom                  positions (alat units)
         1           Cu  tau(   1) = (   0.0000000   0.0000000   0.0000000  )

     number of k points=    29  gaussian smearing, width (Ry)=  0.0100
                       cart. coord. in units 2pi/alat
        k(    1) = (   0.0000000   0.0000000   0.0000000), wk =   0.0039062
        k(    2) = (  -0.1250000   0.1250000  -0.1250000), wk =   0.0312500
        k(    3) = (  -0.2500000   0.2500000  -0.2500000), wk =   0.0312500
        k(    4) = (  -0.3750000   0.3750000  -0.3750000), wk =   0.0312500
        k(    5) = (   0.5000000  -0.5000000   0.5000000), wk =   0.0156250
        k(    6) = (   0.0000000   0.2500000   0.0000000), wk =   0.0234375
        k(    7) = (  -0.1250000   0.3750000  -0.1250000), wk =   0.0937500
        k(    8) = (  -0.2500000   0.5000000  -0.2500000), wk =   0.0937500
        k(    9) = (   0.6250000  -0.3750000   0.6250000), wk =   0.0937500
        k(   10) = (   0.5000000  -0.2500000   0.5000000), wk =   0.0937500
        k(   11) = (   0.3750000  -0.1250000   0.3750000), wk =   0.0937500
        k(   12) = (   0.2500000   0.0000000   0.2500000), wk =   0.0468750
        k(   13) = (   0.0000000   0.5000000   0.0000000), wk =   0.0234375
        k(   14) = (  -0.1250000   0.6250000  -0.1250000), wk =   0.0937500
        k(   15) = (   0.7500000  -0.2500000   0.7500000), wk =   0.0937500
        k(   16) = (   0.6250000  -0.1250000   0.6250000), wk =   0.0937500
        k(   17) = (   0.5000000   0.0000000   0.5000000), wk =   0.0468750
        k(   18) = (   0.0000000   0.7500000   0.0000000), wk =   0.0234375
        k(   19) = (   0.8750000  -0.1250000   0.8750000), wk =   0.0937500
        k(   20) = (   0.7500000   0.0000000   0.7500000), wk =   0.0468750
        k(   21) = (   0.0000000  -1.0000000   0.0000000), wk =   0.0117188
        k(   22) = (  -0.2500000   0.5000000   0.0000000), wk =   0.0937500
        k(   23) = (   0.6250000  -0.3750000   0.8750000), wk =   0.1875000
        k(   24) = (   0.5000000  -0.2500000   0.7500000), wk =   0.0937500
        k(   25) = (   0.7500000  -0.2500000   1.0000000), wk =   0.0937500
        k(   26) = (   0.6250000  -0.1250000   0.8750000), wk =   0.1875000
        k(   27) = (   0.5000000   0.0000000   0.7500000), wk =   0.0937500
        k(   28) = (  -0.2500000  -1.0000000   0.0000000), wk =   0.0468750
        k(   29) = (  -0.5000000  -1.0000000   0.0000000), wk =   0.0234375

     Dense  grid:     1807 G-vectors     FFT dimensions: (  18,  18,  18)

     Estimated max dynamical RAM per process >       2.52 MB

     Estimated total dynamical RAM >      12.62 MB

     Check: negative/imaginary core charge=   -0.000038    0.000000

     Initial potential from superposition of free atoms

     starting charge   10.99979, renormalised to   11.00000
     Starting wfcs are    9 randomized atomic wfcs +    1 random wfcs
     Checking if some PAW data can be deallocated... 

     total cpu time spent up to now is        1.0 secs

     Self-consistent Calculation

     iteration #  1     ecut=    30.00 Ry     beta= 0.70
     Davidson diagonalization with overlap
     ethr =  1.00E-02,  avg # of iterations =  3.5

     Threshold (ethr) on eigenvalues was too large:
     Diagonalizing with lowered threshold

     Davidson diagonalization with overlap
     ethr =  7.77E-04,  avg # of iterations =  1.3

     total cpu time spent up to now is        1.4 secs

     total energy              =    -210.35064782 Ry
     Harris-Foulkes estimate   =    -210.41938289 Ry
     estimated scf accuracy    <       0.08533037 Ry

     iteration #  2     ecut=    30.00 Ry     beta= 0.70
     Davidson diagonalization with overlap
     ethr =  7.76E-04,  avg # of iterations =  2.0

     total cpu time spent up to now is        1.7 secs

     total energy              =    -210.35744017 Ry
     Harris-Foulkes estimate   =    -210.47168517 Ry
     estimated scf accuracy    <       0.29043494 Ry

     iteration #  3     ecut=    30.00 Ry     beta= 0.70
     Davidson diagonalization with overlap
     ethr =  7.76E-04,  avg # of iterations =  2.1

     total cpu time spent up to now is        1.9 secs

     total energy              =    -210.40241513 Ry
     Harris-Foulkes estimate   =    -210.40258482 Ry
     estimated scf accuracy    <       0.00036058 Ry

     iteration #  4     ecut=    30.00 Ry     beta= 0.70
     Davidson diagonalization with overlap
     ethr =  3.28E-06,  avg # of iterations =  2.2

     total cpu time spent up to now is        2.2 secs

     total energy              =    -210.40254769 Ry
     Harris-Foulkes estimate   =    -210.40255817 Ry
     estimated scf accuracy    <       0.00002979 Ry

     iteration #  5     ecut=    30.00 Ry     beta= 0.70
     Davidson diagonalization with overlap
     ethr =  2.71E-07,  avg # of iterations =  1.3

     total cpu time spent up to now is        2.4 secs

     total energy              =    -210.40255292 Ry
     Harris-Foulkes estimate   =    -210.40255296 Ry
     estimated scf accuracy    <       0.00000007 Ry

     iteration #  6     ecut=    30.00 Ry     beta= 0.70
     Davidson diagonalization with overlap
     ethr =  6.52E-10,  avg # of iterations =  3.0

     total cpu time spent up to now is        2.7 secs

     total energy              =    -210.40255302 Ry
     Harris-Foulkes estimate   =    -210.40255303 Ry
     estimated scf accuracy    <       0.00000001 Ry

     iteration #  7     ecut=    30.00 Ry     beta= 0.70
     Davidson diagonalization with overlap
     ethr =  1.13E-10,  avg # of iterations =  1.0

     total cpu time spent up to now is        2.9 secs

     End of self-consistent calculation

          k = 0.0000 0.0000 0.0000 (   229 PWs)   bands (ev):

     3.0551   9.4472   9.4472   9.4472  10.2827  10.2827  35.3920  37.7580
    37.7580  37.7580

          k =-0.1250 0.1250-0.1250 (   220 PWs)   bands (ev):

     3.6180   9.3319   9.5455   9.5455  10.2549  10.2549  31.4022  35.9292
    36.5960  36.5960

          k =-0.2500 0.2500-0.2500 (   217 PWs)   bands (ev):

     5.1776   9.1821   9.6049   9.6049  10.3697  10.3697  24.9668  35.2006
    35.3460  35.3460

          k =-0.3750 0.3750-0.3750 (   226 PWs)   bands (ev):

     6.8989   9.4796   9.4796   9.8290  10.6807  10.6807  19.3656  34.2185
    34.6871  34.6871

          k = 0.5000-0.5000 0.5000 (   228 PWs)   bands (ev):

     7.3559   9.4081   9.4081  10.8401  10.8401  11.4135  16.2296  33.7957
    34.5164  34.5164

          k = 0.0000 0.2500 0.0000 (   218 PWs)   bands (ev):

     3.8037   9.2302   9.6224   9.6224  10.0975  10.3743  33.6350  33.7982
    33.7982  35.5829

          k =-0.1250 0.3750-0.1250 (   221 PWs)   bands (ev):

     5.0328   9.0060   9.6575   9.7678  10.1566  10.4849  27.4242  31.9813
    33.4015  35.8356

          k =-0.2500 0.5000-0.2500 (   228 PWs)   bands (ev):

     6.8076   9.0398   9.4089   9.7054  10.7413  10.8914  21.4719  31.2438
    31.9970  33.6255

          k = 0.6250-0.3750 0.6250 (   226 PWs)   bands (ev):

     7.6162   9.2045   9.5986   9.7755  10.8562  12.5769  16.9152  29.9986
    31.7509  33.3438

          k = 0.5000-0.2500 0.5000 (   220 PWs)   bands (ev):

     7.5110   9.2845   9.6059   9.6282  10.6427  12.0292  18.1765  28.8452
    33.5690  34.1819

          k = 0.3750-0.1250 0.3750 (   217 PWs)   bands (ev):

     6.2445   9.0427   9.4931   9.7363  10.2197  10.9376  23.3866  28.7692
    36.0894  36.5894

          k = 0.2500 0.0000 0.2500 (   216 PWs)   bands (ev):

     4.5203   9.1488   9.6261   9.6996  10.0774  10.4595  29.3231  29.9933
    38.0964  39.1524

          k = 0.0000 0.5000 0.0000 (   218 PWs)   bands (ev):

     5.8206   8.7147   9.8079  10.1098  10.1098  10.5657  29.5850  29.5850
    30.9461  31.6854

          k =-0.1250 0.6250-0.1250 (   219 PWs)   bands (ev):

     7.1336   8.5217   9.6243  10.2062  10.7750  11.0435  24.4369  27.6762
    28.3791  32.1519

          k = 0.7500-0.2500 0.7500 (   223 PWs)   bands (ev):

     8.0074   8.5890   9.4536  10.0900  10.8885  13.3979  19.1826  25.0740
    28.5694  32.2139

          k = 0.6250-0.1250 0.6250 (   225 PWs)   bands (ev):

     8.2564   8.7754   9.2778   9.9883  10.6560  14.5909  17.7234  23.4747
    30.1747  32.8724

          k = 0.5000 0.0000 0.5000 (   218 PWs)   bands (ev):

     7.7256   8.9312   9.1446   9.9487  10.2727  12.1685  22.2245  23.4040
    32.9902  34.3160

          k = 0.0000 0.7500 0.0000 (   218 PWs)   bands (ev):

     7.4388   8.2243  10.7066  10.7066  10.7601  11.2130  23.9281  26.6292
    26.6292  30.5993

          k = 0.8750-0.1250 0.8750 (   221 PWs)   bands (ev):

     7.7387   8.1796  10.3441  10.6299  10.9265  13.7567  21.2526  22.7165
    26.3463  31.3888

          k = 0.7500 0.0000 0.7500 (   224 PWs)   bands (ev):

     8.1500   8.3828   9.6900  10.4060  10.7851  16.7811  18.2051  20.3254
    27.6201  31.9080

          k = 0.0000-1.0000 0.0000 (   222 PWs)   bands (ev):

     7.5652   8.0252  10.8421  10.9815  10.9815  13.9157  19.6204  25.5328
    25.5328  30.2367

          k =-0.2500 0.5000 0.0000 (   219 PWs)   bands (ev):

     6.4121   8.7957   9.4329  10.1216  10.1643  10.9699  25.8504  26.4828
    31.8170  36.5066

          k = 0.6250-0.3750 0.8750 (   223 PWs)   bands (ev):

     7.8085   8.8452   9.1608   9.9995  10.6163  12.3154  20.4839  25.9662
    28.8917  36.4707

          k = 0.5000-0.2500 0.7500 (   224 PWs)   bands (ev):

     8.1304   8.8384   9.3634   9.8956  10.7877  14.5631  16.7285  26.7260
    27.0370  36.1584

          k = 0.7500-0.2500 1.0000 (   218 PWs)   bands (ev):

     7.8445   8.4104   9.5921  10.5548  10.6988  12.6889  23.4215  24.1571
    24.5589  34.8610

          k = 0.6250-0.1250 0.8750 (   221 PWs)   bands (ev):

     8.2694   8.5326   9.3309  10.3016  10.8685  15.7968  18.8512  22.2730
    24.4921  35.8939

          k = 0.5000 0.0000 0.7500 (   223 PWs)   bands (ev):

     8.5064   8.7038   8.9444  10.1881  10.7011  14.9058  19.6564  21.6215
    26.2223  37.0070

          k =-0.2500-1.0000 0.0000 (   216 PWs)   bands (ev):

     7.8912   8.2518  10.0529  10.5886  10.9930  15.5388  19.9183  22.5099
    23.3868  34.3157

          k =-0.5000-1.0000 0.0000 (   224 PWs)   bands (ev):

     8.3132   8.9199   8.9199  10.2260  10.9855  18.6675  18.6675  20.8364
    21.2432  41.0117

     the Fermi energy is    12.4090 ev

!    total energy              =    -210.40255302 Ry
     Harris-Foulkes estimate   =    -210.40255302 Ry
     estimated scf accuracy    <          2.1E-10 Ry

     total all-electron energy =     -3307.281614 Ry

     The total energy is the sum of the following terms:

     one-electron contribution =     -27.97277757 Ry
     hartree contribution      =      30.48511555 Ry
     xc contribution           =     -44.09524534 Ry
     ewald contribution        =     -81.22522858 Ry
     one-center paw contrib.   =     -87.59402015 Ry
     smearing contrib. (-TS)   =      -0.00039694 Ry

     convergence has been achieved in   7 iterations

     Forces acting on atoms (cartesian axes, Ry/au):

     atom    1 type  1   force =     0.00000000    0.00000000    0.00000000

     Total force =     0.000000     Total SCF correction =     0.000000


     Computing stress (Cartesian axis) and pressure

          total   stress  (Ry/bohr**3)                   (kbar)     P= -293.89
  -0.00199782  -0.00000000  -0.00000000       -293.89     -0.00     -0.00
  -0.00000000  -0.00199782   0.00000000         -0.00   -293.89      0.00
  -0.00000000   0.00000000  -0.00199782         -0.00      0.00   -293.89


     Writing output data file Cu.save/

     init_run     :      0.25s CPU      0.27s WALL (       1 calls)
     electrons    :      1.67s CPU      1.87s WALL (       1 calls)
     forces       :      0.02s CPU      0.02s WALL (       1 calls)
     stress       :      0.04s CPU      0.04s WALL (       1 calls)

     Called by init_run:
     wfcinit      :      0.04s CPU      0.04s WALL (       1 calls)
     potinit      :      0.10s CPU      0.12s WALL (       1 calls)
     hinit0       :      0.09s CPU      0.09s WALL (       1 calls)

     Called by electrons:
     c_bands      :      0.79s CPU      0.86s WALL (       8 calls)
     sum_band     :      0.14s CPU      0.15s WALL (       8 calls)
     v_of_rho     :      0.01s CPU      0.01s WALL (       8 calls)
     newd         :      0.02s CPU      0.02s WALL (       8 calls)
     PAW_pot      :      0.81s CPU      0.93s WALL (       8 calls)
     mix_rho      :      0.00s CPU      0.00s WALL (       8 calls)

     Called by c_bands:
     init_us_2    :      0.02s CPU      0.02s WALL (     551 calls)
     cegterg      :      0.76s CPU      0.83s WALL (     232 calls)

     Called by sum_band:
     sum_band:bec :      0.00s CPU      0.00s WALL (     232 calls)
     addusdens    :      0.01s CPU      0.01s WALL (       8 calls)

     Called by *egterg:
     h_psi        :      0.56s CPU      0.61s WALL (     736 calls)
     s_psi        :      0.01s CPU      0.02s WALL (     736 calls)
     g_psi        :      0.00s CPU      0.00s WALL (     475 calls)
     cdiaghg      :      0.12s CPU      0.14s WALL (     678 calls)

     Called by h_psi:
     h_psi:pot    :      0.56s CPU      0.61s WALL (     736 calls)
     h_psi:calbec :      0.03s CPU      0.03s WALL (     736 calls)
     vloc_psi     :      0.52s CPU      0.56s WALL (     736 calls)
     add_vuspsi   :      0.01s CPU      0.02s WALL (     736 calls)

     General routines
     calbec       :      0.04s CPU      0.04s WALL (    1113 calls)
     fft          :      0.01s CPU      0.01s WALL (     115 calls)
     ffts         :      0.00s CPU      0.00s WALL (       8 calls)
     fftw         :      0.57s CPU      0.62s WALL (   13924 calls)

     Parallel routines
     fft_scatt_xy :      0.05s CPU      0.05s WALL (   14047 calls)
     fft_scatt_yz :      0.22s CPU      0.24s WALL (   14047 calls)

     PWSCF        :     2.74s CPU         3.01s WALL


   This run was terminated on:  23:17: 9  25Mar2024            

=------------------------------------------------------------------------------=
   JOB DONE.
=------------------------------------------------------------------------------=
