
     Program PWSCF v.6.3MaX starts on 25Mar2024 at 23:24:18 

     This program is part of the open-source Quantum ESPRESSO suite
     for quantum simulation of materials; please cite
         "P. Giannozzi et al., J. Phys.:Condens. Matter 21 395502 (2009);
         "P. Giannozzi et al., J. Phys.:Condens. Matter 29 465901 (2017);
          URL http://www.quantum-espresso.org", 
     in publications or presentations arising from this work. More details at
     http://www.quantum-espresso.org/quote

     Parallel version (MPI), running on     5 processors

     MPI processes distributed on     1 nodes
     R & G space division:  proc/nbgrp/npool/nimage =       5
     Waiting for input...
     Reading input from standard input

     Current dimensions of program PWSCF are:
     Max number of different atomic species (ntypx) = 10
     Max number of k-points (npk) =  40000
     Max angular momentum in pseudopotentials (lmaxx) =  3
               file Cu.pbe-dn-rrkjus_psl.1.0.0.UPF: wavefunction(s)  3D renormalized

     Subspace diagonalization in iterative solution of the eigenvalue problem:
     a serial algorithm will be used


     Parallelization info
     --------------------
     sticks:   dense  smooth     PW     G-vecs:    dense   smooth      PW
     Min          62      62     21                  765      765     144
     Max          63      63     22                  770      770     146
     Sum         313     313    109                 3839     3839     725



     bravais-lattice index     =            2
     lattice parameter (alat)  =       6.8300  a.u.
     unit-cell volume          =      79.6530 (a.u.)^3
     number of atoms/cell      =            1
     number of atomic types    =            1
     number of electrons       =        11.00
     number of Kohn-Sham states=           10
     kinetic-energy cutoff     =      50.0000  Ry
     charge density cutoff     =     200.0000  Ry
     convergence threshold     =      1.0E-08
     mixing beta               =       0.7000
     number of iterations used =            8  plain     mixing
     Exchange-correlation      = PBE ( 1  4  3  4 0 0)

     celldm(1)=   6.830000  celldm(2)=   0.000000  celldm(3)=   0.000000
     celldm(4)=   0.000000  celldm(5)=   0.000000  celldm(6)=   0.000000

     crystal axes: (cart. coord. in units of alat)
               a(1) = (  -0.500000   0.000000   0.500000 )  
               a(2) = (   0.000000   0.500000   0.500000 )  
               a(3) = (  -0.500000   0.500000   0.000000 )  

     reciprocal axes: (cart. coord. in units 2 pi/alat)
               b(1) = ( -1.000000 -1.000000  1.000000 )  
               b(2) = (  1.000000  1.000000  1.000000 )  
               b(3) = ( -1.000000  1.000000 -1.000000 )  


     PseudoPot. # 1 for Cu read from file:
     /home/lorenzo/pseudos/Cu/Cu.pbe-dn-rrkjus_psl.1.0.0.UPF
     MD5 check sum: ba3d6c84e19846e79d48cdc68ff7152b
     Pseudo is Ultrasoft + core correction, Zval = 11.0
     Generated using "atomic" code by A. Dal Corso v.6.3
     Using radial grid of 1199 points,  6 beta functions with: 
                l(1) =   0
                l(2) =   0
                l(3) =   1
                l(4) =   1
                l(5) =   2
                l(6) =   2
     Q(r) pseudized with 0 coefficients 


     atomic species   valence    mass     pseudopotential
        Cu            11.00    63.54600     Cu( 1.00)

     48 Sym. Ops., with inversion, found



   Cartesian axes

     site n.     atom                  positions (alat units)
         1           Cu  tau(   1) = (   0.0000000   0.0000000   0.0000000  )

     number of k points=     8  gaussian smearing, width (Ry)=  0.0100
                       cart. coord. in units 2pi/alat
        k(    1) = (   0.0000000   0.0000000   0.0000000), wk =   0.0312500
        k(    2) = (  -0.2500000   0.2500000  -0.2500000), wk =   0.2500000
        k(    3) = (   0.5000000  -0.5000000   0.5000000), wk =   0.1250000
        k(    4) = (   0.0000000   0.5000000   0.0000000), wk =   0.1875000
        k(    5) = (   0.7500000  -0.2500000   0.7500000), wk =   0.7500000
        k(    6) = (   0.5000000   0.0000000   0.5000000), wk =   0.3750000
        k(    7) = (   0.0000000  -1.0000000   0.0000000), wk =   0.0937500
        k(    8) = (  -0.5000000  -1.0000000   0.0000000), wk =   0.1875000

     Dense  grid:     3839 G-vectors     FFT dimensions: (  24,  24,  24)

     Estimated max dynamical RAM per process >       4.27 MB

     Estimated total dynamical RAM >      21.35 MB

     Check: negative/imaginary core charge=   -0.000002    0.000000

     Initial potential from superposition of free atoms

     starting charge   10.99977, renormalised to   11.00000
     Starting wfcs are    9 randomized atomic wfcs +    1 random wfcs

     total cpu time spent up to now is        0.8 secs

     Self-consistent Calculation

     iteration #  1     ecut=    50.00 Ry     beta= 0.70
     Davidson diagonalization with overlap
     ethr =  1.00E-02,  avg # of iterations =  3.4

     Threshold (ethr) on eigenvalues was too large:
     Diagonalizing with lowered threshold

     Davidson diagonalization with overlap
     ethr =  5.52E-04,  avg # of iterations =  1.5

     total cpu time spent up to now is        1.0 secs

     total energy              =    -122.69861482 Ry
     Harris-Foulkes estimate   =    -122.74609453 Ry
     estimated scf accuracy    <       0.06066246 Ry

     iteration #  2     ecut=    50.00 Ry     beta= 0.70
     Davidson diagonalization with overlap
     ethr =  5.51E-04,  avg # of iterations =  2.2

     total cpu time spent up to now is        1.1 secs

     total energy              =    -122.70022962 Ry
     Harris-Foulkes estimate   =    -122.78096690 Ry
     estimated scf accuracy    <       0.20614107 Ry

     iteration #  3     ecut=    50.00 Ry     beta= 0.70
     Davidson diagonalization with overlap
     ethr =  5.51E-04,  avg # of iterations =  2.0

     total cpu time spent up to now is        1.1 secs

     total energy              =    -122.73386323 Ry
     Harris-Foulkes estimate   =    -122.73386533 Ry
     estimated scf accuracy    <       0.00003994 Ry

     iteration #  4     ecut=    50.00 Ry     beta= 0.70
     Davidson diagonalization with overlap
     ethr =  3.63E-07,  avg # of iterations =  2.5

     total cpu time spent up to now is        1.2 secs

     total energy              =    -122.73390973 Ry
     Harris-Foulkes estimate   =    -122.73391193 Ry
     estimated scf accuracy    <       0.00000822 Ry

     iteration #  5     ecut=    50.00 Ry     beta= 0.70
     Davidson diagonalization with overlap
     ethr =  7.48E-08,  avg # of iterations =  1.2

     total cpu time spent up to now is        1.3 secs

     total energy              =    -122.73391127 Ry
     Harris-Foulkes estimate   =    -122.73391148 Ry
     estimated scf accuracy    <       0.00000070 Ry

     iteration #  6     ecut=    50.00 Ry     beta= 0.70
     Davidson diagonalization with overlap
     ethr =  6.40E-09,  avg # of iterations =  1.1

     total cpu time spent up to now is        1.3 secs

     End of self-consistent calculation

          k = 0.0000 0.0000 0.0000 (   531 PWs)   bands (ev):

     3.2734   9.6592   9.6592   9.6592  10.4866  10.4866  35.5971  37.9906
    37.9906  37.9906

          k =-0.2500 0.2500-0.2500 (   483 PWs)   bands (ev):

     5.3965   9.4013   9.8165   9.8165  10.5726  10.5726  25.1176  35.3793
    35.4746  35.4746

          k = 0.5000-0.5000 0.5000 (   476 PWs)   bands (ev):

     7.5805   9.6244   9.6244  11.0639  11.0639  11.6342  16.4240  34.0026
    34.7556  34.7556

          k = 0.0000 0.5000 0.0000 (   480 PWs)   bands (ev):

     6.0392   8.9363  10.0217  10.3275  10.3275  10.7620  29.7681  29.7681
    31.0571  31.7056

          k = 0.7500-0.2500 0.7500 (   472 PWs)   bands (ev):

     8.2300   8.8080   9.6758  10.3023  11.1049  13.6080  19.3737  25.2380
    28.7706  32.3162

          k = 0.5000 0.0000 0.5000 (   481 PWs)   bands (ev):

     7.9466   9.1488   9.3559  10.1593  10.4903  12.3746  22.3743  23.5778
    33.1443  34.4520

          k = 0.0000-1.0000 0.0000 (   468 PWs)   bands (ev):

     7.7832   8.2522  11.0429  11.2097  11.2097  14.1392  19.7762  25.7657
    25.7657  30.2562

          k =-0.5000-1.0000 0.0000 (   464 PWs)   bands (ev):

     8.5291   9.1438   9.1438  10.4456  11.2106  18.8648  18.8648  20.9775
    21.4573  41.0781

     the Fermi energy is    13.4414 ev

!    total energy              =    -122.73391136 Ry
     Harris-Foulkes estimate   =    -122.73391136 Ry
     estimated scf accuracy    <          1.8E-09 Ry

     The total energy is the sum of the following terms:

     one-electron contribution =     -27.48063162 Ry
     hartree contribution      =      30.59809847 Ry
     xc contribution           =     -44.62567723 Ry
     ewald contribution        =     -81.22522859 Ry
     smearing contrib. (-TS)   =      -0.00047239 Ry

     convergence has been achieved in   6 iterations

     Forces acting on atoms (cartesian axes, Ry/au):

     atom    1 type  1   force =     0.00000000    0.00000000    0.00000000

     Total force =     0.000000     Total SCF correction =     0.000000


     Computing stress (Cartesian axis) and pressure

          total   stress  (Ry/bohr**3)                   (kbar)     P=   31.29
   0.00021271  -0.00000000   0.00000000         31.29     -0.00      0.00
   0.00000000   0.00021271  -0.00000000          0.00     31.29     -0.00
   0.00000000  -0.00000000   0.00021271          0.00     -0.00     31.29


     Writing output data file Cu.save/

     init_run     :      0.16s CPU      0.16s WALL (       1 calls)
     electrons    :      0.44s CPU      0.47s WALL (       1 calls)
     forces       :      0.02s CPU      0.02s WALL (       1 calls)
     stress       :      0.07s CPU      0.07s WALL (       1 calls)

     Called by init_run:
     wfcinit      :      0.02s CPU      0.02s WALL (       1 calls)
     potinit      :      0.01s CPU      0.01s WALL (       1 calls)
     hinit0       :      0.13s CPU      0.13s WALL (       1 calls)

     Called by electrons:
     c_bands      :      0.30s CPU      0.32s WALL (       7 calls)
     sum_band     :      0.09s CPU      0.10s WALL (       7 calls)
     v_of_rho     :      0.02s CPU      0.02s WALL (       7 calls)
     newd         :      0.03s CPU      0.03s WALL (       7 calls)
     mix_rho      :      0.00s CPU      0.00s WALL (       7 calls)

     Called by c_bands:
     init_us_2    :      0.01s CPU      0.01s WALL (     136 calls)
     cegterg      :      0.29s CPU      0.31s WALL (      56 calls)

     Called by sum_band:
     sum_band:bec :      0.00s CPU      0.00s WALL (      56 calls)
     addusdens    :      0.03s CPU      0.03s WALL (       7 calls)

     Called by *egterg:
     h_psi        :      0.24s CPU      0.25s WALL (     176 calls)
     s_psi        :      0.01s CPU      0.01s WALL (     176 calls)
     g_psi        :      0.00s CPU      0.00s WALL (     112 calls)
     cdiaghg      :      0.03s CPU      0.03s WALL (     160 calls)

     Called by h_psi:
     h_psi:pot    :      0.23s CPU      0.25s WALL (     176 calls)
     h_psi:calbec :      0.01s CPU      0.01s WALL (     176 calls)
     vloc_psi     :      0.21s CPU      0.23s WALL (     176 calls)
     add_vuspsi   :      0.01s CPU      0.01s WALL (     176 calls)

     General routines
     calbec       :      0.02s CPU      0.02s WALL (     272 calls)
     fft          :      0.02s CPU      0.02s WALL (     104 calls)
     ffts         :      0.00s CPU      0.00s WALL (       7 calls)
     fftw         :      0.24s CPU      0.25s WALL (    3382 calls)

     Parallel routines
     fft_scatt_xy :      0.02s CPU      0.02s WALL (    3493 calls)
     fft_scatt_yz :      0.07s CPU      0.08s WALL (    3493 calls)

     PWSCF        :     1.37s CPU         1.45s WALL


   This run was terminated on:  23:24:20  25Mar2024            

=------------------------------------------------------------------------------=
   JOB DONE.
=------------------------------------------------------------------------------=
