
     Program PWSCF v.6.3MaX starts on 25Mar2024 at 23:17:40 

     This program is part of the open-source Quantum ESPRESSO suite
     for quantum simulation of materials; please cite
         "P. Giannozzi et al., J. Phys.:Condens. Matter 21 395502 (2009);
         "P. Giannozzi et al., J. Phys.:Condens. Matter 29 465901 (2017);
          URL http://www.quantum-espresso.org", 
     in publications or presentations arising from this work. More details at
     http://www.quantum-espresso.org/quote

     Parallel version (MPI), running on     5 processors

     MPI processes distributed on     1 nodes
     R & G space division:  proc/nbgrp/npool/nimage =       5
     Waiting for input...
     Reading input from standard input

     Current dimensions of program PWSCF are:
     Max number of different atomic species (ntypx) = 10
     Max number of k-points (npk) =  40000
     Max angular momentum in pseudopotentials (lmaxx) =  3
               file Cu.pbe-dn-rrkjus_psl.1.0.0.UPF: wavefunction(s)  3D renormalized

     Subspace diagonalization in iterative solution of the eigenvalue problem:
     a serial algorithm will be used


     Parallelization info
     --------------------
     sticks:   dense  smooth     PW     G-vecs:    dense   smooth      PW
     Min          43      43     17                  445      445     106
     Max          45      45     17                  446      446     107
     Sum         223     223     85                 2229     2229     531



     bravais-lattice index     =            2
     lattice parameter (alat)  =       6.8300  a.u.
     unit-cell volume          =      79.6530 (a.u.)^3
     number of atoms/cell      =            1
     number of atomic types    =            1
     number of electrons       =        11.00
     number of Kohn-Sham states=           10
     kinetic-energy cutoff     =      35.0000  Ry
     charge density cutoff     =     140.0000  Ry
     convergence threshold     =      1.0E-08
     mixing beta               =       0.7000
     number of iterations used =            8  plain     mixing
     Exchange-correlation      = PBE ( 1  4  3  4 0 0)

     celldm(1)=   6.830000  celldm(2)=   0.000000  celldm(3)=   0.000000
     celldm(4)=   0.000000  celldm(5)=   0.000000  celldm(6)=   0.000000

     crystal axes: (cart. coord. in units of alat)
               a(1) = (  -0.500000   0.000000   0.500000 )  
               a(2) = (   0.000000   0.500000   0.500000 )  
               a(3) = (  -0.500000   0.500000   0.000000 )  

     reciprocal axes: (cart. coord. in units 2 pi/alat)
               b(1) = ( -1.000000 -1.000000  1.000000 )  
               b(2) = (  1.000000  1.000000  1.000000 )  
               b(3) = ( -1.000000  1.000000 -1.000000 )  


     PseudoPot. # 1 for Cu read from file:
     /home/lorenzo/pseudos/Cu/Cu.pbe-dn-rrkjus_psl.1.0.0.UPF
     MD5 check sum: ba3d6c84e19846e79d48cdc68ff7152b
     Pseudo is Ultrasoft + core correction, Zval = 11.0
     Generated using "atomic" code by A. Dal Corso v.6.3
     Using radial grid of 1199 points,  6 beta functions with: 
                l(1) =   0
                l(2) =   0
                l(3) =   1
                l(4) =   1
                l(5) =   2
                l(6) =   2
     Q(r) pseudized with 0 coefficients 


     atomic species   valence    mass     pseudopotential
        Cu            11.00    63.54600     Cu( 1.00)

     48 Sym. Ops., with inversion, found



   Cartesian axes

     site n.     atom                  positions (alat units)
         1           Cu  tau(   1) = (   0.0000000   0.0000000   0.0000000  )

     number of k points=    56  gaussian smearing, width (Ry)=  0.0100
                       cart. coord. in units 2pi/alat
        k(    1) = (   0.0000000   0.0000000   0.0000000), wk =   0.0015026
        k(    2) = (  -0.0909091   0.0909091  -0.0909091), wk =   0.0120210
        k(    3) = (  -0.1818182   0.1818182  -0.1818182), wk =   0.0120210
        k(    4) = (  -0.2727273   0.2727273  -0.2727273), wk =   0.0120210
        k(    5) = (  -0.3636364   0.3636364  -0.3636364), wk =   0.0120210
        k(    6) = (  -0.4545455   0.4545455  -0.4545455), wk =   0.0120210
        k(    7) = (   0.0000000   0.1818182   0.0000000), wk =   0.0090158
        k(    8) = (  -0.0909091   0.2727273  -0.0909091), wk =   0.0360631
        k(    9) = (  -0.1818182   0.3636364  -0.1818182), wk =   0.0360631
        k(   10) = (  -0.2727273   0.4545455  -0.2727273), wk =   0.0360631
        k(   11) = (  -0.3636364   0.5454545  -0.3636364), wk =   0.0360631
        k(   12) = (   0.5454545  -0.3636364   0.5454545), wk =   0.0360631
        k(   13) = (   0.4545455  -0.2727273   0.4545455), wk =   0.0360631
        k(   14) = (   0.3636364  -0.1818182   0.3636364), wk =   0.0360631
        k(   15) = (   0.2727273  -0.0909091   0.2727273), wk =   0.0360631
        k(   16) = (   0.1818182  -0.0000000   0.1818182), wk =   0.0180316
        k(   17) = (   0.0000000   0.3636364   0.0000000), wk =   0.0090158
        k(   18) = (  -0.0909091   0.4545455  -0.0909091), wk =   0.0360631
        k(   19) = (  -0.1818182   0.5454545  -0.1818182), wk =   0.0360631
        k(   20) = (  -0.2727273   0.6363636  -0.2727273), wk =   0.0360631
        k(   21) = (   0.6363636  -0.2727273   0.6363636), wk =   0.0360631
        k(   22) = (   0.5454545  -0.1818182   0.5454545), wk =   0.0360631
        k(   23) = (   0.4545455  -0.0909091   0.4545455), wk =   0.0360631
        k(   24) = (   0.3636364   0.0000000   0.3636364), wk =   0.0180316
        k(   25) = (   0.0000000   0.5454545   0.0000000), wk =   0.0090158
        k(   26) = (  -0.0909091   0.6363636  -0.0909091), wk =   0.0360631
        k(   27) = (  -0.1818182   0.7272727  -0.1818182), wk =   0.0360631
        k(   28) = (   0.7272727  -0.1818182   0.7272727), wk =   0.0360631
        k(   29) = (   0.6363636  -0.0909091   0.6363636), wk =   0.0360631
        k(   30) = (   0.5454545   0.0000000   0.5454545), wk =   0.0180316
        k(   31) = (   0.0000000   0.7272727   0.0000000), wk =   0.0090158
        k(   32) = (  -0.0909091   0.8181818  -0.0909091), wk =   0.0360631
        k(   33) = (   0.8181818  -0.0909091   0.8181818), wk =   0.0360631
        k(   34) = (   0.7272727   0.0000000   0.7272727), wk =   0.0180316
        k(   35) = (   0.0000000   0.9090909   0.0000000), wk =   0.0090158
        k(   36) = (   0.9090909  -0.0000000   0.9090909), wk =   0.0180316
        k(   37) = (  -0.1818182   0.3636364   0.0000000), wk =   0.0360631
        k(   38) = (  -0.2727273   0.4545455  -0.0909091), wk =   0.0721262
        k(   39) = (  -0.3636364   0.5454545  -0.1818182), wk =   0.0721262
        k(   40) = (   0.5454545  -0.3636364   0.7272727), wk =   0.0721262
        k(   41) = (  -0.1818182   0.5454545   0.0000000), wk =   0.0360631
        k(   42) = (  -0.2727273   0.6363636  -0.0909091), wk =   0.0721262
        k(   43) = (   0.6363636  -0.2727273   0.8181818), wk =   0.0721262
        k(   44) = (   0.5454545  -0.1818182   0.7272727), wk =   0.0721262
        k(   45) = (   0.4545455  -0.0909091   0.6363636), wk =   0.0721262
        k(   46) = (   0.3636364   0.0000000   0.5454545), wk =   0.0360631
        k(   47) = (  -0.1818182   0.7272727   0.0000000), wk =   0.0360631
        k(   48) = (   0.7272727  -0.1818182   0.9090909), wk =   0.0721262
        k(   49) = (   0.6363636  -0.0909091   0.8181818), wk =   0.0721262
        k(   50) = (   0.5454545   0.0000000   0.7272727), wk =   0.0360631
        k(   51) = (   0.8181818  -0.0909091   1.0000000), wk =   0.0360631
        k(   52) = (   0.7272727   0.0000000   0.9090909), wk =   0.0360631
        k(   53) = (   0.6363636  -0.2727273   1.0000000), wk =   0.0360631
        k(   54) = (   0.5454545  -0.1818182   0.9090909), wk =   0.0721262
        k(   55) = (   0.6363636  -0.0909091   1.0000000), wk =   0.0360631
        k(   56) = (   0.5454545   0.0000000   0.9090909), wk =   0.0360631

     Dense  grid:     2229 G-vectors     FFT dimensions: (  20,  20,  20)

     Estimated max dynamical RAM per process >       3.19 MB

     Estimated total dynamical RAM >      15.93 MB

     Check: negative/imaginary core charge=   -0.000002    0.000000

     Initial potential from superposition of free atoms

     starting charge   10.99977, renormalised to   11.00000
     Starting wfcs are    9 randomized atomic wfcs +    1 random wfcs

     total cpu time spent up to now is        1.2 secs

     Self-consistent Calculation

     iteration #  1     ecut=    35.00 Ry     beta= 0.70
     Davidson diagonalization with overlap
     ethr =  1.00E-02,  avg # of iterations =  3.8

     Threshold (ethr) on eigenvalues was too large:
     Diagonalizing with lowered threshold

     Davidson diagonalization with overlap
     ethr =  5.44E-04,  avg # of iterations =  1.0

     total cpu time spent up to now is        1.7 secs

     total energy              =    -122.70791597 Ry
     Harris-Foulkes estimate   =    -122.75432601 Ry
     estimated scf accuracy    <       0.05959044 Ry

     iteration #  2     ecut=    35.00 Ry     beta= 0.70
     Davidson diagonalization with overlap
     ethr =  5.42E-04,  avg # of iterations =  2.0

     total cpu time spent up to now is        2.1 secs

     total energy              =    -122.70900603 Ry
     Harris-Foulkes estimate   =    -122.78984962 Ry
     estimated scf accuracy    <       0.20835863 Ry

     iteration #  3     ecut=    35.00 Ry     beta= 0.70
     Davidson diagonalization with overlap
     ethr =  5.42E-04,  avg # of iterations =  2.0

     total cpu time spent up to now is        2.5 secs

     total energy              =    -122.74259711 Ry
     Harris-Foulkes estimate   =    -122.74260695 Ry
     estimated scf accuracy    <       0.00005321 Ry

     iteration #  4     ecut=    35.00 Ry     beta= 0.70
     Davidson diagonalization with overlap
     ethr =  4.84E-07,  avg # of iterations =  2.5

     total cpu time spent up to now is        3.0 secs

     total energy              =    -122.74263650 Ry
     Harris-Foulkes estimate   =    -122.74264043 Ry
     estimated scf accuracy    <       0.00001114 Ry

     iteration #  5     ecut=    35.00 Ry     beta= 0.70
     Davidson diagonalization with overlap
     ethr =  1.01E-07,  avg # of iterations =  1.3

     total cpu time spent up to now is        3.2 secs

     total energy              =    -122.74263882 Ry
     Harris-Foulkes estimate   =    -122.74263916 Ry
     estimated scf accuracy    <       0.00000098 Ry

     iteration #  6     ecut=    35.00 Ry     beta= 0.70
     Davidson diagonalization with overlap
     ethr =  8.94E-09,  avg # of iterations =  1.1

     total cpu time spent up to now is        3.5 secs

     End of self-consistent calculation

          k = 0.0000 0.0000 0.0000 (   283 PWs)   bands (ev):

     3.2780   9.6964   9.6964   9.6964  10.5232  10.5232  35.5994  37.9956
    37.9956  37.9956

          k =-0.0909 0.0909-0.0909 (   280 PWs)   bands (ev):

     3.5778   9.6339   9.7513   9.7513  10.5038  10.5038  33.3159  36.2981
    37.1841  37.1841

          k =-0.1818 0.1818-0.1818 (   283 PWs)   bands (ev):

     4.4477   9.4950   9.8482   9.8482  10.5066  10.5066  28.5756  35.8630
    36.1132  36.1132

          k =-0.2727 0.2727-0.2727 (   286 PWs)   bands (ev):

     5.7541   9.4480   9.8368   9.8368  10.6627  10.6627  24.0519  35.2068
    35.3509  35.3509

          k =-0.3636 0.3636-0.3636 (   281 PWs)   bands (ev):

     7.0255   9.7413   9.7413   9.9374  10.9081  10.9081  20.0315  34.4986
    34.9305  34.9305

          k =-0.4545 0.4545-0.4545 (   269 PWs)   bands (ev):

     7.5591   9.6692   9.6692  11.0785  11.0785  11.2807  17.0019  34.0631
    34.7779  34.7779

          k = 0.0000 0.1818 0.0000 (   283 PWs)   bands (ev):

     3.6773   9.5785   9.7920   9.7920  10.4181  10.5665  34.4077  35.2493
    35.2493  36.6196

          k =-0.0909 0.2727-0.0909 (   285 PWs)   bands (ev):

     4.3565   9.4380   9.8942   9.9037  10.3443  10.6136  30.3583  33.7676
    34.5237  37.7220

          k =-0.1818 0.3636-0.1818 (   288 PWs)   bands (ev):

     5.5269   9.3142   9.8521   9.9458  10.5194  10.7457  25.7176  32.8001
    33.8815  36.7268

          k =-0.2727 0.4545-0.2727 (   281 PWs)   bands (ev):

     6.8681   9.4416   9.7062   9.8766  10.9556  10.9833  21.4952  32.3852
    33.2254  34.7204

          k =-0.3636 0.5455-0.3636 (   275 PWs)   bands (ev):

     7.6352   9.5734   9.7881  10.0881  11.0980  11.8809  17.9767  32.1667
    32.5729  33.8947

          k = 0.5455-0.3636 0.5455 (   271 PWs)   bands (ev):

     7.7634   9.5568   9.7510  10.3789  11.0707  12.6097  16.5941  31.1288
    33.4207  34.0382

          k = 0.4545-0.2727 0.4545 (   277 PWs)   bands (ev):

     7.4798   9.6330   9.7911   9.9108  10.8679  11.6359  19.0424  30.5864
    34.7848  34.9276

          k = 0.3636-0.1818 0.3636 (   283 PWs)   bands (ev):

     6.4469   9.3858   9.7627   9.8914  10.5727  11.0707  22.8521  30.5910
    36.0471  37.0081

          k = 0.2727-0.0909 0.2727 (   284 PWs)   bands (ev):

     5.0942   9.3766   9.8612   9.9496  10.3574  10.7431  27.2323  31.1168
    37.4904  38.9078

          k = 0.1818-0.0000 0.1818 (   285 PWs)   bands (ev):

     4.0683   9.5245   9.8348   9.8364  10.3984  10.5749  31.6401  32.4560
    37.5514  39.1071

          k = 0.0000 0.3636 0.0000 (   291 PWs)   bands (ev):

     4.8265   9.2674  10.0663  10.0663  10.1684  10.6837  31.9469  31.9469
    32.7256  34.1583

          k =-0.0909 0.4545-0.0909 (   290 PWs)   bands (ev):

     5.7904   9.0908   9.9131  10.1931  10.4577  10.7962  27.7840  30.6934
    32.3505  33.6057

          k =-0.1818 0.5455-0.1818 (   282 PWs)   bands (ev):

     7.0171   9.0132   9.6883  10.1734  10.9903  11.1275  23.4387  30.0681
    30.4653  33.0342

          k =-0.2727 0.6364-0.2727 (   278 PWs)   bands (ev):

     7.9113   9.1416   9.6184  10.0850  11.1219  12.3777  19.5779  28.6195
    30.1264  32.8848

          k = 0.6364-0.2727 0.6364 (   275 PWs)   bands (ev):

     8.1670   9.2285   9.7857  10.0141  11.0794  14.0565  16.8632  27.2291
    30.9095  33.1436

          k = 0.5455-0.1818 0.5455 (   278 PWs)   bands (ev):

     8.0974   9.3394   9.6272  10.0046  10.8568  13.0959  18.4935  26.3913
    32.3863  33.8754

          k = 0.4545-0.0909 0.4545 (   279 PWs)   bands (ev):

     7.4496   9.2466   9.5451  10.0702  10.5283  11.8410  22.1222  26.1525
    34.4743  35.1421

          k = 0.3636 0.0000 0.3636 (   285 PWs)   bands (ev):

     6.2044   9.2277   9.7511  10.1946  10.1992  11.1631  26.0534  26.7837
    36.8952  37.0469

          k = 0.0000 0.5455 0.0000 (   290 PWs)   bands (ev):

     6.4674   8.8711  10.0869  10.4737  10.4737  10.8381  29.1446  29.1446
    29.8157  31.4883

          k =-0.0909 0.6364-0.0909 (   282 PWs)   bands (ev):

     7.3295   8.7198  10.0403  10.5622  10.9955  11.1392  25.7203  27.3991
    28.2486  31.9832

          k =-0.1818 0.7273-0.1818 (   273 PWs)   bands (ev):

     8.0210   8.7008   9.8801  10.4913  11.1424  12.6553  21.7762  25.3239
    28.0889  32.0977

          k = 0.7273-0.1818 0.7273 (   275 PWs)   bands (ev):

     8.4062   8.7950   9.7300  10.3941  11.1069  14.9219  18.3307  23.7458
    28.7065  32.3264

          k = 0.6364-0.0909 0.6364 (   274 PWs)   bands (ev):

     8.5879   8.9484   9.5055  10.3135  10.8977  15.1161  18.2545  22.7465
    30.0609  32.8852

          k = 0.5455 0.0000 0.5455 (   275 PWs)   bands (ev):

     8.3450   9.2306   9.2339  10.2352  10.6378  13.1257  21.2925  22.7721
    32.0295  33.8485

          k = 0.0000 0.7273 0.0000 (   278 PWs)   bands (ev):

     7.6207   8.5177  10.9105  10.9105  10.9822  11.1793  24.7061  27.0600
    27.0600  30.7280

          k =-0.0909 0.8182-0.0909 (   276 PWs)   bands (ev):

     7.8780   8.4424  10.6866  10.8846  11.1551  12.8746  22.5620  24.3421
    26.6326  31.3537

          k = 0.8182-0.0909 0.8182 (   278 PWs)   bands (ev):

     8.1581   8.5145  10.2922  10.7761  11.1545  15.1490  20.7587  21.1438
    27.0347  31.7231

          k = 0.7273 0.0000 0.7273 (   276 PWs)   bands (ev):

     8.4821   8.6823   9.8278  10.5985  11.0132  17.4253  17.7061  20.6634
    28.2208  32.1648

          k = 0.0000 0.9091 0.0000 (   286 PWs)   bands (ev):

     7.8079   8.3124  11.0675  11.2065  11.2065  13.5458  20.5985  25.9204
    25.9204  30.3520

          k = 0.9091-0.0000 0.9091 (   280 PWs)   bands (ev):

     7.9041   8.3407  10.9363  11.0107  11.2212  14.6641  19.8742  23.8338
    26.0611  31.1496

          k =-0.1818 0.3636 0.0000 (   288 PWs)   bands (ev):

     5.1890   9.2745   9.8894  10.0774  10.2966  10.7665  28.9107  29.5380
    35.8301  36.3151

          k =-0.2727 0.4545-0.0909 (   284 PWs)   bands (ev):

     6.4225   9.1641   9.7167  10.1180  10.5072  11.1302  24.6697  28.5700
    33.5650  36.4552

          k =-0.3636 0.5455-0.1818 (   280 PWs)   bands (ev):

     7.5805   9.3068   9.5498  10.0242  10.8525  11.8461  20.6164  28.4107
    31.5201  35.8935

          k = 0.5455-0.3636 0.7273 (   275 PWs)   bands (ev):

     8.0226   9.3512   9.8193   9.9523  11.0425  13.2512  17.3753  28.8171
    29.9692  35.5230

          k =-0.1818 0.5455 0.0000 (   283 PWs)   bands (ev):

     6.7714   8.9258   9.7671  10.4742  10.5560  11.1221  26.6270  27.1658
    30.2971  34.5812

          k =-0.2727 0.6364-0.0909 (   277 PWs)   bands (ev):

     7.7866   8.8791   9.5703  10.4244  10.8908  12.0158  22.6956  26.5851
    28.0680  35.0169

          k = 0.6364-0.2727 0.8182 (   277 PWs)   bands (ev):

     8.3434   8.9578   9.5193  10.3036  11.0640  13.7653  19.0257  26.2214
    26.9351  35.1397

          k = 0.5455-0.1818 0.7273 (   276 PWs)   bands (ev):

     8.5014   8.9961   9.5430  10.2245  11.0202  15.1510  17.2147  25.0100
    27.8131  35.6510

          k = 0.4545-0.0909 0.6364 (   278 PWs)   bands (ev):

     8.3436   9.1379   9.2997  10.2637  10.8049  13.2453  20.1824  24.3596
    29.2881  36.6771

          k = 0.3636 0.0000 0.5455 (   276 PWs)   bands (ev):

     7.5513   9.0696   9.4724  10.3312  10.5026  11.8920  23.7252  24.6528
    31.2470  38.1448

          k =-0.1818 0.7273 0.0000 (   281 PWs)   bands (ev):

     7.8531   8.6090  10.0817  10.8750  10.9082  12.1873  24.8854  24.9576
    25.5238  33.4266

          k = 0.7273-0.1818 0.9091 (   277 PWs)   bands (ev):

     8.2338   8.6415   9.9001  10.7037  11.1148  14.1187  21.3870  23.1346
    25.3284  34.2223

          k = 0.6364-0.0909 0.8182 (   276 PWs)   bands (ev):

     8.5405   8.7520   9.6446  10.5275  11.0913  16.6514  18.1391  21.8313
    26.0893  34.7471

          k = 0.5455 0.0000 0.7273 (   278 PWs)   bands (ev):

     8.7721   8.8642   9.3230  10.4126  10.9239  15.2865  19.4471  21.5918
    27.4465  35.6193

          k = 0.8182-0.0909 1.0000 (   276 PWs)   bands (ev):

     7.9947   8.4235  10.5742  10.9505  11.2065  14.4572  20.8115  23.9194
    24.5196  32.8815

          k = 0.7273 0.0000 0.9091 (   278 PWs)   bands (ev):

     8.2254   8.5579  10.1491  10.7659  11.2040  16.1856  20.1596  20.9627
    24.8701  33.9632

          k = 0.6364-0.2727 1.0000 (   278 PWs)   bands (ev):

     8.4051   8.8831   9.3574  10.5825  10.9062  13.5361  21.9898  23.2030
    25.9510  37.9655

          k = 0.5455-0.1818 0.9091 (   275 PWs)   bands (ev):

     8.6754   8.9265   9.2905  10.4573  11.0791  15.7876  18.9014  23.2637
    24.3437  38.4039

          k = 0.6364-0.0909 1.0000 (   275 PWs)   bands (ev):

     8.4141   8.7645   9.6782  10.6261  11.2054  16.2278  21.0293  21.5046
    22.4958  37.3380

          k = 0.5455 0.0000 0.9091 (   272 PWs)   bands (ev):

     8.5760   8.9886   9.3476  10.4922  11.2041  18.3623  18.3961  21.0207
    22.9186  38.6680

     the Fermi energy is    12.7787 ev

!    total energy              =    -122.74263898 Ry
     Harris-Foulkes estimate   =    -122.74263898 Ry
     estimated scf accuracy    <          1.7E-10 Ry

     The total energy is the sum of the following terms:

     one-electron contribution =     -27.50544636 Ry
     hartree contribution      =      30.61968123 Ry
     xc contribution           =     -44.63151634 Ry
     ewald contribution        =     -81.22522863 Ry
     smearing contrib. (-TS)   =      -0.00012888 Ry

     convergence has been achieved in   6 iterations

     Forces acting on atoms (cartesian axes, Ry/au):

     atom    1 type  1   force =     0.00000000    0.00000000    0.00000000

     Total force =     0.000000     Total SCF correction =     0.000000


     Computing stress (Cartesian axis) and pressure

          total   stress  (Ry/bohr**3)                   (kbar)     P=   11.90
   0.00008089   0.00000000   0.00000000         11.90      0.00      0.00
   0.00000000   0.00008089   0.00000000          0.00     11.90      0.00
   0.00000000   0.00000000   0.00008089          0.00      0.00     11.90


     Writing output data file Cu.save/

     init_run     :      0.18s CPU      0.18s WALL (       1 calls)
     electrons    :      2.09s CPU      2.31s WALL (       1 calls)
     forces       :      0.03s CPU      0.03s WALL (       1 calls)
     stress       :      0.06s CPU      0.06s WALL (       1 calls)

     Called by init_run:
     wfcinit      :      0.07s CPU      0.07s WALL (       1 calls)
     potinit      :      0.00s CPU      0.00s WALL (       1 calls)
     hinit0       :      0.10s CPU      0.11s WALL (       1 calls)

     Called by electrons:
     c_bands      :      1.74s CPU      1.93s WALL (       7 calls)
     sum_band     :      0.32s CPU      0.35s WALL (       7 calls)
     v_of_rho     :      0.01s CPU      0.01s WALL (       7 calls)
     newd         :      0.02s CPU      0.02s WALL (       7 calls)
     mix_rho      :      0.00s CPU      0.00s WALL (       7 calls)

     Called by c_bands:
     init_us_2    :      0.04s CPU      0.05s WALL (     952 calls)
     cegterg      :      1.68s CPU      1.86s WALL (     392 calls)

     Called by sum_band:
     sum_band:bec :      0.00s CPU      0.00s WALL (     392 calls)
     addusdens    :      0.02s CPU      0.02s WALL (       7 calls)

     Called by *egterg:
     h_psi        :      1.25s CPU      1.39s WALL (    1221 calls)
     s_psi        :      0.04s CPU      0.04s WALL (    1221 calls)
     g_psi        :      0.00s CPU      0.00s WALL (     773 calls)
     cdiaghg      :      0.25s CPU      0.27s WALL (    1109 calls)

     Called by h_psi:
     h_psi:pot    :      1.24s CPU      1.38s WALL (    1221 calls)
     h_psi:calbec :      0.06s CPU      0.06s WALL (    1221 calls)
     vloc_psi     :      1.14s CPU      1.26s WALL (    1221 calls)
     add_vuspsi   :      0.04s CPU      0.04s WALL (    1221 calls)

     General routines
     calbec       :      0.09s CPU      0.10s WALL (    1893 calls)
     fft          :      0.01s CPU      0.01s WALL (     104 calls)
     ffts         :      0.00s CPU      0.00s WALL (       7 calls)
     fftw         :      1.27s CPU      1.41s WALL (   23654 calls)

     Parallel routines
     fft_scatt_xy :      0.12s CPU      0.13s WALL (   23765 calls)
     fft_scatt_yz :      0.35s CPU      0.38s WALL (   23765 calls)

     PWSCF        :     3.36s CPU         3.65s WALL


   This run was terminated on:  23:17:44  25Mar2024            

=------------------------------------------------------------------------------=
   JOB DONE.
=------------------------------------------------------------------------------=
