
     Program PWSCF v.6.3MaX starts on 25Mar2024 at 23:47:13 

     This program is part of the open-source Quantum ESPRESSO suite
     for quantum simulation of materials; please cite
         "P. Giannozzi et al., J. Phys.:Condens. Matter 21 395502 (2009);
         "P. Giannozzi et al., J. Phys.:Condens. Matter 29 465901 (2017);
          URL http://www.quantum-espresso.org", 
     in publications or presentations arising from this work. More details at
     http://www.quantum-espresso.org/quote

     Parallel version (MPI), running on     5 processors

     MPI processes distributed on     1 nodes
     R & G space division:  proc/nbgrp/npool/nimage =       5
     Waiting for input...
     Reading input from standard input

     Current dimensions of program PWSCF are:
     Max number of different atomic species (ntypx) = 10
     Max number of k-points (npk) =  40000
     Max angular momentum in pseudopotentials (lmaxx) =  3
               file Cu.pbesol-dn-rrkjus_psl.1.0.0.UPF: wavefunction(s)  3D renormalized

     Subspace diagonalization in iterative solution of the eigenvalue problem:
     a serial algorithm will be used


     Parallelization info
     --------------------
     sticks:   dense  smooth     PW     G-vecs:    dense   smooth      PW
     Min         119     119     30                 1967     1967     248
     Max         119     119     31                 1969     1969     251
     Sum         595     595    151                 9841     9841    1243



     bravais-lattice index     =            2
     lattice parameter (alat)  =       6.8300  a.u.
     unit-cell volume          =      79.6530 (a.u.)^3
     number of atoms/cell      =            1
     number of atomic types    =            1
     number of electrons       =        11.00
     number of Kohn-Sham states=           10
     kinetic-energy cutoff     =      95.0000  Ry
     charge density cutoff     =     380.0000  Ry
     convergence threshold     =      1.0E-08
     mixing beta               =       0.7000
     number of iterations used =            8  plain     mixing
     Exchange-correlation      = PBESOL ( 1  4 10  8 0 0)

     celldm(1)=   6.830000  celldm(2)=   0.000000  celldm(3)=   0.000000
     celldm(4)=   0.000000  celldm(5)=   0.000000  celldm(6)=   0.000000

     crystal axes: (cart. coord. in units of alat)
               a(1) = (  -0.500000   0.000000   0.500000 )  
               a(2) = (   0.000000   0.500000   0.500000 )  
               a(3) = (  -0.500000   0.500000   0.000000 )  

     reciprocal axes: (cart. coord. in units 2 pi/alat)
               b(1) = ( -1.000000 -1.000000  1.000000 )  
               b(2) = (  1.000000  1.000000  1.000000 )  
               b(3) = ( -1.000000  1.000000 -1.000000 )  


     PseudoPot. # 1 for Cu read from file:
     /home/lorenzo/pseudos/Cu/Cu.pbesol-dn-rrkjus_psl.1.0.0.UPF
     MD5 check sum: bfa4c7aafbc42e028d5f4ccf7ceed93d
     Pseudo is Ultrasoft + core correction, Zval = 11.0
     Generated using "atomic" code by A. Dal Corso v.6.3
     Using radial grid of 1199 points,  6 beta functions with: 
                l(1) =   0
                l(2) =   0
                l(3) =   1
                l(4) =   1
                l(5) =   2
                l(6) =   2
     Q(r) pseudized with 0 coefficients 


     atomic species   valence    mass     pseudopotential
        Cu            11.00    63.54600     Cu( 1.00)

     48 Sym. Ops., with inversion, found



   Cartesian axes

     site n.     atom                  positions (alat units)
         1           Cu  tau(   1) = (   0.0000000   0.0000000   0.0000000  )

     number of k points=     1  gaussian smearing, width (Ry)=  0.0100
                       cart. coord. in units 2pi/alat
        k(    1) = (   0.0000000   0.0000000   0.0000000), wk =   2.0000000

     Dense  grid:     9841 G-vectors     FFT dimensions: (  30,  30,  30)

     Estimated max dynamical RAM per process >       9.04 MB

     Estimated total dynamical RAM >      45.18 MB

     Initial potential from superposition of free atoms

     starting charge   10.99979, renormalised to   11.00000
     Starting wfcs are    9 randomized atomic wfcs +    1 random wfcs

     total cpu time spent up to now is        1.2 secs

     Self-consistent Calculation

     iteration #  1     ecut=    95.00 Ry     beta= 0.70
     Davidson diagonalization with overlap
     ethr =  1.00E-02,  avg # of iterations =  4.0

     total cpu time spent up to now is        1.3 secs

     total energy              =    -123.08162164 Ry
     Harris-Foulkes estimate   =    -123.19620414 Ry
     estimated scf accuracy    <       0.14882919 Ry

     iteration #  2     ecut=    95.00 Ry     beta= 0.70
     Davidson diagonalization with overlap
     ethr =  1.35E-03,  avg # of iterations =  2.0

     total cpu time spent up to now is        1.3 secs

     total energy              =    -123.12697761 Ry
     Harris-Foulkes estimate   =    -123.18136271 Ry
     estimated scf accuracy    <       0.09599713 Ry

     iteration #  3     ecut=    95.00 Ry     beta= 0.70
     Davidson diagonalization with overlap
     ethr =  8.73E-04,  avg # of iterations =  2.0

     total cpu time spent up to now is        1.4 secs

     total energy              =    -123.14729118 Ry
     Harris-Foulkes estimate   =    -123.14741067 Ry
     estimated scf accuracy    <       0.00043127 Ry

     iteration #  4     ecut=    95.00 Ry     beta= 0.70
     Davidson diagonalization with overlap
     ethr =  3.92E-06,  avg # of iterations =  6.0

     total cpu time spent up to now is        1.4 secs

     total energy              =    -123.14755566 Ry
     Harris-Foulkes estimate   =    -123.14755617 Ry
     estimated scf accuracy    <       0.00001764 Ry

     iteration #  5     ecut=    95.00 Ry     beta= 0.70
     Davidson diagonalization with overlap
     ethr =  1.60E-07,  avg # of iterations =  1.0

     total cpu time spent up to now is        1.4 secs

     total energy              =    -123.14755515 Ry
     Harris-Foulkes estimate   =    -123.14755571 Ry
     estimated scf accuracy    <       0.00000793 Ry

     iteration #  6     ecut=    95.00 Ry     beta= 0.70
     Davidson diagonalization with overlap
     ethr =  7.21E-08,  avg # of iterations =  1.0

     total cpu time spent up to now is        1.5 secs

     total energy              =    -123.14755544 Ry
     Harris-Foulkes estimate   =    -123.14755544 Ry
     estimated scf accuracy    <       0.00000005 Ry

     iteration #  7     ecut=    95.00 Ry     beta= 0.70
     Davidson diagonalization with overlap
     ethr =  4.09E-10,  avg # of iterations =  3.0

     total cpu time spent up to now is        1.5 secs

     total energy              =    -123.14755545 Ry
     Harris-Foulkes estimate   =    -123.14755545 Ry
     estimated scf accuracy    <       0.00000006 Ry

     iteration #  8     ecut=    95.00 Ry     beta= 0.70
     Davidson diagonalization with overlap
     ethr =  4.09E-10,  avg # of iterations =  1.0

     total cpu time spent up to now is        1.5 secs

     total energy              =    -123.14755545 Ry
     Harris-Foulkes estimate   =    -123.14755545 Ry
     estimated scf accuracy    <       0.00000004 Ry

     iteration #  9     ecut=    95.00 Ry     beta= 0.70
     Davidson diagonalization with overlap
     ethr =  3.97E-10,  avg # of iterations =  1.0

     total cpu time spent up to now is        1.6 secs

     total energy              =    -123.14755545 Ry
     Harris-Foulkes estimate   =    -123.14755545 Ry
     estimated scf accuracy    <       0.00000004 Ry

     iteration # 10     ecut=    95.00 Ry     beta= 0.70
     Davidson diagonalization with overlap
     ethr =  3.97E-10,  avg # of iterations =  1.0

     total cpu time spent up to now is        1.6 secs

     total energy              =    -123.14755544 Ry
     Harris-Foulkes estimate   =    -123.14755545 Ry
     estimated scf accuracy    <       0.00000004 Ry

     iteration # 11     ecut=    95.00 Ry     beta= 0.70
     Davidson diagonalization with overlap
     ethr =  3.39E-10,  avg # of iterations =  1.0

     total cpu time spent up to now is        1.6 secs

     total energy              =    -123.14755544 Ry
     Harris-Foulkes estimate   =    -123.14755544 Ry
     estimated scf accuracy    <       0.00000004 Ry

     iteration # 12     ecut=    95.00 Ry     beta= 0.70
     Davidson diagonalization with overlap
     ethr =  3.22E-10,  avg # of iterations =  1.0

     total cpu time spent up to now is        1.7 secs

     total energy              =    -123.14755544 Ry
     Harris-Foulkes estimate   =    -123.14755544 Ry
     estimated scf accuracy    <       0.00000004 Ry

     iteration # 13     ecut=    95.00 Ry     beta= 0.70
     Davidson diagonalization with overlap
     ethr =  3.22E-10,  avg # of iterations =  1.0

     total cpu time spent up to now is        1.7 secs

     total energy              =    -123.14755545 Ry
     Harris-Foulkes estimate   =    -123.14755544 Ry
     estimated scf accuracy    <       0.00000003 Ry

     iteration # 14     ecut=    95.00 Ry     beta= 0.70
     Davidson diagonalization with overlap
     ethr =  2.43E-10,  avg # of iterations =  1.0

     total cpu time spent up to now is        1.8 secs

     total energy              =    -123.14755543 Ry
     Harris-Foulkes estimate   =    -123.14755545 Ry
     estimated scf accuracy    <       0.00000004 Ry

     iteration # 15     ecut=    95.00 Ry     beta= 0.70
     Davidson diagonalization with overlap
     ethr =  2.43E-10,  avg # of iterations =  2.0

     total cpu time spent up to now is        1.8 secs

     End of self-consistent calculation

          k = 0.0000 0.0000 0.0000 (  1243 PWs)   bands (ev):

     2.9950   8.1601   8.1601   8.1601   8.8342   8.8342  35.6075  37.6011
    37.6011  37.6011

     the Fermi energy is     8.8991 ev

!    total energy              =    -123.14755543 Ry
     Harris-Foulkes estimate   =    -123.14755543 Ry
     estimated scf accuracy    <          7.7E-10 Ry

     The total energy is the sum of the following terms:

     one-electron contribution =     -27.60037492 Ry
     hartree contribution      =      29.57442744 Ry
     xc contribution           =     -43.88739133 Ry
     ewald contribution        =     -81.22522855 Ry
     smearing contrib. (-TS)   =      -0.00898808 Ry

     convergence has been achieved in  15 iterations

     Forces acting on atoms (cartesian axes, Ry/au):

     atom    1 type  1   force =     0.00000000    0.00000000    0.00000000

     Total force =     0.000000     Total SCF correction =     0.000000


     Computing stress (Cartesian axis) and pressure

          total   stress  (Ry/bohr**3)                   (kbar)     P= -961.81
  -0.00653824   0.00000000   0.00000000       -961.81      0.00      0.00
   0.00000000  -0.00653824  -0.00000000          0.00   -961.81     -0.00
   0.00000000  -0.00000000  -0.00653824          0.00     -0.00   -961.81


     Writing output data file Cu.save/

     init_run     :      0.22s CPU      0.23s WALL (       1 calls)
     electrons    :      0.55s CPU      0.57s WALL (       1 calls)
     forces       :      0.03s CPU      0.03s WALL (       1 calls)
     stress       :      0.09s CPU      0.09s WALL (       1 calls)

     Called by init_run:
     wfcinit      :      0.00s CPU      0.00s WALL (       1 calls)
     potinit      :      0.01s CPU      0.01s WALL (       1 calls)
     hinit0       :      0.19s CPU      0.19s WALL (       1 calls)

     Called by electrons:
     c_bands      :      0.12s CPU      0.13s WALL (      15 calls)
     sum_band     :      0.18s CPU      0.19s WALL (      15 calls)
     v_of_rho     :      0.09s CPU      0.09s WALL (      16 calls)
     newd         :      0.16s CPU      0.16s WALL (      16 calls)
     mix_rho      :      0.01s CPU      0.01s WALL (      15 calls)

     Called by c_bands:
     init_us_2    :      0.01s CPU      0.01s WALL (      31 calls)
     cegterg      :      0.12s CPU      0.12s WALL (      15 calls)

     Called by sum_band:
     sum_band:bec :      0.00s CPU      0.00s WALL (      15 calls)
     addusdens    :      0.14s CPU      0.14s WALL (      15 calls)

     Called by *egterg:
     h_psi        :      0.09s CPU      0.10s WALL (      44 calls)
     s_psi        :      0.00s CPU      0.00s WALL (      44 calls)
     g_psi        :      0.00s CPU      0.00s WALL (      28 calls)
     cdiaghg      :      0.01s CPU      0.01s WALL (      43 calls)

     Called by h_psi:
     h_psi:pot    :      0.09s CPU      0.10s WALL (      44 calls)
     h_psi:calbec :      0.00s CPU      0.00s WALL (      44 calls)
     vloc_psi     :      0.08s CPU      0.09s WALL (      44 calls)
     add_vuspsi   :      0.00s CPU      0.00s WALL (      44 calls)

     General routines
     calbec       :      0.01s CPU      0.01s WALL (      64 calls)
     fft          :      0.06s CPU      0.06s WALL (     202 calls)
     ffts         :      0.00s CPU      0.00s WALL (      15 calls)
     fftw         :      0.09s CPU      0.10s WALL (     850 calls)

     Parallel routines
     fft_scatt_xy :      0.01s CPU      0.01s WALL (    1067 calls)
     fft_scatt_yz :      0.05s CPU      0.05s WALL (    1067 calls)

     PWSCF        :     1.88s CPU         1.94s WALL


   This run was terminated on:  23:47:15  25Mar2024            

=------------------------------------------------------------------------------=
   JOB DONE.
=------------------------------------------------------------------------------=
