
     Program PWSCF v.6.3MaX starts on 25Mar2024 at 23: 7:39 

     This program is part of the open-source Quantum ESPRESSO suite
     for quantum simulation of materials; please cite
         "P. Giannozzi et al., J. Phys.:Condens. Matter 21 395502 (2009);
         "P. Giannozzi et al., J. Phys.:Condens. Matter 29 465901 (2017);
          URL http://www.quantum-espresso.org", 
     in publications or presentations arising from this work. More details at
     http://www.quantum-espresso.org/quote

     Parallel version (MPI), running on     5 processors

     MPI processes distributed on     1 nodes
     R & G space division:  proc/nbgrp/npool/nimage =       5
     Waiting for input...
     Reading input from standard input

     Current dimensions of program PWSCF are:
     Max number of different atomic species (ntypx) = 10
     Max number of k-points (npk) =  40000
     Max angular momentum in pseudopotentials (lmaxx) =  3
               file Cu.pbe-dn-kjpaw_psl.1.0.0.UPF: wavefunction(s)  4S 3D renormalized

     Subspace diagonalization in iterative solution of the eigenvalue problem:
     a serial algorithm will be used


     Parallelization info
     --------------------
     sticks:   dense  smooth     PW     G-vecs:    dense   smooth      PW
     Min         129     129     39                 2168     2168     365
     Max         130     130     40                 2171     2171     368
     Sum         649     649    199                10849    10849    1837



     bravais-lattice index     =            2
     lattice parameter (alat)  =       6.8300  a.u.
     unit-cell volume          =      79.6530 (a.u.)^3
     number of atoms/cell      =            1
     number of atomic types    =            1
     number of electrons       =        11.00
     number of Kohn-Sham states=           10
     kinetic-energy cutoff     =     100.0000  Ry
     charge density cutoff     =     400.0000  Ry
     convergence threshold     =      1.0E-08
     mixing beta               =       0.7000
     number of iterations used =            8  plain     mixing
     Exchange-correlation      = SLA PW PBX PBC ( 1  4  3  4 0 0)

     celldm(1)=   6.830000  celldm(2)=   0.000000  celldm(3)=   0.000000
     celldm(4)=   0.000000  celldm(5)=   0.000000  celldm(6)=   0.000000

     crystal axes: (cart. coord. in units of alat)
               a(1) = (  -0.500000   0.000000   0.500000 )  
               a(2) = (   0.000000   0.500000   0.500000 )  
               a(3) = (  -0.500000   0.500000   0.000000 )  

     reciprocal axes: (cart. coord. in units 2 pi/alat)
               b(1) = ( -1.000000 -1.000000  1.000000 )  
               b(2) = (  1.000000  1.000000  1.000000 )  
               b(3) = ( -1.000000  1.000000 -1.000000 )  


     PseudoPot. # 1 for Cu read from file:
     /home/lorenzo/pseudos/Cu/Cu.pbe-dn-kjpaw_psl.1.0.0.UPF
     MD5 check sum: cfffd1f38ee05704b3e17f46f1730a6f
     Pseudo is Projector augmented-wave + core cor, Zval = 11.0
     Generated using "atomic" code by A. Dal Corso v.6.3
     Shape of augmentation charge: PSQ
     Using radial grid of 1199 points,  6 beta functions with: 
                l(1) =   0
                l(2) =   0
                l(3) =   1
                l(4) =   1
                l(5) =   2
                l(6) =   2
     Q(r) pseudized with 0 coefficients 


     atomic species   valence    mass     pseudopotential
        Cu            11.00    63.54600     Cu( 1.00)

     48 Sym. Ops., with inversion, found



   Cartesian axes

     site n.     atom                  positions (alat units)
         1           Cu  tau(   1) = (   0.0000000   0.0000000   0.0000000  )

     number of k points=    20  gaussian smearing, width (Ry)=  0.0100
                       cart. coord. in units 2pi/alat
        k(    1) = (   0.0000000   0.0000000   0.0000000), wk =   0.0058309
        k(    2) = (  -0.1428571   0.1428571  -0.1428571), wk =   0.0466472
        k(    3) = (  -0.2857143   0.2857143  -0.2857143), wk =   0.0466472
        k(    4) = (  -0.4285714   0.4285714  -0.4285714), wk =   0.0466472
        k(    5) = (   0.0000000   0.2857143   0.0000000), wk =   0.0349854
        k(    6) = (  -0.1428571   0.4285714  -0.1428571), wk =   0.1399417
        k(    7) = (  -0.2857143   0.5714286  -0.2857143), wk =   0.1399417
        k(    8) = (   0.5714286  -0.2857143   0.5714286), wk =   0.1399417
        k(    9) = (   0.4285714  -0.1428571   0.4285714), wk =   0.1399417
        k(   10) = (   0.2857143  -0.0000000   0.2857143), wk =   0.0699708
        k(   11) = (   0.0000000   0.5714286   0.0000000), wk =   0.0349854
        k(   12) = (  -0.1428571   0.7142857  -0.1428571), wk =   0.1399417
        k(   13) = (   0.7142857  -0.1428571   0.7142857), wk =   0.1399417
        k(   14) = (   0.5714286   0.0000000   0.5714286), wk =   0.0699708
        k(   15) = (   0.0000000   0.8571429   0.0000000), wk =   0.0349854
        k(   16) = (   0.8571429  -0.0000000   0.8571429), wk =   0.0699708
        k(   17) = (  -0.2857143   0.5714286   0.0000000), wk =   0.1399417
        k(   18) = (   0.5714286  -0.2857143   0.8571429), wk =   0.2798834
        k(   19) = (   0.7142857  -0.1428571   1.0000000), wk =   0.1399417
        k(   20) = (   0.5714286   0.0000000   0.8571429), wk =   0.1399417

     Dense  grid:    10849 G-vectors     FFT dimensions: (  32,  32,  32)

     Estimated max dynamical RAM per process >      10.73 MB

     Estimated total dynamical RAM >      53.67 MB

     Initial potential from superposition of free atoms

     starting charge   10.99977, renormalised to   11.00000
     Starting wfcs are    9 randomized atomic wfcs +    1 random wfcs
     Checking if some PAW data can be deallocated... 

     total cpu time spent up to now is        1.2 secs

     Self-consistent Calculation

     iteration #  1     ecut=   100.00 Ry     beta= 0.70
     Davidson diagonalization with overlap
     ethr =  1.00E-02,  avg # of iterations =  3.8

     Threshold (ethr) on eigenvalues was too large:
     Diagonalizing with lowered threshold

     Davidson diagonalization with overlap
     ethr =  5.38E-04,  avg # of iterations =  1.0

     total cpu time spent up to now is        1.8 secs

     total energy              =    -213.06515861 Ry
     Harris-Foulkes estimate   =    -213.11156384 Ry
     estimated scf accuracy    <       0.05895552 Ry

     iteration #  2     ecut=   100.00 Ry     beta= 0.70
     Davidson diagonalization with overlap
     ethr =  5.36E-04,  avg # of iterations =  2.0

     total cpu time spent up to now is        2.2 secs

     total energy              =    -213.06689043 Ry
     Harris-Foulkes estimate   =    -213.14802077 Ry
     estimated scf accuracy    <       0.20977911 Ry

     iteration #  3     ecut=   100.00 Ry     beta= 0.70
     Davidson diagonalization with overlap
     ethr =  5.36E-04,  avg # of iterations =  2.1

     total cpu time spent up to now is        2.5 secs

     total energy              =    -213.10007408 Ry
     Harris-Foulkes estimate   =    -213.10010730 Ry
     estimated scf accuracy    <       0.00008280 Ry

     iteration #  4     ecut=   100.00 Ry     beta= 0.70
     Davidson diagonalization with overlap
     ethr =  7.53E-07,  avg # of iterations =  2.6

     total cpu time spent up to now is        2.9 secs

     total energy              =    -213.10012247 Ry
     Harris-Foulkes estimate   =    -213.10012990 Ry
     estimated scf accuracy    <       0.00002211 Ry

     iteration #  5     ecut=   100.00 Ry     beta= 0.70
     Davidson diagonalization with overlap
     ethr =  2.01E-07,  avg # of iterations =  1.1

     total cpu time spent up to now is        3.3 secs

     total energy              =    -213.10012622 Ry
     Harris-Foulkes estimate   =    -213.10012629 Ry
     estimated scf accuracy    <       0.00000020 Ry

     iteration #  6     ecut=   100.00 Ry     beta= 0.70
     Davidson diagonalization with overlap
     ethr =  1.78E-09,  avg # of iterations =  2.8

     total cpu time spent up to now is        3.6 secs

     End of self-consistent calculation

          k = 0.0000 0.0000 0.0000 (  1363 PWs)   bands (ev):

     3.2705   9.6874   9.6874   9.6874  10.5195  10.5195  35.5890  37.9908
    37.9908  37.9908

          k =-0.1429 0.1429-0.1429 (  1354 PWs)   bands (ev):

     4.0024   9.5473   9.8029   9.8029  10.4888  10.4888  30.5876  36.0481
    36.5043  36.5043

          k =-0.2857 0.2857-0.2857 (  1356 PWs)   bands (ev):

     5.9483   9.4596   9.8181   9.8181  10.6918  10.6918  23.4194  35.0831
    35.2431  35.2431

          k =-0.4286 0.4286-0.4286 (  1344 PWs)   bands (ev):

     7.4710   9.6771   9.6771  10.8704  11.0385  11.0385  17.6802  34.1358
    34.7915  34.7915

          k = 0.0000 0.2857 0.0000 (  1343 PWs)   bands (ev):

     4.2429   9.4090   9.9200   9.9200  10.2777  10.6224  33.2894  33.2894
    33.3652  35.2838

          k =-0.1429 0.4286-0.1429 (  1348 PWs)   bands (ev):

     5.7935   9.1644   9.8378  10.0674  10.5414  10.8010  26.2023  31.4001
    32.9102  34.6028

          k =-0.2857 0.5714-0.2857 (  1353 PWs)   bands (ev):

     7.6133   9.3299   9.6316   9.9581  11.0823  11.7940  19.7864  30.5629
    31.0122  33.2900

          k = 0.5714-0.2857 0.5714 (  1346 PWs)   bands (ev):

     7.9659   9.4051   9.8723   9.9803  11.0211  13.3346  16.8290  28.5807
    32.3093  33.6878

          k = 0.4286-0.1429 0.4286 (  1350 PWs)   bands (ev):

     7.1600   9.3308   9.6228   9.9625  10.5782  11.5510  21.7918  27.9653
    35.2423  35.4313

          k = 0.2857-0.0000 0.2857 (  1353 PWs)   bands (ev):

     5.1585   9.3333   9.8482  10.0123  10.2682  10.7998  28.3316  29.0254
    38.5375  38.8039

          k = 0.0000 0.5714 0.0000 (  1343 PWs)   bands (ev):

     6.6892   8.8049  10.1319  10.5299  10.5299  10.8568  28.7828  28.7828
    29.0386  31.3021

          k =-0.1429 0.7143-0.1429 (  1331 PWs)   bands (ev):

     7.8462   8.6391  10.0184  10.5717  11.1103  12.1455  23.2047  25.4165
    27.8031  31.9214

          k = 0.7143-0.1429 0.7143 (  1341 PWs)   bands (ev):

     8.4649   8.7721   9.7115  10.4198  11.0607  15.6869  17.8067  22.9339
    28.7246  32.3081

          k = 0.5714 0.0000 0.5714 (  1338 PWs)   bands (ev):

     8.4860   9.1350   9.2668  10.2657  10.6907  13.6147  20.6651  22.3463
    31.3750  33.5015

          k = 0.0000 0.8571 0.0000 (  1339 PWs)   bands (ev):

     7.7884   8.3407  11.0481  11.1392  11.1392  12.8709  21.5534  26.1269
    26.1269  30.3687

          k = 0.8571-0.0000 0.8571 (  1338 PWs)   bands (ev):

     8.0244   8.4069  10.6008  10.9138  11.1747  15.2850  19.9688  22.0708
    26.4671  31.4425

          k =-0.2857 0.5714 0.0000 (  1337 PWs)   bands (ev):

     7.3729   8.9507   9.5452  10.4836  10.5353  11.6436  24.6088  25.3915
    29.9501  36.8667

          k = 0.5714-0.2857 0.8571 (  1341 PWs)   bands (ev):

     8.4514   8.9990   9.3901  10.2984  10.9809  14.0180  18.9438  25.2659
    26.9776  37.0031

          k = 0.7143-0.1429 1.0000 (  1344 PWs)   bands (ev):

     8.2301   8.6086   9.9409  10.7718  11.1371  14.6660  22.1814  22.4162
    23.4578  35.3654

          k = 0.5714 0.0000 0.8571 (  1356 PWs)   bands (ev):

     8.5960   8.8735   9.4330  10.4979  11.1345  17.7350  18.2445  20.9687
    24.3529  37.0117

     the Fermi energy is    12.8506 ev

!    total energy              =    -213.10012627 Ry
     Harris-Foulkes estimate   =    -213.10012627 Ry
     estimated scf accuracy    <          5.8E-10 Ry

     total all-electron energy =     -3309.979892 Ry

     The total energy is the sum of the following terms:

     one-electron contribution =     -28.02870944 Ry
     hartree contribution      =      30.63036023 Ry
     xc contribution           =     -44.63079203 Ry
     ewald contribution        =     -81.22522855 Ry
     one-center paw contrib.   =     -89.84565996 Ry
     smearing contrib. (-TS)   =      -0.00009653 Ry

     convergence has been achieved in   6 iterations

     Forces acting on atoms (cartesian axes, Ry/au):

     atom    1 type  1   force =     0.00000000    0.00000000    0.00000000

     Total force =     0.000000     Total SCF correction =     0.000000


     Computing stress (Cartesian axis) and pressure

          total   stress  (Ry/bohr**3)                   (kbar)     P=   17.84
   0.00012124  -0.00000000  -0.00000000         17.84     -0.00     -0.00
  -0.00000000   0.00012124   0.00000000         -0.00     17.84      0.00
  -0.00000000   0.00000000   0.00012124         -0.00      0.00     17.84


     Writing output data file Cu.save/

     init_run     :      0.39s CPU      0.43s WALL (       1 calls)
     electrons    :      2.32s CPU      2.46s WALL (       1 calls)
     forces       :      0.05s CPU      0.05s WALL (       1 calls)
     stress       :      0.16s CPU      0.16s WALL (       1 calls)

     Called by init_run:
     wfcinit      :      0.08s CPU      0.08s WALL (       1 calls)
     potinit      :      0.10s CPU      0.12s WALL (       1 calls)
     hinit0       :      0.18s CPU      0.18s WALL (       1 calls)

     Called by electrons:
     c_bands      :      1.31s CPU      1.41s WALL (       7 calls)
     sum_band     :      0.34s CPU      0.36s WALL (       7 calls)
     v_of_rho     :      0.04s CPU      0.05s WALL (       7 calls)
     newd         :      0.08s CPU      0.09s WALL (       7 calls)
     PAW_pot      :      0.64s CPU      0.68s WALL (       7 calls)
     mix_rho      :      0.00s CPU      0.00s WALL (       7 calls)

     Called by c_bands:
     init_us_2    :      0.05s CPU      0.05s WALL (     340 calls)
     cegterg      :      1.25s CPU      1.34s WALL (     140 calls)

     Called by sum_band:
     sum_band:bec :      0.00s CPU      0.00s WALL (     140 calls)
     addusdens    :      0.07s CPU      0.07s WALL (       7 calls)

     Called by *egterg:
     h_psi        :      1.02s CPU      1.10s WALL (     468 calls)
     s_psi        :      0.04s CPU      0.04s WALL (     468 calls)
     g_psi        :      0.00s CPU      0.00s WALL (     308 calls)
     cdiaghg      :      0.09s CPU      0.09s WALL (     428 calls)

     Called by h_psi:
     h_psi:pot    :      1.01s CPU      1.09s WALL (     468 calls)
     h_psi:calbec :      0.05s CPU      0.06s WALL (     468 calls)
     vloc_psi     :      0.92s CPU      0.99s WALL (     468 calls)
     add_vuspsi   :      0.03s CPU      0.04s WALL (     468 calls)

     General routines
     calbec       :      0.08s CPU      0.09s WALL (     708 calls)
     fft          :      0.03s CPU      0.03s WALL (     104 calls)
     ffts         :      0.00s CPU      0.00s WALL (       7 calls)
     fftw         :      1.04s CPU      1.12s WALL (    8582 calls)

     Parallel routines
     fft_scatt_xy :      0.10s CPU      0.11s WALL (    8693 calls)
     fft_scatt_yz :      0.35s CPU      0.38s WALL (    8693 calls)

     PWSCF        :     3.68s CPU         3.91s WALL


   This run was terminated on:  23: 7:43  25Mar2024            

=------------------------------------------------------------------------------=
   JOB DONE.
=------------------------------------------------------------------------------=
