
     Program PWSCF v.6.3MaX starts on 25Mar2024 at 23:36: 1 

     This program is part of the open-source Quantum ESPRESSO suite
     for quantum simulation of materials; please cite
         "P. Giannozzi et al., J. Phys.:Condens. Matter 21 395502 (2009);
         "P. Giannozzi et al., J. Phys.:Condens. Matter 29 465901 (2017);
          URL http://www.quantum-espresso.org", 
     in publications or presentations arising from this work. More details at
     http://www.quantum-espresso.org/quote

     Parallel version (MPI), running on     5 processors

     MPI processes distributed on     1 nodes
     R & G space division:  proc/nbgrp/npool/nimage =       5
     Waiting for input...
     Reading input from standard input

     Current dimensions of program PWSCF are:
     Max number of different atomic species (ntypx) = 10
     Max number of k-points (npk) =  40000
     Max angular momentum in pseudopotentials (lmaxx) =  3
               file Cu.pbe-dn-kjpaw_psl.1.0.0.UPF: wavefunction(s)  4S 3D renormalized

     Subspace diagonalization in iterative solution of the eigenvalue problem:
     a serial algorithm will be used


     Parallelization info
     --------------------
     sticks:   dense  smooth     PW     G-vecs:    dense   smooth      PW
     Min          95      95     30                 1375     1375     248
     Max          95      95     31                 1376     1376     251
     Sum         475     475    151                 6879     6879    1243



     bravais-lattice index     =            2
     lattice parameter (alat)  =       6.8300  a.u.
     unit-cell volume          =      79.6530 (a.u.)^3
     number of atoms/cell      =            1
     number of atomic types    =            1
     number of electrons       =        11.00
     number of Kohn-Sham states=           10
     kinetic-energy cutoff     =      75.0000  Ry
     charge density cutoff     =     300.0000  Ry
     convergence threshold     =      1.0E-08
     mixing beta               =       0.7000
     number of iterations used =            8  plain     mixing
     Exchange-correlation      = SLA PW PBX PBC ( 1  4  3  4 0 0)

     celldm(1)=   6.830000  celldm(2)=   0.000000  celldm(3)=   0.000000
     celldm(4)=   0.000000  celldm(5)=   0.000000  celldm(6)=   0.000000

     crystal axes: (cart. coord. in units of alat)
               a(1) = (  -0.500000   0.000000   0.500000 )  
               a(2) = (   0.000000   0.500000   0.500000 )  
               a(3) = (  -0.500000   0.500000   0.000000 )  

     reciprocal axes: (cart. coord. in units 2 pi/alat)
               b(1) = ( -1.000000 -1.000000  1.000000 )  
               b(2) = (  1.000000  1.000000  1.000000 )  
               b(3) = ( -1.000000  1.000000 -1.000000 )  


     PseudoPot. # 1 for Cu read from file:
     /home/lorenzo/pseudos/Cu/Cu.pbe-dn-kjpaw_psl.1.0.0.UPF
     MD5 check sum: cfffd1f38ee05704b3e17f46f1730a6f
     Pseudo is Projector augmented-wave + core cor, Zval = 11.0
     Generated using "atomic" code by A. Dal Corso v.6.3
     Shape of augmentation charge: PSQ
     Using radial grid of 1199 points,  6 beta functions with: 
                l(1) =   0
                l(2) =   0
                l(3) =   1
                l(4) =   1
                l(5) =   2
                l(6) =   2
     Q(r) pseudized with 0 coefficients 


     atomic species   valence    mass     pseudopotential
        Cu            11.00    63.54600     Cu( 1.00)

     48 Sym. Ops., with inversion, found



   Cartesian axes

     site n.     atom                  positions (alat units)
         1           Cu  tau(   1) = (   0.0000000   0.0000000   0.0000000  )

     number of k points=     8  gaussian smearing, width (Ry)=  0.0100
                       cart. coord. in units 2pi/alat
        k(    1) = (   0.0000000   0.0000000   0.0000000), wk =   0.0312500
        k(    2) = (  -0.2500000   0.2500000  -0.2500000), wk =   0.2500000
        k(    3) = (   0.5000000  -0.5000000   0.5000000), wk =   0.1250000
        k(    4) = (   0.0000000   0.5000000   0.0000000), wk =   0.1875000
        k(    5) = (   0.7500000  -0.2500000   0.7500000), wk =   0.7500000
        k(    6) = (   0.5000000   0.0000000   0.5000000), wk =   0.3750000
        k(    7) = (   0.0000000  -1.0000000   0.0000000), wk =   0.0937500
        k(    8) = (  -0.5000000  -1.0000000   0.0000000), wk =   0.1875000

     Dense  grid:     6879 G-vectors     FFT dimensions: (  27,  27,  27)

     Estimated max dynamical RAM per process >       6.89 MB

     Estimated total dynamical RAM >      34.45 MB

     Initial potential from superposition of free atoms

     starting charge   10.99977, renormalised to   11.00000
     Starting wfcs are    9 randomized atomic wfcs +    1 random wfcs
     Checking if some PAW data can be deallocated... 

     total cpu time spent up to now is        1.1 secs

     Self-consistent Calculation

     iteration #  1     ecut=    75.00 Ry     beta= 0.70
     Davidson diagonalization with overlap
     ethr =  1.00E-02,  avg # of iterations =  3.5

     Threshold (ethr) on eigenvalues was too large:
     Diagonalizing with lowered threshold

     Davidson diagonalization with overlap
     ethr =  5.51E-04,  avg # of iterations =  1.0

     total cpu time spent up to now is        1.4 secs

     total energy              =    -213.04951199 Ry
     Harris-Foulkes estimate   =    -213.09727847 Ry
     estimated scf accuracy    <       0.06063938 Ry

     iteration #  2     ecut=    75.00 Ry     beta= 0.70
     Davidson diagonalization with overlap
     ethr =  5.51E-04,  avg # of iterations =  2.0

     total cpu time spent up to now is        1.6 secs

     total energy              =    -213.05158735 Ry
     Harris-Foulkes estimate   =    -213.13251724 Ry
     estimated scf accuracy    <       0.20678117 Ry

     iteration #  3     ecut=    75.00 Ry     beta= 0.70
     Davidson diagonalization with overlap
     ethr =  5.51E-04,  avg # of iterations =  2.0

     total cpu time spent up to now is        1.8 secs

     total energy              =    -213.08505134 Ry
     Harris-Foulkes estimate   =    -213.08506753 Ry
     estimated scf accuracy    <       0.00005428 Ry

     iteration #  4     ecut=    75.00 Ry     beta= 0.70
     Davidson diagonalization with overlap
     ethr =  4.93E-07,  avg # of iterations =  3.1

     total cpu time spent up to now is        2.0 secs

     total energy              =    -213.08509150 Ry
     Harris-Foulkes estimate   =    -213.08509676 Ry
     estimated scf accuracy    <       0.00001496 Ry

     iteration #  5     ecut=    75.00 Ry     beta= 0.70
     Davidson diagonalization with overlap
     ethr =  1.36E-07,  avg # of iterations =  1.2

     total cpu time spent up to now is        2.2 secs

     total energy              =    -213.08509431 Ry
     Harris-Foulkes estimate   =    -213.08509451 Ry
     estimated scf accuracy    <       0.00000059 Ry

     iteration #  6     ecut=    75.00 Ry     beta= 0.70
     Davidson diagonalization with overlap
     ethr =  5.36E-09,  avg # of iterations =  1.2

     total cpu time spent up to now is        2.3 secs

     End of self-consistent calculation

          k = 0.0000 0.0000 0.0000 (   893 PWs)   bands (ev):

     3.2653   9.6438   9.6438   9.6438  10.4757  10.4757  35.5876  37.9846
    37.9846  37.9846

          k =-0.2500 0.2500-0.2500 (   881 PWs)   bands (ev):

     5.3882   9.3858   9.8017   9.8017  10.5593  10.5593  25.1086  35.3701
    35.4662  35.4662

          k = 0.5000-0.5000 0.5000 (   862 PWs)   bands (ev):

     7.5670   9.6110   9.6110  11.0488  11.0488  11.6261  16.4135  33.9937
    34.7494  34.7494

          k = 0.0000 0.5000 0.0000 (   881 PWs)   bands (ev):

     6.0310   8.9205  10.0103  10.3109  10.3109  10.7502  29.7601  29.7601
    31.0476  31.6930

          k = 0.7500-0.2500 0.7500 (   866 PWs)   bands (ev):

     8.2174   8.7949   9.6609  10.2887  11.0895  13.5972  19.3648  25.2299
    28.7631  32.3066

          k = 0.5000 0.0000 0.5000 (   883 PWs)   bands (ev):

     7.9359   9.1334   9.3433  10.1475  10.4739  12.3617  22.3644  23.5705
    33.1364  34.4433

          k = 0.0000-1.0000 0.0000 (   846 PWs)   bands (ev):

     7.7724   8.2365  11.0310  11.1926  11.1926  14.1311  19.7683  25.7586
    25.7586  30.2429

          k =-0.5000-1.0000 0.0000 (   876 PWs)   bands (ev):

     8.5178   9.1281   9.1281  10.4335  11.1933  18.8552  18.8552  20.9685
    21.4516  41.0669

     the Fermi energy is    13.4306 ev

!    total energy              =    -213.08509440 Ry
     Harris-Foulkes estimate   =    -213.08509440 Ry
     estimated scf accuracy    <          9.1E-10 Ry

     total all-electron energy =     -3309.964860 Ry

     The total energy is the sum of the following terms:

     one-electron contribution =     -27.98699163 Ry
     hartree contribution      =      30.60130909 Ry
     xc contribution           =     -44.62606490 Ry
     ewald contribution        =     -81.22522855 Ry
     one-center paw contrib.   =     -89.84764602 Ry
     smearing contrib. (-TS)   =      -0.00047239 Ry

     convergence has been achieved in   6 iterations

     Forces acting on atoms (cartesian axes, Ry/au):

     atom    1 type  1   force =     0.00000000    0.00000000    0.00000000

     Total force =     0.000000     Total SCF correction =     0.000000


     Computing stress (Cartesian axis) and pressure

          total   stress  (Ry/bohr**3)                   (kbar)     P=   34.89
   0.00023718  -0.00000000  -0.00000000         34.89     -0.00     -0.00
  -0.00000000   0.00023718   0.00000000         -0.00     34.89      0.00
  -0.00000000   0.00000000   0.00023718         -0.00      0.00     34.89


     Writing output data file Cu.save/

     init_run     :      0.31s CPU      0.32s WALL (       1 calls)
     electrons    :      1.16s CPU      1.28s WALL (       1 calls)
     forces       :      0.03s CPU      0.03s WALL (       1 calls)
     stress       :      0.08s CPU      0.08s WALL (       1 calls)

     Called by init_run:
     wfcinit      :      0.03s CPU      0.03s WALL (       1 calls)
     potinit      :      0.10s CPU      0.11s WALL (       1 calls)
     hinit0       :      0.16s CPU      0.16s WALL (       1 calls)

     Called by electrons:
     c_bands      :      0.43s CPU      0.45s WALL (       7 calls)
     sum_band     :      0.13s CPU      0.14s WALL (       7 calls)
     v_of_rho     :      0.02s CPU      0.03s WALL (       7 calls)
     newd         :      0.05s CPU      0.05s WALL (       7 calls)
     PAW_pot      :      0.63s CPU      0.72s WALL (       7 calls)
     mix_rho      :      0.00s CPU      0.00s WALL (       7 calls)

     Called by c_bands:
     init_us_2    :      0.02s CPU      0.02s WALL (     136 calls)
     cegterg      :      0.41s CPU      0.43s WALL (      56 calls)

     Called by sum_band:
     sum_band:bec :      0.00s CPU      0.00s WALL (      56 calls)
     addusdens    :      0.05s CPU      0.05s WALL (       7 calls)

     Called by *egterg:
     h_psi        :      0.34s CPU      0.35s WALL (     177 calls)
     s_psi        :      0.01s CPU      0.01s WALL (     177 calls)
     g_psi        :      0.00s CPU      0.00s WALL (     113 calls)
     cdiaghg      :      0.03s CPU      0.03s WALL (     161 calls)

     Called by h_psi:
     h_psi:pot    :      0.34s CPU      0.35s WALL (     177 calls)
     h_psi:calbec :      0.02s CPU      0.02s WALL (     177 calls)
     vloc_psi     :      0.31s CPU      0.32s WALL (     177 calls)
     add_vuspsi   :      0.01s CPU      0.01s WALL (     177 calls)

     General routines
     calbec       :      0.02s CPU      0.02s WALL (     273 calls)
     fft          :      0.02s CPU      0.02s WALL (     104 calls)
     ffts         :      0.00s CPU      0.00s WALL (       7 calls)
     fftw         :      0.34s CPU      0.36s WALL (    3386 calls)

     Parallel routines
     fft_scatt_xy :      0.03s CPU      0.03s WALL (    3497 calls)
     fft_scatt_yz :      0.07s CPU      0.07s WALL (    3497 calls)

     PWSCF        :     2.33s CPU         2.50s WALL


   This run was terminated on:  23:36: 4  25Mar2024            

=------------------------------------------------------------------------------=
   JOB DONE.
=------------------------------------------------------------------------------=
