
     Program PWSCF v.6.3MaX starts on 25Mar2024 at 23:17:48 

     This program is part of the open-source Quantum ESPRESSO suite
     for quantum simulation of materials; please cite
         "P. Giannozzi et al., J. Phys.:Condens. Matter 21 395502 (2009);
         "P. Giannozzi et al., J. Phys.:Condens. Matter 29 465901 (2017);
          URL http://www.quantum-espresso.org", 
     in publications or presentations arising from this work. More details at
     http://www.quantum-espresso.org/quote

     Parallel version (MPI), running on     5 processors

     MPI processes distributed on     1 nodes
     R & G space division:  proc/nbgrp/npool/nimage =       5
     Waiting for input...
     Reading input from standard input

     Current dimensions of program PWSCF are:
     Max number of different atomic species (ntypx) = 10
     Max number of k-points (npk) =  40000
     Max angular momentum in pseudopotentials (lmaxx) =  3
               file Cu.pbesol-dn-rrkjus_psl.1.0.0.UPF: wavefunction(s)  3D renormalized

     Subspace diagonalization in iterative solution of the eigenvalue problem:
     a serial algorithm will be used


     Parallelization info
     --------------------
     sticks:   dense  smooth     PW     G-vecs:    dense   smooth      PW
     Min          43      43     17                  445      445     106
     Max          45      45     17                  446      446     107
     Sum         223     223     85                 2229     2229     531



     bravais-lattice index     =            2
     lattice parameter (alat)  =       6.8300  a.u.
     unit-cell volume          =      79.6530 (a.u.)^3
     number of atoms/cell      =            1
     number of atomic types    =            1
     number of electrons       =        11.00
     number of Kohn-Sham states=           10
     kinetic-energy cutoff     =      35.0000  Ry
     charge density cutoff     =     140.0000  Ry
     convergence threshold     =      1.0E-08
     mixing beta               =       0.7000
     number of iterations used =            8  plain     mixing
     Exchange-correlation      = PBESOL ( 1  4 10  8 0 0)

     celldm(1)=   6.830000  celldm(2)=   0.000000  celldm(3)=   0.000000
     celldm(4)=   0.000000  celldm(5)=   0.000000  celldm(6)=   0.000000

     crystal axes: (cart. coord. in units of alat)
               a(1) = (  -0.500000   0.000000   0.500000 )  
               a(2) = (   0.000000   0.500000   0.500000 )  
               a(3) = (  -0.500000   0.500000   0.000000 )  

     reciprocal axes: (cart. coord. in units 2 pi/alat)
               b(1) = ( -1.000000 -1.000000  1.000000 )  
               b(2) = (  1.000000  1.000000  1.000000 )  
               b(3) = ( -1.000000  1.000000 -1.000000 )  


     PseudoPot. # 1 for Cu read from file:
     /home/lorenzo/pseudos/Cu/Cu.pbesol-dn-rrkjus_psl.1.0.0.UPF
     MD5 check sum: bfa4c7aafbc42e028d5f4ccf7ceed93d
     Pseudo is Ultrasoft + core correction, Zval = 11.0
     Generated using "atomic" code by A. Dal Corso v.6.3
     Using radial grid of 1199 points,  6 beta functions with: 
                l(1) =   0
                l(2) =   0
                l(3) =   1
                l(4) =   1
                l(5) =   2
                l(6) =   2
     Q(r) pseudized with 0 coefficients 


     atomic species   valence    mass     pseudopotential
        Cu            11.00    63.54600     Cu( 1.00)

     48 Sym. Ops., with inversion, found



   Cartesian axes

     site n.     atom                  positions (alat units)
         1           Cu  tau(   1) = (   0.0000000   0.0000000   0.0000000  )

     number of k points=    56  gaussian smearing, width (Ry)=  0.0100
                       cart. coord. in units 2pi/alat
        k(    1) = (   0.0000000   0.0000000   0.0000000), wk =   0.0015026
        k(    2) = (  -0.0909091   0.0909091  -0.0909091), wk =   0.0120210
        k(    3) = (  -0.1818182   0.1818182  -0.1818182), wk =   0.0120210
        k(    4) = (  -0.2727273   0.2727273  -0.2727273), wk =   0.0120210
        k(    5) = (  -0.3636364   0.3636364  -0.3636364), wk =   0.0120210
        k(    6) = (  -0.4545455   0.4545455  -0.4545455), wk =   0.0120210
        k(    7) = (   0.0000000   0.1818182   0.0000000), wk =   0.0090158
        k(    8) = (  -0.0909091   0.2727273  -0.0909091), wk =   0.0360631
        k(    9) = (  -0.1818182   0.3636364  -0.1818182), wk =   0.0360631
        k(   10) = (  -0.2727273   0.4545455  -0.2727273), wk =   0.0360631
        k(   11) = (  -0.3636364   0.5454545  -0.3636364), wk =   0.0360631
        k(   12) = (   0.5454545  -0.3636364   0.5454545), wk =   0.0360631
        k(   13) = (   0.4545455  -0.2727273   0.4545455), wk =   0.0360631
        k(   14) = (   0.3636364  -0.1818182   0.3636364), wk =   0.0360631
        k(   15) = (   0.2727273  -0.0909091   0.2727273), wk =   0.0360631
        k(   16) = (   0.1818182  -0.0000000   0.1818182), wk =   0.0180316
        k(   17) = (   0.0000000   0.3636364   0.0000000), wk =   0.0090158
        k(   18) = (  -0.0909091   0.4545455  -0.0909091), wk =   0.0360631
        k(   19) = (  -0.1818182   0.5454545  -0.1818182), wk =   0.0360631
        k(   20) = (  -0.2727273   0.6363636  -0.2727273), wk =   0.0360631
        k(   21) = (   0.6363636  -0.2727273   0.6363636), wk =   0.0360631
        k(   22) = (   0.5454545  -0.1818182   0.5454545), wk =   0.0360631
        k(   23) = (   0.4545455  -0.0909091   0.4545455), wk =   0.0360631
        k(   24) = (   0.3636364   0.0000000   0.3636364), wk =   0.0180316
        k(   25) = (   0.0000000   0.5454545   0.0000000), wk =   0.0090158
        k(   26) = (  -0.0909091   0.6363636  -0.0909091), wk =   0.0360631
        k(   27) = (  -0.1818182   0.7272727  -0.1818182), wk =   0.0360631
        k(   28) = (   0.7272727  -0.1818182   0.7272727), wk =   0.0360631
        k(   29) = (   0.6363636  -0.0909091   0.6363636), wk =   0.0360631
        k(   30) = (   0.5454545   0.0000000   0.5454545), wk =   0.0180316
        k(   31) = (   0.0000000   0.7272727   0.0000000), wk =   0.0090158
        k(   32) = (  -0.0909091   0.8181818  -0.0909091), wk =   0.0360631
        k(   33) = (   0.8181818  -0.0909091   0.8181818), wk =   0.0360631
        k(   34) = (   0.7272727   0.0000000   0.7272727), wk =   0.0180316
        k(   35) = (   0.0000000   0.9090909   0.0000000), wk =   0.0090158
        k(   36) = (   0.9090909  -0.0000000   0.9090909), wk =   0.0180316
        k(   37) = (  -0.1818182   0.3636364   0.0000000), wk =   0.0360631
        k(   38) = (  -0.2727273   0.4545455  -0.0909091), wk =   0.0721262
        k(   39) = (  -0.3636364   0.5454545  -0.1818182), wk =   0.0721262
        k(   40) = (   0.5454545  -0.3636364   0.7272727), wk =   0.0721262
        k(   41) = (  -0.1818182   0.5454545   0.0000000), wk =   0.0360631
        k(   42) = (  -0.2727273   0.6363636  -0.0909091), wk =   0.0721262
        k(   43) = (   0.6363636  -0.2727273   0.8181818), wk =   0.0721262
        k(   44) = (   0.5454545  -0.1818182   0.7272727), wk =   0.0721262
        k(   45) = (   0.4545455  -0.0909091   0.6363636), wk =   0.0721262
        k(   46) = (   0.3636364   0.0000000   0.5454545), wk =   0.0360631
        k(   47) = (  -0.1818182   0.7272727   0.0000000), wk =   0.0360631
        k(   48) = (   0.7272727  -0.1818182   0.9090909), wk =   0.0721262
        k(   49) = (   0.6363636  -0.0909091   0.8181818), wk =   0.0721262
        k(   50) = (   0.5454545   0.0000000   0.7272727), wk =   0.0360631
        k(   51) = (   0.8181818  -0.0909091   1.0000000), wk =   0.0360631
        k(   52) = (   0.7272727   0.0000000   0.9090909), wk =   0.0360631
        k(   53) = (   0.6363636  -0.2727273   1.0000000), wk =   0.0360631
        k(   54) = (   0.5454545  -0.1818182   0.9090909), wk =   0.0721262
        k(   55) = (   0.6363636  -0.0909091   1.0000000), wk =   0.0360631
        k(   56) = (   0.5454545   0.0000000   0.9090909), wk =   0.0360631

     Dense  grid:     2229 G-vectors     FFT dimensions: (  20,  20,  20)

     Estimated max dynamical RAM per process >       3.19 MB

     Estimated total dynamical RAM >      15.93 MB

     Check: negative/imaginary core charge=   -0.000002    0.000000

     Initial potential from superposition of free atoms

     starting charge   10.99979, renormalised to   11.00000
     Starting wfcs are    9 randomized atomic wfcs +    1 random wfcs

     total cpu time spent up to now is        0.9 secs

     Self-consistent Calculation

     iteration #  1     ecut=    35.00 Ry     beta= 0.70
     Davidson diagonalization with overlap
     ethr =  1.00E-02,  avg # of iterations =  3.8

     Threshold (ethr) on eigenvalues was too large:
     Diagonalizing with lowered threshold

     Davidson diagonalization with overlap
     ethr =  6.58E-04,  avg # of iterations =  1.0

     total cpu time spent up to now is        1.4 secs

     total energy              =    -122.36303998 Ry
     Harris-Foulkes estimate   =    -122.42009933 Ry
     estimated scf accuracy    <       0.07210947 Ry

     iteration #  2     ecut=    35.00 Ry     beta= 0.70
     Davidson diagonalization with overlap
     ethr =  6.56E-04,  avg # of iterations =  2.0

     total cpu time spent up to now is        1.7 secs

     total energy              =    -122.36500277 Ry
     Harris-Foulkes estimate   =    -122.46393582 Ry
     estimated scf accuracy    <       0.25552860 Ry

     iteration #  3     ecut=    35.00 Ry     beta= 0.70
     Davidson diagonalization with overlap
     ethr =  6.56E-04,  avg # of iterations =  2.0

     total cpu time spent up to now is        1.9 secs

     total energy              =    -122.40560272 Ry
     Harris-Foulkes estimate   =    -122.40563985 Ry
     estimated scf accuracy    <       0.00009097 Ry

     iteration #  4     ecut=    35.00 Ry     beta= 0.70
     Davidson diagonalization with overlap
     ethr =  8.27E-07,  avg # of iterations =  2.4

     total cpu time spent up to now is        2.2 secs

     total energy              =    -122.40566383 Ry
     Harris-Foulkes estimate   =    -122.40566932 Ry
     estimated scf accuracy    <       0.00001421 Ry

     iteration #  5     ecut=    35.00 Ry     beta= 0.70
     Davidson diagonalization with overlap
     ethr =  1.29E-07,  avg # of iterations =  1.2

     total cpu time spent up to now is        2.4 secs

     total energy              =    -122.40566666 Ry
     Harris-Foulkes estimate   =    -122.40566693 Ry
     estimated scf accuracy    <       0.00000074 Ry

     iteration #  6     ecut=    35.00 Ry     beta= 0.70
     Davidson diagonalization with overlap
     ethr =  6.77E-09,  avg # of iterations =  1.3

     total cpu time spent up to now is        2.7 secs

     End of self-consistent calculation

          k = 0.0000 0.0000 0.0000 (   283 PWs)   bands (ev):

     3.0513   9.5005   9.5005   9.5005  10.3351  10.3351  35.3904  37.7558
    37.7558  37.7558

          k =-0.0909 0.0909-0.0909 (   280 PWs)   bands (ev):

     3.3512   9.4377   9.5557   9.5557  10.3156  10.3156  33.0901  36.0795
    36.9436  36.9436

          k =-0.1818 0.1818-0.1818 (   283 PWs)   bands (ev):

     4.2211   9.2977   9.6534   9.6534  10.3179  10.3179  28.3490  35.6525
    35.8714  35.8714

          k =-0.2727 0.2727-0.2727 (   286 PWs)   bands (ev):

     5.5284   9.2479   9.6430   9.6430  10.4737  10.4737  23.8282  34.9992
    35.1068  35.1068

          k =-0.3636 0.3636-0.3636 (   281 PWs)   bands (ev):

     6.8061   9.5477   9.5477   9.7282  10.7196  10.7196  19.8117  34.2916
    34.6825  34.6825

          k =-0.4545 0.4545-0.4545 (   269 PWs)   bands (ev):

     7.3481   9.4755   9.4755  10.8906  10.8906  11.0578  16.7879  33.8560
    34.5257  34.5257

          k = 0.0000 0.1818 0.0000 (   283 PWs)   bands (ev):

     3.4506   9.3822   9.5965   9.5965  10.2294  10.3786  34.1941  35.0088
    35.0088  36.3947

          k =-0.0909 0.2727-0.0909 (   285 PWs)   bands (ev):

     4.1299   9.2410   9.6994   9.7088  10.1548  10.4257  30.1304  33.5269
    34.3066  37.4973

          k =-0.1818 0.3636-0.1818 (   288 PWs)   bands (ev):

     5.3008   9.1157   9.6586   9.7520  10.3284  10.5575  25.4922  32.5586
    33.6682  36.4877

          k =-0.2727 0.4545-0.2727 (   281 PWs)   bands (ev):

     6.6462   9.2393   9.5124   9.6833  10.7676  10.7907  21.2732  32.1424
    33.0146  34.4771

          k =-0.3636 0.5455-0.3636 (   275 PWs)   bands (ev):

     7.4230   9.3792   9.5949   9.8841  10.9102  11.6775  17.7595  31.9447
    32.3284  33.6625

          k = 0.5455-0.3636 0.5455 (   271 PWs)   bands (ev):

     7.5540   9.3626   9.5578  10.1777  10.8827  12.3976  16.3809  30.9002
    33.1745  33.8130

          k = 0.4545-0.2727 0.4545 (   277 PWs)   bands (ev):

     7.2646   9.4390   9.5981   9.7049  10.6788  11.4397  18.8235  30.3563
    34.5623  34.6797

          k = 0.3636-0.1818 0.3636 (   283 PWs)   bands (ev):

     6.2227   9.1850   9.5688   9.6984  10.3827  10.8810  22.6291  30.3609
    35.8260  36.7576

          k = 0.2727-0.0909 0.2727 (   284 PWs)   bands (ev):

     4.8677   9.1787   9.6668   9.7555  10.1679  10.5543  27.0062  30.8872
    37.2697  38.6611

          k = 0.1818-0.0000 0.1818 (   285 PWs)   bands (ev):

     3.8416   9.3277   9.6396   9.6413  10.2097  10.3866  31.4141  32.2243
    37.3271  38.8675

          k = 0.0000 0.3636 0.0000 (   291 PWs)   bands (ev):

     4.6000   9.0698   9.8718   9.8718   9.9779  10.4963  31.7065  31.7065
    32.5108  33.9477

          k =-0.0909 0.4545-0.0909 (   290 PWs)   bands (ev):

     5.5647   8.8924   9.7200   9.9996  10.2647  10.6088  27.5550  30.4527
    32.1374  33.3760

          k =-0.1818 0.5455-0.1818 (   282 PWs)   bands (ev):

     6.7952   8.8135   9.4934   9.9810  10.8027  10.9326  23.2136  29.8267
    30.2434  32.8104

          k =-0.2727 0.6364-0.2727 (   278 PWs)   bands (ev):

     7.6993   8.9419   9.4200   9.8929  10.9343  12.1748  19.3566  28.3943
    29.8842  32.6641

          k = 0.6364-0.2727 0.6364 (   275 PWs)   bands (ev):

     7.9601   9.0318   9.5852   9.8221  10.8912  13.8441  16.6471  27.0025
    30.6667  32.9236

          k = 0.5455-0.1818 0.5455 (   278 PWs)   bands (ev):

     7.8873   9.1434   9.4255   9.8128  10.6673  12.8905  18.2746  26.1642
    32.1432  33.6552

          k = 0.4545-0.0909 0.4545 (   279 PWs)   bands (ev):

     7.2290   9.0462   9.3504   9.8789  10.3371  11.6470  21.8992  25.9255
    34.2309  34.9212

          k = 0.3636 0.0000 0.3636 (   285 PWs)   bands (ev):

     5.9789   9.0292   9.5570  10.0010  10.0095  10.9732  25.8279  26.5562
    36.6736  36.8029

          k = 0.0000 0.5455 0.0000 (   290 PWs)   bands (ev):

     6.2440   8.6722   9.8907  10.2809  10.2809  10.6515  28.9038  28.9038
    29.5962  31.2743

          k =-0.0909 0.6364-0.0909 (   282 PWs)   bands (ev):

     7.1123   8.5201   9.8414  10.3711  10.8083  10.9423  25.4900  27.1759
    28.0072  31.7654

          k =-0.1818 0.7273-0.1818 (   273 PWs)   bands (ev):

     7.8132   8.5005   9.6803  10.3010  10.9549  12.4492  21.5503  25.1011
    27.8470  31.8812

          k = 0.7273-0.1818 0.7273 (   275 PWs)   bands (ev):

     8.2035   8.5949   9.5303  10.2040  10.9186  14.7084  18.1091  23.5230
    28.4645  32.1098

          k = 0.6364-0.0909 0.6364 (   274 PWs)   bands (ev):

     8.3832   8.7502   9.3057  10.1236  10.7077  14.9030  18.0342  22.5233
    29.8190  32.6678

          k = 0.5455 0.0000 0.5455 (   275 PWs)   bands (ev):

     8.1320   9.0308   9.0380  10.0455  10.4462  12.9225  21.0694  22.5482
    31.7874  33.6294

          k = 0.0000 0.7273 0.0000 (   278 PWs)   bands (ev):

     7.4111   8.3176  10.7199  10.7199  10.7962  10.9654  24.4858  26.8180
    26.8180  30.5151

          k =-0.0909 0.8182-0.0909 (   276 PWs)   bands (ev):

     7.6741   8.2418  10.4905  10.6967  10.9672  12.6588  22.3437  24.1082
    26.3901  31.1383

          k = 0.8182-0.0909 0.8182 (   278 PWs)   bands (ev):

     7.9575   8.3135  10.0944  10.5884  10.9658  14.9293  20.5399  20.9184
    26.7923  31.5084

          k = 0.7273 0.0000 0.7273 (   276 PWs)   bands (ev):

     8.2829   8.4807   9.6286  10.4104  10.8233  17.2030  17.4867  20.4446
    27.9788  31.9492

          k = 0.0000 0.9091 0.0000 (   286 PWs)   bands (ev):

     7.6059   8.1116  10.8819  11.0174  11.0174  13.3175  20.3842  25.6772
    25.6772  30.1397

          k = 0.9091-0.0000 0.9091 (   280 PWs)   bands (ev):

     7.7031   8.1397  10.7434  10.8248  11.0323  14.4364  19.6623  23.5993
    25.8180  30.9347

          k =-0.1818 0.3636 0.0000 (   288 PWs)   bands (ev):

     4.9626   9.0767   9.6957   9.8831  10.1060  10.5782  28.6833  29.3078
    35.6066  36.0881

          k =-0.2727 0.4545-0.0909 (   284 PWs)   bands (ev):

     6.1977   8.9651   9.5230   9.9253  10.3160  10.9402  24.4445  28.3405
    33.3368  36.2226

          k =-0.3636 0.5455-0.1818 (   280 PWs)   bands (ev):

     7.3632   9.1056   9.3544   9.8317  10.6629  11.6497  20.3947  28.1811
    31.2894  35.6605

          k = 0.5455-0.3636 0.7273 (   275 PWs)   bands (ev):

     7.8138   9.1555   9.6184   9.7592  10.8541  13.0422  17.1586  28.5897
    29.7350  35.2900

          k =-0.1818 0.5455 0.0000 (   283 PWs)   bands (ev):

     6.5485   8.7268   9.5722  10.2815  10.3650  10.9317  26.3981  26.9354
    30.0702  34.3553

          k =-0.2727 0.6364-0.0909 (   277 PWs)   bands (ev):

     7.5713   8.6791   9.3732  10.2332  10.7013  11.8172  22.4701  26.3556
    27.8401  34.7897

          k = 0.6364-0.2727 0.8182 (   277 PWs)   bands (ev):

     8.1371   8.7584   9.3198  10.1126  10.8754  13.5563  18.8042  25.9986
    26.7005  34.9117

          k = 0.5455-0.1818 0.7273 (   276 PWs)   bands (ev):

     8.2962   8.7985   9.3430  10.0337  10.8312  14.9374  16.9964  24.7846
    27.5813  35.4215

          k = 0.4545-0.0909 0.6364 (   278 PWs)   bands (ev):

     8.1328   8.9396   9.1012  10.0731  10.6146  13.0405  19.9604  24.1337
    29.0575  36.4454

          k = 0.3636 0.0000 0.5455 (   276 PWs)   bands (ev):

     7.3308   8.8702   9.2777  10.1411  10.3102  11.6972  23.5003  24.4263
    31.0170  37.9099

          k =-0.1818 0.7273 0.0000 (   281 PWs)   bands (ev):

     7.6445   8.4088   9.8824  10.6871  10.7176  11.9826  24.6545  24.7396
    25.2859  33.2024

          k = 0.7273-0.1818 0.9091 (   277 PWs)   bands (ev):

     8.0315   8.4408   9.7007  10.5150  10.9259  13.9054  21.1611  22.9134
    25.0951  33.9977

          k = 0.6364-0.0909 0.8182 (   276 PWs)   bands (ev):

     8.3413   8.5505   9.4450  10.3387  10.9020  16.4334  17.9174  21.6103
    25.8572  34.5213

          k = 0.5455 0.0000 0.7273 (   278 PWs)   bands (ev):

     8.5671   8.6670   9.1230  10.2235  10.7335  15.0730  19.2243  21.3700
    27.2154  35.3912

          k = 0.8182-0.0909 1.0000 (   276 PWs)   bands (ev):

     7.7935   8.2227  10.3787  10.7638  11.0175  14.2354  20.5962  23.6868
    24.2840  32.6586

          k = 0.7273 0.0000 0.9091 (   278 PWs)   bands (ev):

     8.0256   8.3569   9.9512  10.5785  11.0150  15.9619  19.9477  20.7332
    24.6366  33.7393

          k = 0.6364-0.2727 1.0000 (   278 PWs)   bands (ev):

     8.1989   8.6829   9.1582  10.3936  10.7156  13.3285  21.7643  22.9772
    25.7246  37.7353

          k = 0.5455-0.1818 0.9091 (   275 PWs)   bands (ev):

     8.4756   8.7254   9.0902  10.2679  10.8896  15.5723  18.6792  23.0395
    24.1166  38.1713

          k = 0.6364-0.0909 1.0000 (   275 PWs)   bands (ev):

     8.2147   8.5638   9.4786  10.4377  11.0164  16.0083  20.8028  21.2881
    22.2658  37.1080

          k = 0.5455 0.0000 0.9091 (   272 PWs)   bands (ev):

     8.3778   8.7876   9.1476  10.3032  11.0151  18.1414  18.1725  20.8015
    22.6917  38.4366

     the Fermi energy is    12.5670 ev

!    total energy              =    -122.40566679 Ry
     Harris-Foulkes estimate   =    -122.40566679 Ry
     estimated scf accuracy    <          2.1E-10 Ry

     The total energy is the sum of the following terms:

     one-electron contribution =     -27.59707357 Ry
     hartree contribution      =      30.53100592 Ry
     xc contribution           =     -44.11423588 Ry
     ewald contribution        =     -81.22522863 Ry
     smearing contrib. (-TS)   =      -0.00013464 Ry

     convergence has been achieved in   6 iterations

     Forces acting on atoms (cartesian axes, Ry/au):

     atom    1 type  1   force =     0.00000000    0.00000000    0.00000000

     Total force =     0.000000     Total SCF correction =     0.000000


     Computing stress (Cartesian axis) and pressure

          total   stress  (Ry/bohr**3)                   (kbar)     P=  -71.84
  -0.00048836   0.00000000   0.00000000        -71.84      0.00      0.00
   0.00000000  -0.00048836  -0.00000000          0.00    -71.84     -0.00
   0.00000000  -0.00000000  -0.00048836          0.00     -0.00    -71.84


     Writing output data file Cu.save/

     init_run     :      0.18s CPU      0.19s WALL (       1 calls)
     electrons    :      1.61s CPU      1.78s WALL (       1 calls)
     forces       :      0.02s CPU      0.02s WALL (       1 calls)
     stress       :      0.07s CPU      0.07s WALL (       1 calls)

     Called by init_run:
     wfcinit      :      0.07s CPU      0.07s WALL (       1 calls)
     potinit      :      0.00s CPU      0.00s WALL (       1 calls)
     hinit0       :      0.11s CPU      0.11s WALL (       1 calls)

     Called by electrons:
     c_bands      :      1.34s CPU      1.47s WALL (       7 calls)
     sum_band     :      0.23s CPU      0.26s WALL (       7 calls)
     v_of_rho     :      0.01s CPU      0.01s WALL (       7 calls)
     newd         :      0.02s CPU      0.02s WALL (       7 calls)
     mix_rho      :      0.00s CPU      0.00s WALL (       7 calls)

     Called by c_bands:
     init_us_2    :      0.03s CPU      0.04s WALL (     952 calls)
     cegterg      :      1.29s CPU      1.41s WALL (     392 calls)

     Called by sum_band:
     sum_band:bec :      0.00s CPU      0.00s WALL (     392 calls)
     addusdens    :      0.01s CPU      0.01s WALL (       7 calls)

     Called by *egterg:
     h_psi        :      0.96s CPU      1.06s WALL (    1221 calls)
     s_psi        :      0.03s CPU      0.03s WALL (    1221 calls)
     g_psi        :      0.00s CPU      0.00s WALL (     773 calls)
     cdiaghg      :      0.19s CPU      0.21s WALL (    1109 calls)

     Called by h_psi:
     h_psi:pot    :      0.96s CPU      1.05s WALL (    1221 calls)
     h_psi:calbec :      0.05s CPU      0.05s WALL (    1221 calls)
     vloc_psi     :      0.88s CPU      0.96s WALL (    1221 calls)
     add_vuspsi   :      0.03s CPU      0.03s WALL (    1221 calls)

     General routines
     calbec       :      0.07s CPU      0.08s WALL (    1893 calls)
     fft          :      0.01s CPU      0.01s WALL (     104 calls)
     ffts         :      0.00s CPU      0.00s WALL (       7 calls)
     fftw         :      0.97s CPU      1.07s WALL (   23748 calls)

     Parallel routines
     fft_scatt_xy :      0.09s CPU      0.10s WALL (   23859 calls)
     fft_scatt_yz :      0.32s CPU      0.35s WALL (   23859 calls)

     PWSCF        :     2.62s CPU         2.88s WALL


   This run was terminated on:  23:17:51  25Mar2024            

=------------------------------------------------------------------------------=
   JOB DONE.
=------------------------------------------------------------------------------=
