
     Program PWSCF v.6.3MaX starts on 25Mar2024 at 23:11:17 

     This program is part of the open-source Quantum ESPRESSO suite
     for quantum simulation of materials; please cite
         "P. Giannozzi et al., J. Phys.:Condens. Matter 21 395502 (2009);
         "P. Giannozzi et al., J. Phys.:Condens. Matter 29 465901 (2017);
          URL http://www.quantum-espresso.org", 
     in publications or presentations arising from this work. More details at
     http://www.quantum-espresso.org/quote

     Parallel version (MPI), running on     5 processors

     MPI processes distributed on     1 nodes
     R & G space division:  proc/nbgrp/npool/nimage =       5
     Waiting for input...
     Reading input from standard input

     Current dimensions of program PWSCF are:
     Max number of different atomic species (ntypx) = 10
     Max number of k-points (npk) =  40000
     Max angular momentum in pseudopotentials (lmaxx) =  3
               file Cu.pbesol-dn-kjpaw_psl.1.0.0.UPF: wavefunction(s)  4S 3D renormalized

     Subspace diagonalization in iterative solution of the eigenvalue problem:
     a serial algorithm will be used


     Parallelization info
     --------------------
     sticks:   dense  smooth     PW     G-vecs:    dense   smooth      PW
     Min          18      18      7                  121      121      33
     Max          19      19      8                  123      123      35
     Sum          91      91     37                  609      609     169



     bravais-lattice index     =            2
     lattice parameter (alat)  =       6.8300  a.u.
     unit-cell volume          =      79.6530 (a.u.)^3
     number of atoms/cell      =            1
     number of atomic types    =            1
     number of electrons       =        11.00
     number of Kohn-Sham states=           10
     kinetic-energy cutoff     =      15.0000  Ry
     charge density cutoff     =      60.0000  Ry
     convergence threshold     =      1.0E-08
     mixing beta               =       0.7000
     number of iterations used =            8  plain     mixing
     Exchange-correlation      = SLA PW PSX PSC ( 1  4 10  8 0 0)

     celldm(1)=   6.830000  celldm(2)=   0.000000  celldm(3)=   0.000000
     celldm(4)=   0.000000  celldm(5)=   0.000000  celldm(6)=   0.000000

     crystal axes: (cart. coord. in units of alat)
               a(1) = (  -0.500000   0.000000   0.500000 )  
               a(2) = (   0.000000   0.500000   0.500000 )  
               a(3) = (  -0.500000   0.500000   0.000000 )  

     reciprocal axes: (cart. coord. in units 2 pi/alat)
               b(1) = ( -1.000000 -1.000000  1.000000 )  
               b(2) = (  1.000000  1.000000  1.000000 )  
               b(3) = ( -1.000000  1.000000 -1.000000 )  


     PseudoPot. # 1 for Cu read from file:
     /home/lorenzo/pseudos/Cu/Cu.pbesol-dn-kjpaw_psl.1.0.0.UPF
     MD5 check sum: 1e9735a74797514c934643dbd229f231
     Pseudo is Projector augmented-wave + core cor, Zval = 11.0
     Generated using "atomic" code by A. Dal Corso v.6.3
     Shape of augmentation charge: PSQ
     Using radial grid of 1199 points,  6 beta functions with: 
                l(1) =   0
                l(2) =   0
                l(3) =   1
                l(4) =   1
                l(5) =   2
                l(6) =   2
     Q(r) pseudized with 0 coefficients 


     atomic species   valence    mass     pseudopotential
        Cu            11.00    63.54600     Cu( 1.00)

     48 Sym. Ops., with inversion, found



   Cartesian axes

     site n.     atom                  positions (alat units)
         1           Cu  tau(   1) = (   0.0000000   0.0000000   0.0000000  )

     number of k points=    10  gaussian smearing, width (Ry)=  0.0100
                       cart. coord. in units 2pi/alat
        k(    1) = (   0.0000000   0.0000000   0.0000000), wk =   0.0160000
        k(    2) = (  -0.2000000   0.2000000  -0.2000000), wk =   0.1280000
        k(    3) = (  -0.4000000   0.4000000  -0.4000000), wk =   0.1280000
        k(    4) = (   0.0000000   0.4000000   0.0000000), wk =   0.0960000
        k(    5) = (  -0.2000000   0.6000000  -0.2000000), wk =   0.3840000
        k(    6) = (   0.6000000  -0.2000000   0.6000000), wk =   0.3840000
        k(    7) = (   0.4000000   0.0000000   0.4000000), wk =   0.1920000
        k(    8) = (   0.0000000   0.8000000   0.0000000), wk =   0.0960000
        k(    9) = (   0.8000000   0.0000000   0.8000000), wk =   0.1920000
        k(   10) = (   0.6000000  -0.2000000   1.0000000), wk =   0.3840000

     Dense  grid:      609 G-vectors     FFT dimensions: (  12,  12,  12)

     Estimated max dynamical RAM per process >       1.17 MB

     Estimated total dynamical RAM >       5.83 MB

     Check: negative/imaginary core charge=   -0.001129    0.000000

     Initial potential from superposition of free atoms

     starting charge   10.99979, renormalised to   11.00000
     Starting wfcs are    9 randomized atomic wfcs +    1 random wfcs
     Checking if some PAW data can be deallocated... 

     total cpu time spent up to now is        0.9 secs

     Self-consistent Calculation

     iteration #  1     ecut=    15.00 Ry     beta= 0.70
     Davidson diagonalization with overlap
     ethr =  1.00E-02,  avg # of iterations =  3.9

     total cpu time spent up to now is        1.1 secs

     total energy              =    -205.56183939 Ry
     Harris-Foulkes estimate   =    -208.44315263 Ry
     estimated scf accuracy    <       3.52860033 Ry

     iteration #  2     ecut=    15.00 Ry     beta= 0.70
     Davidson diagonalization with overlap
     ethr =  1.00E-02,  avg # of iterations =  2.2

     total cpu time spent up to now is        1.3 secs

     total energy              =    -207.23358768 Ry
     Harris-Foulkes estimate   =    -208.08880202 Ry
     estimated scf accuracy    <       1.44507962 Ry

     iteration #  3     ecut=    15.00 Ry     beta= 0.70
     Davidson diagonalization with overlap
     ethr =  1.00E-02,  avg # of iterations =  1.8

     total cpu time spent up to now is        1.4 secs

     total energy              =    -207.31334708 Ry
     Harris-Foulkes estimate   =    -207.39013163 Ry
     estimated scf accuracy    <       0.10654644 Ry

     iteration #  4     ecut=    15.00 Ry     beta= 0.70
     Davidson diagonalization with overlap
     ethr =  9.69E-04,  avg # of iterations =  2.5

     total cpu time spent up to now is        1.5 secs

     total energy              =    -207.33227141 Ry
     Harris-Foulkes estimate   =    -207.39200552 Ry
     estimated scf accuracy    <       0.10837104 Ry

     iteration #  5     ecut=    15.00 Ry     beta= 0.70
     Davidson diagonalization with overlap
     ethr =  9.69E-04,  avg # of iterations =  1.8

     total cpu time spent up to now is        1.7 secs

     total energy              =    -207.35422671 Ry
     Harris-Foulkes estimate   =    -207.35410339 Ry
     estimated scf accuracy    <       0.00004611 Ry

     iteration #  6     ecut=    15.00 Ry     beta= 0.70
     Davidson diagonalization with overlap
     ethr =  4.19E-07,  avg # of iterations =  3.0

     total cpu time spent up to now is        1.8 secs

     total energy              =    -207.35411325 Ry
     Harris-Foulkes estimate   =    -207.35438489 Ry
     estimated scf accuracy    <       0.00044004 Ry

     iteration #  7     ecut=    15.00 Ry     beta= 0.70
     Davidson diagonalization with overlap
     ethr =  4.19E-07,  avg # of iterations =  2.2

     total cpu time spent up to now is        2.0 secs

     total energy              =    -207.35421293 Ry
     Harris-Foulkes estimate   =    -207.35421330 Ry
     estimated scf accuracy    <       0.00000061 Ry

     iteration #  8     ecut=    15.00 Ry     beta= 0.70
     Davidson diagonalization with overlap
     ethr =  5.52E-09,  avg # of iterations =  2.0

     total cpu time spent up to now is        2.1 secs

     total energy              =    -207.35421309 Ry
     Harris-Foulkes estimate   =    -207.35421311 Ry
     estimated scf accuracy    <       0.00000003 Ry

     iteration #  9     ecut=    15.00 Ry     beta= 0.70
     Davidson diagonalization with overlap
     ethr =  2.54E-10,  avg # of iterations =  2.1

     total cpu time spent up to now is        2.2 secs

     End of self-consistent calculation

          k = 0.0000 0.0000 0.0000 (    65 PWs)   bands (ev):

     3.4219   7.8923   7.8923   8.9264   8.9264   8.9264  36.7720  37.1539
    37.1539  37.1539

          k =-0.2000 0.2000-0.2000 (    77 PWs)   bands (ev):

     4.6667   5.3229   5.3229   6.7711   7.8146   7.8146  28.3043  36.0949
    36.0949  37.0577

          k =-0.4000 0.4000-0.4000 (    74 PWs)   bands (ev):

     5.6128   6.3241   6.3241   7.8833   7.8833  10.0408  18.7498  34.1015
    34.1015  35.3155

          k = 0.0000 0.4000 0.0000 (    76 PWs)   bands (ev):

     5.0138   5.9860   5.9860   6.9974   7.0143   7.7913  31.4032  31.4032
    34.3712  35.8286

          k =-0.2000 0.6000-0.2000 (    77 PWs)   bands (ev):

     5.4007   5.9654   6.0602   7.1903   7.2753   9.8287  22.4281  29.4839
    29.6633  34.7606

          k = 0.6000-0.2000 0.6000 (    79 PWs)   bands (ev):

     5.0893   5.8605   5.9719   6.5686   6.9410  13.4725  16.9759  26.1721
    31.1558  34.8859

          k = 0.4000 0.0000 0.4000 (    79 PWs)   bands (ev):

     5.4247   5.4321   5.8108   6.1371   7.3723   8.4190  25.6316  25.9055
    35.9498  37.1518

          k = 0.0000 0.8000 0.0000 (    80 PWs)   bands (ev):

     5.0408   5.1532   6.2813   6.2813   7.0658  11.7380  23.0380  26.1644
    26.1644  33.3667

          k = 0.8000 0.0000 0.8000 (    77 PWs)   bands (ev):

     6.0010   6.2036   6.4475   6.6404   7.1907  15.9703  20.0834  20.6694
    26.8875  34.7218

          k = 0.6000-0.2000 1.0000 (    84 PWs)   bands (ev):

     4.5635   5.0627   5.2129   6.0667   6.1574  13.9986  21.1034  22.0096
    24.5655  39.5011

     the Fermi energy is    11.7583 ev

!    total energy              =    -207.35421310 Ry
     Harris-Foulkes estimate   =    -207.35421310 Ry
     estimated scf accuracy    <          2.6E-10 Ry

     total all-electron energy =     -3304.233274 Ry

     The total energy is the sum of the following terms:

     one-electron contribution =     -21.15543682 Ry
     hartree contribution      =      24.83697273 Ry
     xc contribution           =     -42.39155550 Ry
     ewald contribution        =     -81.22523186 Ry
     one-center paw contrib.   =     -87.41869677 Ry
     smearing contrib. (-TS)   =      -0.00026488 Ry

     convergence has been achieved in   9 iterations

     Forces acting on atoms (cartesian axes, Ry/au):

     atom    1 type  1   force =     0.00000000    0.00000000    0.00000000

     Total force =     0.000000     Total SCF correction =     0.000000


     Computing stress (Cartesian axis) and pressure

          total   stress  (Ry/bohr**3)                   (kbar)     P=********
  -0.11728693  -0.00000000   0.00000000     -17253.50     -0.00      0.00
  -0.00000000  -0.11728693   0.00000000         -0.00 -17253.50      0.00
   0.00000000   0.00000000  -0.11728693          0.00      0.00 -17253.50


     Writing output data file Cu.save/

     init_run     :      0.18s CPU      0.20s WALL (       1 calls)
     electrons    :      1.11s CPU      1.28s WALL (       1 calls)
     forces       :      0.01s CPU      0.01s WALL (       1 calls)
     stress       :      0.01s CPU      0.02s WALL (       1 calls)

     Called by init_run:
     wfcinit      :      0.01s CPU      0.01s WALL (       1 calls)
     potinit      :      0.10s CPU      0.11s WALL (       1 calls)
     hinit0       :      0.06s CPU      0.06s WALL (       1 calls)

     Called by electrons:
     c_bands      :      0.21s CPU      0.25s WALL (       9 calls)
     sum_band     :      0.03s CPU      0.04s WALL (       9 calls)
     v_of_rho     :      0.00s CPU      0.01s WALL (      10 calls)
     newd         :      0.01s CPU      0.01s WALL (      10 calls)
     PAW_pot      :      0.95s CPU      1.07s WALL (      10 calls)
     mix_rho      :      0.00s CPU      0.00s WALL (       9 calls)

     Called by c_bands:
     init_us_2    :      0.00s CPU      0.00s WALL (     210 calls)
     cegterg      :      0.20s CPU      0.24s WALL (      90 calls)

     Called by sum_band:
     sum_band:bec :      0.00s CPU      0.00s WALL (      90 calls)
     addusdens    :      0.01s CPU      0.01s WALL (       9 calls)

     Called by *egterg:
     h_psi        :      0.12s CPU      0.14s WALL (     315 calls)
     s_psi        :      0.00s CPU      0.00s WALL (     315 calls)
     g_psi        :      0.00s CPU      0.00s WALL (     215 calls)
     cdiaghg      :      0.06s CPU      0.07s WALL (     305 calls)

     Called by h_psi:
     h_psi:pot    :      0.12s CPU      0.14s WALL (     315 calls)
     h_psi:calbec :      0.01s CPU      0.01s WALL (     315 calls)
     vloc_psi     :      0.10s CPU      0.12s WALL (     315 calls)
     add_vuspsi   :      0.00s CPU      0.00s WALL (     315 calls)

     General routines
     calbec       :      0.01s CPU      0.01s WALL (     455 calls)
     fft          :      0.00s CPU      0.01s WALL (     136 calls)
     ffts         :      0.00s CPU      0.00s WALL (       9 calls)
     fftw         :      0.11s CPU      0.12s WALL (    5754 calls)

     Parallel routines
     fft_scatt_xy :      0.01s CPU      0.02s WALL (    5899 calls)
     fft_scatt_yz :      0.05s CPU      0.06s WALL (    5899 calls)

     PWSCF        :     2.07s CPU         2.30s WALL


   This run was terminated on:  23:11:19  25Mar2024            

=------------------------------------------------------------------------------=
   JOB DONE.
=------------------------------------------------------------------------------=
