
     Program PWSCF v.6.3MaX starts on 25Mar2024 at 23:24:54 

     This program is part of the open-source Quantum ESPRESSO suite
     for quantum simulation of materials; please cite
         "P. Giannozzi et al., J. Phys.:Condens. Matter 21 395502 (2009);
         "P. Giannozzi et al., J. Phys.:Condens. Matter 29 465901 (2017);
          URL http://www.quantum-espresso.org", 
     in publications or presentations arising from this work. More details at
     http://www.quantum-espresso.org/quote

     Parallel version (MPI), running on     5 processors

     MPI processes distributed on     1 nodes
     R & G space division:  proc/nbgrp/npool/nimage =       5
     Waiting for input...
     Reading input from standard input

     Current dimensions of program PWSCF are:
     Max number of different atomic species (ntypx) = 10
     Max number of k-points (npk) =  40000
     Max angular momentum in pseudopotentials (lmaxx) =  3
               file Cu.pbesol-dn-rrkjus_psl.1.0.0.UPF: wavefunction(s)  3D renormalized

     Subspace diagonalization in iterative solution of the eigenvalue problem:
     a serial algorithm will be used


     Parallelization info
     --------------------
     sticks:   dense  smooth     PW     G-vecs:    dense   smooth      PW
     Min          62      62     21                  765      765     144
     Max          63      63     22                  770      770     146
     Sum         313     313    109                 3839     3839     725



     bravais-lattice index     =            2
     lattice parameter (alat)  =       6.8300  a.u.
     unit-cell volume          =      79.6530 (a.u.)^3
     number of atoms/cell      =            1
     number of atomic types    =            1
     number of electrons       =        11.00
     number of Kohn-Sham states=           10
     kinetic-energy cutoff     =      50.0000  Ry
     charge density cutoff     =     200.0000  Ry
     convergence threshold     =      1.0E-08
     mixing beta               =       0.7000
     number of iterations used =            8  plain     mixing
     Exchange-correlation      = PBESOL ( 1  4 10  8 0 0)

     celldm(1)=   6.830000  celldm(2)=   0.000000  celldm(3)=   0.000000
     celldm(4)=   0.000000  celldm(5)=   0.000000  celldm(6)=   0.000000

     crystal axes: (cart. coord. in units of alat)
               a(1) = (  -0.500000   0.000000   0.500000 )  
               a(2) = (   0.000000   0.500000   0.500000 )  
               a(3) = (  -0.500000   0.500000   0.000000 )  

     reciprocal axes: (cart. coord. in units 2 pi/alat)
               b(1) = ( -1.000000 -1.000000  1.000000 )  
               b(2) = (  1.000000  1.000000  1.000000 )  
               b(3) = ( -1.000000  1.000000 -1.000000 )  


     PseudoPot. # 1 for Cu read from file:
     /home/lorenzo/pseudos/Cu/Cu.pbesol-dn-rrkjus_psl.1.0.0.UPF
     MD5 check sum: bfa4c7aafbc42e028d5f4ccf7ceed93d
     Pseudo is Ultrasoft + core correction, Zval = 11.0
     Generated using "atomic" code by A. Dal Corso v.6.3
     Using radial grid of 1199 points,  6 beta functions with: 
                l(1) =   0
                l(2) =   0
                l(3) =   1
                l(4) =   1
                l(5) =   2
                l(6) =   2
     Q(r) pseudized with 0 coefficients 


     atomic species   valence    mass     pseudopotential
        Cu            11.00    63.54600     Cu( 1.00)

     48 Sym. Ops., with inversion, found



   Cartesian axes

     site n.     atom                  positions (alat units)
         1           Cu  tau(   1) = (   0.0000000   0.0000000   0.0000000  )

     number of k points=    20  gaussian smearing, width (Ry)=  0.0100
                       cart. coord. in units 2pi/alat
        k(    1) = (   0.0000000   0.0000000   0.0000000), wk =   0.0058309
        k(    2) = (  -0.1428571   0.1428571  -0.1428571), wk =   0.0466472
        k(    3) = (  -0.2857143   0.2857143  -0.2857143), wk =   0.0466472
        k(    4) = (  -0.4285714   0.4285714  -0.4285714), wk =   0.0466472
        k(    5) = (   0.0000000   0.2857143   0.0000000), wk =   0.0349854
        k(    6) = (  -0.1428571   0.4285714  -0.1428571), wk =   0.1399417
        k(    7) = (  -0.2857143   0.5714286  -0.2857143), wk =   0.1399417
        k(    8) = (   0.5714286  -0.2857143   0.5714286), wk =   0.1399417
        k(    9) = (   0.4285714  -0.1428571   0.4285714), wk =   0.1399417
        k(   10) = (   0.2857143  -0.0000000   0.2857143), wk =   0.0699708
        k(   11) = (   0.0000000   0.5714286   0.0000000), wk =   0.0349854
        k(   12) = (  -0.1428571   0.7142857  -0.1428571), wk =   0.1399417
        k(   13) = (   0.7142857  -0.1428571   0.7142857), wk =   0.1399417
        k(   14) = (   0.5714286   0.0000000   0.5714286), wk =   0.0699708
        k(   15) = (   0.0000000   0.8571429   0.0000000), wk =   0.0349854
        k(   16) = (   0.8571429  -0.0000000   0.8571429), wk =   0.0699708
        k(   17) = (  -0.2857143   0.5714286   0.0000000), wk =   0.1399417
        k(   18) = (   0.5714286  -0.2857143   0.8571429), wk =   0.2798834
        k(   19) = (   0.7142857  -0.1428571   1.0000000), wk =   0.1399417
        k(   20) = (   0.5714286   0.0000000   0.8571429), wk =   0.1399417

     Dense  grid:     3839 G-vectors     FFT dimensions: (  24,  24,  24)

     Estimated max dynamical RAM per process >       4.44 MB

     Estimated total dynamical RAM >      22.22 MB

     Check: negative/imaginary core charge=   -0.000002    0.000000

     Initial potential from superposition of free atoms

     starting charge   10.99979, renormalised to   11.00000
     Starting wfcs are    9 randomized atomic wfcs +    1 random wfcs

     total cpu time spent up to now is        0.9 secs

     Self-consistent Calculation

     iteration #  1     ecut=    50.00 Ry     beta= 0.70
     Davidson diagonalization with overlap
     ethr =  1.00E-02,  avg # of iterations =  3.6

     Threshold (ethr) on eigenvalues was too large:
     Diagonalizing with lowered threshold

     Davidson diagonalization with overlap
     ethr =  6.57E-04,  avg # of iterations =  1.0

     total cpu time spent up to now is        1.2 secs

     total energy              =    -122.36868750 Ry
     Harris-Foulkes estimate   =    -122.42589524 Ry
     estimated scf accuracy    <       0.07199460 Ry

     iteration #  2     ecut=    50.00 Ry     beta= 0.70
     Davidson diagonalization with overlap
     ethr =  6.54E-04,  avg # of iterations =  2.1

     total cpu time spent up to now is        1.3 secs

     total energy              =    -122.37098418 Ry
     Harris-Foulkes estimate   =    -122.47120591 Ry
     estimated scf accuracy    <       0.25988309 Ry

     iteration #  3     ecut=    50.00 Ry     beta= 0.70
     Davidson diagonalization with overlap
     ethr =  6.54E-04,  avg # of iterations =  2.1

     total cpu time spent up to now is        1.4 secs

     total energy              =    -122.41169391 Ry
     Harris-Foulkes estimate   =    -122.41174656 Ry
     estimated scf accuracy    <       0.00013362 Ry

     iteration #  4     ecut=    50.00 Ry     beta= 0.70
     Davidson diagonalization with overlap
     ethr =  1.21E-06,  avg # of iterations =  2.6

     total cpu time spent up to now is        1.6 secs

     total energy              =    -122.41178513 Ry
     Harris-Foulkes estimate   =    -122.41178986 Ry
     estimated scf accuracy    <       0.00001537 Ry

     iteration #  5     ecut=    50.00 Ry     beta= 0.70
     Davidson diagonalization with overlap
     ethr =  1.40E-07,  avg # of iterations =  1.0

     total cpu time spent up to now is        1.7 secs

     total energy              =    -122.41178751 Ry
     Harris-Foulkes estimate   =    -122.41178753 Ry
     estimated scf accuracy    <       0.00000007 Ry

     iteration #  6     ecut=    50.00 Ry     beta= 0.70
     Davidson diagonalization with overlap
     ethr =  5.97E-10,  avg # of iterations =  3.0

     total cpu time spent up to now is        1.8 secs

     End of self-consistent calculation

          k = 0.0000 0.0000 0.0000 (   531 PWs)   bands (ev):

     3.0520   9.5075   9.5075   9.5075  10.3425  10.3425  35.3897  37.7570
    37.7570  37.7570

          k =-0.1429 0.1429-0.1429 (   489 PWs)   bands (ev):

     3.7839   9.3675   9.6242   9.6242  10.3125  10.3125  30.3694  35.8433
    36.2717  36.2717

          k =-0.2857 0.2857-0.2857 (   483 PWs)   bands (ev):

     5.7318   9.2743   9.6392   9.6392  10.5170  10.5170  23.2051  34.8829
    35.0075  35.0075

          k =-0.4286 0.4286-0.4286 (   471 PWs)   bands (ev):

     7.2718   9.4974   9.4974  10.6603  10.8662  10.8662  17.4743  33.9356
    34.5486  34.5486

          k = 0.0000 0.2857 0.0000 (   487 PWs)   bands (ev):

     4.0243   9.2287   9.7420   9.7420  10.1003  10.4466  33.0576  33.0576
    33.1618  35.0739

          k =-0.1429 0.4286-0.1429 (   482 PWs)   bands (ev):

     5.5761   8.9824   9.6586   9.8897  10.3637  10.6265  25.9847  31.1676
    32.7069  34.3760

          k =-0.2857 0.5714-0.2857 (   473 PWs)   bands (ev):

     7.4099   9.1427   9.4491   9.7797  10.9100  11.6078  19.5749  30.3468
    30.7780  33.0730

          k = 0.5714-0.2857 0.5714 (   469 PWs)   bands (ev):

     7.7720   9.2227   9.6934   9.7933  10.8487  13.1337  16.6246  28.3606
    32.0736  33.4736

          k = 0.4286-0.1429 0.4286 (   477 PWs)   bands (ev):

     6.9487   9.1449   9.4422   9.7841  10.4031  11.3728  21.5784  27.7452
    35.0061  35.2170

          k = 0.2857-0.0000 0.2857 (   481 PWs)   bands (ev):

     4.9403   9.1525   9.6692   9.8348  10.0909  10.6245  28.1154  28.8037
    38.3233  38.5896

          k = 0.0000 0.5714 0.0000 (   472 PWs)   bands (ev):

     6.4756   8.6221   9.9459  10.3548  10.3548  10.6822  28.5501  28.5501
    28.8260  31.1005

          k =-0.1429 0.7143-0.1429 (   468 PWs)   bands (ev):

     7.6470   8.4551   9.8333  10.3962  10.9381  11.9537  22.9856  25.2013
    27.5694  31.7145

          k = 0.7143-0.1429 0.7143 (   466 PWs)   bands (ev):

     8.2774   8.5846   9.5281  10.2434  10.8886  15.4815  17.5952  22.7192
    28.4907  32.1002

          k = 0.5714 0.0000 0.5714 (   478 PWs)   bands (ev):

     8.2888   8.9505   9.0830  10.0883  10.5166  13.4199  20.4526  22.1302
    31.1412  33.2908

          k = 0.0000 0.8571 0.0000 (   468 PWs)   bands (ev):

     7.5959   8.1564  10.8746  10.9677  10.9677  12.6549  21.3442  25.8919
    25.8919  30.1689

          k = 0.8571-0.0000 0.8571 (   466 PWs)   bands (ev):

     7.8348   8.2222  10.4218  10.7397  11.0035  15.0698  19.7639  21.8485
    26.2323  31.2379

          k =-0.2857 0.5714 0.0000 (   473 PWs)   bands (ev):

     7.1616   8.7678   9.3640  10.3055  10.3604  11.4638  24.3925  25.1709
    29.7297  36.6487

          k = 0.5714-0.2857 0.8571 (   482 PWs)   bands (ev):

     8.2583   8.8128   9.2059  10.1207  10.8080  13.8193  18.7321  25.0472
    26.7565  36.7788

          k = 0.7143-0.1429 1.0000 (   473 PWs)   bands (ev):

     8.0398   8.4240   9.7576  10.5963  10.9656  14.4601  21.9711  22.1975
    23.2328  35.1488

          k = 0.5714 0.0000 0.8571 (   471 PWs)   bands (ev):

     8.4088   8.6877   9.2494  10.3212  10.9630  17.5249  18.0315  20.7559
    24.1323  36.7911

     the Fermi energy is    12.6346 ev

!    total energy              =    -122.41178754 Ry
     Harris-Foulkes estimate   =    -122.41178754 Ry
     estimated scf accuracy    <          1.9E-09 Ry

     The total energy is the sum of the following terms:

     one-electron contribution =     -27.61314509 Ry
     hartree contribution      =      30.54080979 Ry
     xc contribution           =     -44.11412711 Ry
     ewald contribution        =     -81.22522859 Ry
     smearing contrib. (-TS)   =      -0.00009653 Ry

     convergence has been achieved in   6 iterations

     Forces acting on atoms (cartesian axes, Ry/au):

     atom    1 type  1   force =     0.00000000    0.00000000    0.00000000

     Total force =     0.000000     Total SCF correction =     0.000000


     Computing stress (Cartesian axis) and pressure

          total   stress  (Ry/bohr**3)                   (kbar)     P=  -70.81
  -0.00048138   0.00000000   0.00000000        -70.81      0.00      0.00
   0.00000000  -0.00048138  -0.00000000          0.00    -70.81     -0.00
   0.00000000  -0.00000000  -0.00048138          0.00     -0.00    -70.81


     Writing output data file Cu.save/

     init_run     :      0.17s CPU      0.18s WALL (       1 calls)
     electrons    :      0.88s CPU      0.95s WALL (       1 calls)
     forces       :      0.02s CPU      0.02s WALL (       1 calls)
     stress       :      0.07s CPU      0.07s WALL (       1 calls)

     Called by init_run:
     wfcinit      :      0.03s CPU      0.04s WALL (       1 calls)
     potinit      :      0.01s CPU      0.01s WALL (       1 calls)
     hinit0       :      0.13s CPU      0.13s WALL (       1 calls)

     Called by electrons:
     c_bands      :      0.67s CPU      0.73s WALL (       7 calls)
     sum_band     :      0.15s CPU      0.17s WALL (       7 calls)
     v_of_rho     :      0.03s CPU      0.03s WALL (       7 calls)
     newd         :      0.03s CPU      0.03s WALL (       7 calls)
     mix_rho      :      0.00s CPU      0.00s WALL (       7 calls)

     Called by c_bands:
     init_us_2    :      0.02s CPU      0.02s WALL (     340 calls)
     cegterg      :      0.64s CPU      0.70s WALL (     140 calls)

     Called by sum_band:
     sum_band:bec :      0.00s CPU      0.00s WALL (     140 calls)
     addusdens    :      0.03s CPU      0.03s WALL (       7 calls)

     Called by *egterg:
     h_psi        :      0.50s CPU      0.54s WALL (     469 calls)
     s_psi        :      0.01s CPU      0.02s WALL (     469 calls)
     g_psi        :      0.00s CPU      0.00s WALL (     309 calls)
     cdiaghg      :      0.08s CPU      0.09s WALL (     429 calls)

     Called by h_psi:
     h_psi:pot    :      0.50s CPU      0.54s WALL (     469 calls)
     h_psi:calbec :      0.02s CPU      0.02s WALL (     469 calls)
     vloc_psi     :      0.46s CPU      0.49s WALL (     469 calls)
     add_vuspsi   :      0.01s CPU      0.02s WALL (     469 calls)

     General routines
     calbec       :      0.04s CPU      0.04s WALL (     709 calls)
     fft          :      0.02s CPU      0.02s WALL (     104 calls)
     ffts         :      0.00s CPU      0.00s WALL (       7 calls)
     fftw         :      0.51s CPU      0.56s WALL (    8620 calls)

     Parallel routines
     fft_scatt_xy :      0.05s CPU      0.05s WALL (    8731 calls)
     fft_scatt_yz :      0.17s CPU      0.18s WALL (    8731 calls)

     PWSCF        :     1.84s CPU         1.98s WALL


   This run was terminated on:  23:24:56  25Mar2024            

=------------------------------------------------------------------------------=
   JOB DONE.
=------------------------------------------------------------------------------=
