
     Program PWSCF v.6.3MaX starts on 25Mar2024 at 23:32:38 

     This program is part of the open-source Quantum ESPRESSO suite
     for quantum simulation of materials; please cite
         "P. Giannozzi et al., J. Phys.:Condens. Matter 21 395502 (2009);
         "P. Giannozzi et al., J. Phys.:Condens. Matter 29 465901 (2017);
          URL http://www.quantum-espresso.org", 
     in publications or presentations arising from this work. More details at
     http://www.quantum-espresso.org/quote

     Parallel version (MPI), running on     5 processors

     MPI processes distributed on     1 nodes
     R & G space division:  proc/nbgrp/npool/nimage =       5
     Waiting for input...
     Reading input from standard input

     Current dimensions of program PWSCF are:
     Max number of different atomic species (ntypx) = 10
     Max number of k-points (npk) =  40000
     Max angular momentum in pseudopotentials (lmaxx) =  3
               file Cu.pbe-dn-kjpaw_psl.1.0.0.UPF: wavefunction(s)  4S 3D renormalized

     Subspace diagonalization in iterative solution of the eigenvalue problem:
     a serial algorithm will be used


     Parallelization info
     --------------------
     sticks:   dense  smooth     PW     G-vecs:    dense   smooth      PW
     Min          87      87     30                 1245     1245     241
     Max          88      88     31                 1247     1247     244
     Sum         439     439    151                 6231     6231    1211



     bravais-lattice index     =            2
     lattice parameter (alat)  =       6.8300  a.u.
     unit-cell volume          =      79.6530 (a.u.)^3
     number of atoms/cell      =            1
     number of atomic types    =            1
     number of electrons       =        11.00
     number of Kohn-Sham states=           10
     kinetic-energy cutoff     =      70.0000  Ry
     charge density cutoff     =     280.0000  Ry
     convergence threshold     =      1.0E-08
     mixing beta               =       0.7000
     number of iterations used =            8  plain     mixing
     Exchange-correlation      = SLA PW PBX PBC ( 1  4  3  4 0 0)

     celldm(1)=   6.830000  celldm(2)=   0.000000  celldm(3)=   0.000000
     celldm(4)=   0.000000  celldm(5)=   0.000000  celldm(6)=   0.000000

     crystal axes: (cart. coord. in units of alat)
               a(1) = (  -0.500000   0.000000   0.500000 )  
               a(2) = (   0.000000   0.500000   0.500000 )  
               a(3) = (  -0.500000   0.500000   0.000000 )  

     reciprocal axes: (cart. coord. in units 2 pi/alat)
               b(1) = ( -1.000000 -1.000000  1.000000 )  
               b(2) = (  1.000000  1.000000  1.000000 )  
               b(3) = ( -1.000000  1.000000 -1.000000 )  


     PseudoPot. # 1 for Cu read from file:
     /home/lorenzo/pseudos/Cu/Cu.pbe-dn-kjpaw_psl.1.0.0.UPF
     MD5 check sum: cfffd1f38ee05704b3e17f46f1730a6f
     Pseudo is Projector augmented-wave + core cor, Zval = 11.0
     Generated using "atomic" code by A. Dal Corso v.6.3
     Shape of augmentation charge: PSQ
     Using radial grid of 1199 points,  6 beta functions with: 
                l(1) =   0
                l(2) =   0
                l(3) =   1
                l(4) =   1
                l(5) =   2
                l(6) =   2
     Q(r) pseudized with 0 coefficients 


     atomic species   valence    mass     pseudopotential
        Cu            11.00    63.54600     Cu( 1.00)

     48 Sym. Ops., with inversion, found



   Cartesian axes

     site n.     atom                  positions (alat units)
         1           Cu  tau(   1) = (   0.0000000   0.0000000   0.0000000  )

     number of k points=    56  gaussian smearing, width (Ry)=  0.0100
                       cart. coord. in units 2pi/alat
        k(    1) = (   0.0000000   0.0000000   0.0000000), wk =   0.0015026
        k(    2) = (  -0.0909091   0.0909091  -0.0909091), wk =   0.0120210
        k(    3) = (  -0.1818182   0.1818182  -0.1818182), wk =   0.0120210
        k(    4) = (  -0.2727273   0.2727273  -0.2727273), wk =   0.0120210
        k(    5) = (  -0.3636364   0.3636364  -0.3636364), wk =   0.0120210
        k(    6) = (  -0.4545455   0.4545455  -0.4545455), wk =   0.0120210
        k(    7) = (   0.0000000   0.1818182   0.0000000), wk =   0.0090158
        k(    8) = (  -0.0909091   0.2727273  -0.0909091), wk =   0.0360631
        k(    9) = (  -0.1818182   0.3636364  -0.1818182), wk =   0.0360631
        k(   10) = (  -0.2727273   0.4545455  -0.2727273), wk =   0.0360631
        k(   11) = (  -0.3636364   0.5454545  -0.3636364), wk =   0.0360631
        k(   12) = (   0.5454545  -0.3636364   0.5454545), wk =   0.0360631
        k(   13) = (   0.4545455  -0.2727273   0.4545455), wk =   0.0360631
        k(   14) = (   0.3636364  -0.1818182   0.3636364), wk =   0.0360631
        k(   15) = (   0.2727273  -0.0909091   0.2727273), wk =   0.0360631
        k(   16) = (   0.1818182  -0.0000000   0.1818182), wk =   0.0180316
        k(   17) = (   0.0000000   0.3636364   0.0000000), wk =   0.0090158
        k(   18) = (  -0.0909091   0.4545455  -0.0909091), wk =   0.0360631
        k(   19) = (  -0.1818182   0.5454545  -0.1818182), wk =   0.0360631
        k(   20) = (  -0.2727273   0.6363636  -0.2727273), wk =   0.0360631
        k(   21) = (   0.6363636  -0.2727273   0.6363636), wk =   0.0360631
        k(   22) = (   0.5454545  -0.1818182   0.5454545), wk =   0.0360631
        k(   23) = (   0.4545455  -0.0909091   0.4545455), wk =   0.0360631
        k(   24) = (   0.3636364   0.0000000   0.3636364), wk =   0.0180316
        k(   25) = (   0.0000000   0.5454545   0.0000000), wk =   0.0090158
        k(   26) = (  -0.0909091   0.6363636  -0.0909091), wk =   0.0360631
        k(   27) = (  -0.1818182   0.7272727  -0.1818182), wk =   0.0360631
        k(   28) = (   0.7272727  -0.1818182   0.7272727), wk =   0.0360631
        k(   29) = (   0.6363636  -0.0909091   0.6363636), wk =   0.0360631
        k(   30) = (   0.5454545   0.0000000   0.5454545), wk =   0.0180316
        k(   31) = (   0.0000000   0.7272727   0.0000000), wk =   0.0090158
        k(   32) = (  -0.0909091   0.8181818  -0.0909091), wk =   0.0360631
        k(   33) = (   0.8181818  -0.0909091   0.8181818), wk =   0.0360631
        k(   34) = (   0.7272727   0.0000000   0.7272727), wk =   0.0180316
        k(   35) = (   0.0000000   0.9090909   0.0000000), wk =   0.0090158
        k(   36) = (   0.9090909  -0.0000000   0.9090909), wk =   0.0180316
        k(   37) = (  -0.1818182   0.3636364   0.0000000), wk =   0.0360631
        k(   38) = (  -0.2727273   0.4545455  -0.0909091), wk =   0.0721262
        k(   39) = (  -0.3636364   0.5454545  -0.1818182), wk =   0.0721262
        k(   40) = (   0.5454545  -0.3636364   0.7272727), wk =   0.0721262
        k(   41) = (  -0.1818182   0.5454545   0.0000000), wk =   0.0360631
        k(   42) = (  -0.2727273   0.6363636  -0.0909091), wk =   0.0721262
        k(   43) = (   0.6363636  -0.2727273   0.8181818), wk =   0.0721262
        k(   44) = (   0.5454545  -0.1818182   0.7272727), wk =   0.0721262
        k(   45) = (   0.4545455  -0.0909091   0.6363636), wk =   0.0721262
        k(   46) = (   0.3636364   0.0000000   0.5454545), wk =   0.0360631
        k(   47) = (  -0.1818182   0.7272727   0.0000000), wk =   0.0360631
        k(   48) = (   0.7272727  -0.1818182   0.9090909), wk =   0.0721262
        k(   49) = (   0.6363636  -0.0909091   0.8181818), wk =   0.0721262
        k(   50) = (   0.5454545   0.0000000   0.7272727), wk =   0.0360631
        k(   51) = (   0.8181818  -0.0909091   1.0000000), wk =   0.0360631
        k(   52) = (   0.7272727   0.0000000   0.9090909), wk =   0.0360631
        k(   53) = (   0.6363636  -0.2727273   1.0000000), wk =   0.0360631
        k(   54) = (   0.5454545  -0.1818182   0.9090909), wk =   0.0721262
        k(   55) = (   0.6363636  -0.0909091   1.0000000), wk =   0.0360631
        k(   56) = (   0.5454545   0.0000000   0.9090909), wk =   0.0360631

     Dense  grid:     6231 G-vectors     FFT dimensions: (  25,  25,  25)

     Estimated max dynamical RAM per process >       7.42 MB

     Estimated total dynamical RAM >      37.09 MB

     Initial potential from superposition of free atoms

     starting charge   10.99977, renormalised to   11.00000
     Starting wfcs are    9 randomized atomic wfcs +    1 random wfcs
     Checking if some PAW data can be deallocated... 

     total cpu time spent up to now is        1.2 secs

     Self-consistent Calculation

     iteration #  1     ecut=    70.00 Ry     beta= 0.70
     Davidson diagonalization with overlap
     ethr =  1.00E-02,  avg # of iterations =  3.8

     Threshold (ethr) on eigenvalues was too large:
     Diagonalizing with lowered threshold

     Davidson diagonalization with overlap
     ethr =  5.67E-04,  avg # of iterations =  1.1

     total cpu time spent up to now is        2.6 secs

     total energy              =    -213.06043851 Ry
     Harris-Foulkes estimate   =    -213.10933448 Ry
     estimated scf accuracy    <       0.06208655 Ry

     iteration #  2     ecut=    70.00 Ry     beta= 0.70
     Davidson diagonalization with overlap
     ethr =  5.64E-04,  avg # of iterations =  2.0

     total cpu time spent up to now is        3.2 secs

     total energy              =    -213.06163952 Ry
     Harris-Foulkes estimate   =    -213.14803174 Ry
     estimated scf accuracy    <       0.22437348 Ry

     iteration #  3     ecut=    70.00 Ry     beta= 0.70
     Davidson diagonalization with overlap
     ethr =  5.64E-04,  avg # of iterations =  2.0

     total cpu time spent up to now is        3.8 secs

     total energy              =    -213.09723484 Ry
     Harris-Foulkes estimate   =    -213.09726399 Ry
     estimated scf accuracy    <       0.00007628 Ry

     iteration #  4     ecut=    70.00 Ry     beta= 0.70
     Davidson diagonalization with overlap
     ethr =  6.93E-07,  avg # of iterations =  2.4

     total cpu time spent up to now is        4.4 secs

     total energy              =    -213.09727871 Ry
     Harris-Foulkes estimate   =    -213.09728625 Ry
     estimated scf accuracy    <       0.00002102 Ry

     iteration #  5     ecut=    70.00 Ry     beta= 0.70
     Davidson diagonalization with overlap
     ethr =  1.91E-07,  avg # of iterations =  1.2

     total cpu time spent up to now is        4.9 secs

     total energy              =    -213.09728265 Ry
     Harris-Foulkes estimate   =    -213.09728288 Ry
     estimated scf accuracy    <       0.00000061 Ry

     iteration #  6     ecut=    70.00 Ry     beta= 0.70
     Davidson diagonalization with overlap
     ethr =  5.58E-09,  avg # of iterations =  1.4

     total cpu time spent up to now is        5.4 secs

     End of self-consistent calculation

          k = 0.0000 0.0000 0.0000 (   749 PWs)   bands (ev):

     3.2679   9.6640   9.6640   9.6640  10.4955  10.4955  35.5877  37.9877
    37.9877  37.9877

          k =-0.0909 0.0909-0.0909 (   791 PWs)   bands (ev):

     3.5678   9.6015   9.7187   9.7187  10.4755  10.4755  33.2793  36.2881
    37.1473  37.1473

          k =-0.1818 0.1818-0.1818 (   794 PWs)   bands (ev):

     4.4375   9.4632   9.8161   9.8161  10.4780  10.4780  28.5459  35.8470
    36.0701  36.0701

          k =-0.2727 0.2727-0.2727 (   796 PWs)   bands (ev):

     5.7423   9.4182   9.8062   9.8062  10.6335  10.6335  24.0224  35.1882
    35.3164  35.3164

          k =-0.3636 0.3636-0.3636 (   784 PWs)   bands (ev):

     7.0076   9.7118   9.7118   9.9150  10.8779  10.8779  20.0052  34.4841
    34.9065  34.9065

          k =-0.4545 0.4545-0.4545 (   787 PWs)   bands (ev):

     7.5342   9.6400   9.6400  11.0465  11.0465  11.2675  16.9766  34.0520
    34.7663  34.7663

          k = 0.0000 0.1818 0.0000 (   797 PWs)   bands (ev):

     3.6672   9.5461   9.7594   9.7594  10.3900  10.5387  34.3658  35.2109
    35.2109  36.6055

          k =-0.0909 0.2727-0.0909 (   795 PWs)   bands (ev):

     4.3463   9.4059   9.8620   9.8715  10.3165  10.5851  30.3237  33.7352
    34.4881  37.6896

          k =-0.1818 0.3636-0.1818 (   794 PWs)   bands (ev):

     5.5158   9.2831   9.8220   9.9147  10.4902  10.7168  25.6916  32.7700
    33.8454  36.6944

          k =-0.2727 0.4545-0.2727 (   790 PWs)   bands (ev):

     6.8528   9.4145   9.6767   9.8465  10.9257  10.9538  21.4708  32.3555
    33.1866  34.6966

          k =-0.3636 0.5455-0.3636 (   789 PWs)   bands (ev):

     7.6116   9.5455   9.7589  10.0633  11.0662  11.8574  17.9526  32.1333
    32.5472  33.8749

          k = 0.5455-0.3636 0.5455 (   788 PWs)   bands (ev):

     7.7376   9.5285   9.7220  10.3532  11.0386  12.5903  16.5689  31.0996
    33.3938  34.0221

          k = 0.4545-0.2727 0.4545 (   789 PWs)   bands (ev):

     7.4586   9.6042   9.7620   9.8871  10.8371  11.6085  19.0177  30.5581
    34.7717  34.8979

          k = 0.3636-0.1818 0.3636 (   788 PWs)   bands (ev):

     6.4337   9.3567   9.7332   9.8615  10.5428  11.0407  22.8258  30.5636
    36.0330  36.9803

          k = 0.2727-0.0909 0.2727 (   800 PWs)   bands (ev):

     5.0836   9.3450   9.8301   9.9177  10.3292  10.7142  27.2041  31.0867
    37.4745  38.8598

          k = 0.1818-0.0000 0.1818 (   797 PWs)   bands (ev):

     4.0581   9.4923   9.8022   9.8042  10.3705  10.5468  31.6044  32.4280
    37.5414  39.0900

          k = 0.0000 0.3636 0.0000 (   801 PWs)   bands (ev):

     4.8161   9.2353  10.0339  10.0339  10.1415  10.6554  31.9199  31.9199
    32.6784  34.1275

          k =-0.0909 0.4545-0.0909 (   806 PWs)   bands (ev):

     5.7792   9.0590   9.8846  10.1615  10.4275  10.7676  27.7581  30.6703
    32.3061  33.5643

          k =-0.1818 0.5455-0.1818 (   796 PWs)   bands (ev):

     7.0029   8.9829   9.6599  10.1431  10.9600  11.0986  23.4146  30.0449
    30.4254  32.9986

          k =-0.2727 0.6364-0.2727 (   790 PWs)   bands (ev):

     7.8891   9.1158   9.5893  10.0557  11.0902  12.3530  19.5566  28.5874
    30.1050  32.8516

          k = 0.6364-0.2727 0.6364 (   787 PWs)   bands (ev):

     8.1403   9.2032   9.7574   9.9853  11.0472  14.0359  16.8407  27.1997
    30.8833  33.1133

          k = 0.5455-0.1818 0.5455 (   788 PWs)   bands (ev):

     8.0730   9.3133   9.5996   9.9762  10.8253  13.0723  18.4703  26.3665
    32.3531  33.8500

          k = 0.4545-0.0909 0.4545 (   793 PWs)   bands (ev):

     7.4336   9.2172   9.5168  10.0420  10.4968  11.8120  22.0967  26.1285
    34.4315  35.1203

          k = 0.3636 0.0000 0.3636 (   795 PWs)   bands (ev):

     6.1927   9.1964   9.7216  10.1618  10.1724  11.1334  26.0212  26.7629
    36.8733  37.0030

          k = 0.0000 0.5455 0.0000 (   801 PWs)   bands (ev):

     6.4549   8.8393  10.0622  10.4413  10.4413  10.8099  29.1243  29.1243
    29.7763  31.4328

          k =-0.0909 0.6364-0.0909 (   792 PWs)   bands (ev):

     7.3134   8.6883  10.0140  10.5308  10.9657  11.1110  25.6950  27.3624
    28.2282  31.9374

          k =-0.1818 0.7273-0.1818 (   781 PWs)   bands (ev):

     7.9995   8.6710   9.8522  10.4617  11.1101  12.6317  21.7533  25.2903
    28.0701  32.0503

          k = 0.7273-0.1818 0.7273 (   783 PWs)   bands (ev):

     8.3793   8.7689   9.7012  10.3657  11.0742  14.9007  18.3096  23.7197
    28.6869  32.2837

          k = 0.6364-0.0909 0.6364 (   791 PWs)   bands (ev):

     8.5602   8.9241   9.4763  10.2858  10.8649  15.0951  18.2310  22.7244
    30.0318  32.8486

          k = 0.5455 0.0000 0.5455 (   788 PWs)   bands (ev):

     8.3238   9.2008   9.2074  10.2084  10.6046  13.1005  21.2643  22.7539
    31.9928  33.8168

          k = 0.0000 0.7273 0.0000 (   789 PWs)   bands (ev):

     7.6007   8.4862  10.8772  10.8772  10.9536  11.1619  24.6762  27.0434
    27.0434  30.6590

          k =-0.0909 0.8182-0.0909 (   782 PWs)   bands (ev):

     7.8551   8.4111  10.6565  10.8550  11.1227  12.8561  22.5358  24.3232
    26.6184  31.2939

          k = 0.8182-0.0909 0.8182 (   782 PWs)   bands (ev):

     8.1334   8.4842  10.2630  10.7480  11.1215  15.1300  20.7351  21.1269
    27.0195  31.6738

          k = 0.7273 0.0000 0.7273 (   790 PWs)   bands (ev):

     8.4553   8.6549   9.7987  10.5714  10.9801  17.4024  17.6861  20.6441
    28.2012  32.1226

          k = 0.0000 0.9091 0.0000 (   786 PWs)   bands (ev):

     7.7838   8.2810  11.0399  11.1726  11.1726  13.5333  20.5775  25.9093
    25.9093  30.2939

          k = 0.9091-0.0000 0.9091 (   778 PWs)   bands (ev):

     7.8796   8.3095  10.9047  10.9825  11.1877  14.6494  19.8510  23.8181
    26.0495  31.0943

          k =-0.1818 0.3636 0.0000 (   794 PWs)   bands (ev):

     5.1784   9.2427   9.8592  10.0449  10.2688  10.7376  28.8766  29.5163
    35.7907  36.2703

          k =-0.2727 0.4545-0.0909 (   793 PWs)   bands (ev):

     6.4102   9.1332   9.6877  10.0878  10.4775  11.1005  24.6425  28.5435
    33.5282  36.4208

          k =-0.3636 0.5455-0.1818 (   790 PWs)   bands (ev):

     7.5618   9.2804   9.5203   9.9952  10.8220  11.8184  20.5939  28.3840
    31.4889  35.8706

          k = 0.5455-0.3636 0.7273 (   786 PWs)   bands (ev):

     7.9969   9.3249   9.7918   9.9236  11.0107  13.2293  17.3522  28.7868
    29.9421  35.5086

          k =-0.1818 0.5455 0.0000 (   798 PWs)   bands (ev):

     6.7584   8.8943   9.7391  10.4416  10.5283  11.0923  26.5929  27.1451
    30.2614  34.5295

          k =-0.2727 0.6364-0.0909 (   789 PWs)   bands (ev):

     7.7689   8.8489   9.5420  10.3950  10.8602  11.9886  22.6713  26.5587
    28.0370  34.9723

          k = 0.6364-0.2727 0.8182 (   789 PWs)   bands (ev):

     8.3184   8.9317   9.4901  10.2750  11.0319  13.7429  19.0042  26.1922
    26.9128  35.1042

          k = 0.5455-0.1818 0.7273 (   791 PWs)   bands (ev):

     8.4739   8.9715   9.5139  10.1965  10.9878  15.1306  17.1926  24.9846
    27.7876  35.6202

          k = 0.4545-0.0909 0.6364 (   786 PWs)   bands (ev):

     8.3212   9.1116   9.2699  10.2360  10.7728  13.2216  20.1592  24.3374
    29.2566  36.6514

          k = 0.3636 0.0000 0.5455 (   787 PWs)   bands (ev):

     7.5360   9.0388   9.4441  10.3045  10.4699  11.8630  23.6924  24.6340
    31.2123  38.1235

          k =-0.1818 0.7273 0.0000 (   786 PWs)   bands (ev):

     7.8328   8.5778  10.0540  10.8477  10.8750  12.1635  24.8624  24.9223
    25.5122  33.3761

          k = 0.7273-0.1818 0.9091 (   780 PWs)   bands (ev):

     8.2102   8.6112   9.8716  10.6756  11.0817  14.0980  21.3655  23.1100
    25.3092  34.1720

          k = 0.6364-0.0909 0.8182 (   782 PWs)   bands (ev):

     8.5145   8.7240   9.6156  10.5003  11.0580  16.6301  18.1187  21.8102
    26.0668  34.7051

          k = 0.5455 0.0000 0.7273 (   785 PWs)   bands (ev):

     8.7465   8.8377   9.2936  10.3859  10.8910  15.2658  19.4231  21.5738
    27.4203  35.5843

          k = 0.8182-0.0909 1.0000 (   784 PWs)   bands (ev):

     7.9706   8.3924  10.5442  10.9223  11.1724  14.4400  20.7878  23.8979
    24.5063  32.8202

          k = 0.7273 0.0000 0.9091 (   780 PWs)   bands (ev):

     8.2007   8.5275  10.1198  10.7386  11.1700  16.1665  20.1365  20.9465
    24.8535  33.9169

          k = 0.6364-0.2727 1.0000 (   781 PWs)   bands (ev):

     8.3836   8.8527   9.3292  10.5557  10.8732  13.5131  21.9632  23.1852
    25.9248  37.8995

          k = 0.5455-0.1818 0.9091 (   781 PWs)   bands (ev):

     8.6510   8.8978   9.2612  10.4301  11.0459  15.7667  18.8797  23.2407
    24.3206  38.3692

          k = 0.6364-0.0909 1.0000 (   773 PWs)   bands (ev):

     8.3897   8.7343   9.6493  10.5989  11.1714  16.2078  21.0051  21.4798
    22.4821  37.2709

          k = 0.5455 0.0000 0.9091 (   776 PWs)   bands (ev):

     8.5513   8.9590   9.3183  10.4655  11.1700  18.3402  18.3741  21.0001
    22.8988  38.6137

     the Fermi energy is    12.7583 ev

!    total energy              =    -213.09728276 Ry
     Harris-Foulkes estimate   =    -213.09728276 Ry
     estimated scf accuracy    <          4.3E-10 Ry

     total all-electron energy =     -3309.977049 Ry

     The total energy is the sum of the following terms:

     one-electron contribution =     -28.01160794 Ry
     hartree contribution      =      30.61416099 Ry
     xc contribution           =     -44.62793653 Ry
     ewald contribution        =     -81.22522855 Ry
     one-center paw contrib.   =     -89.84654452 Ry
     smearing contrib. (-TS)   =      -0.00012621 Ry

     convergence has been achieved in   6 iterations

     Forces acting on atoms (cartesian axes, Ry/au):

     atom    1 type  1   force =     0.00000000    0.00000000    0.00000000

     Total force =     0.000000     Total SCF correction =     0.000000


     Computing stress (Cartesian axis) and pressure

          total   stress  (Ry/bohr**3)                   (kbar)     P=   15.45
   0.00010503  -0.00000000  -0.00000000         15.45     -0.00     -0.00
  -0.00000000   0.00010503   0.00000000         -0.00     15.45      0.00
  -0.00000000   0.00000000   0.00010503         -0.00      0.00     15.45


     Writing output data file Cu.save/

     init_run     :      0.40s CPU      0.44s WALL (       1 calls)
     electrons    :      3.91s CPU      4.19s WALL (       1 calls)
     forces       :      0.05s CPU      0.05s WALL (       1 calls)
     stress       :      0.17s CPU      0.17s WALL (       1 calls)

     Called by init_run:
     wfcinit      :      0.13s CPU      0.14s WALL (       1 calls)
     potinit      :      0.11s CPU      0.12s WALL (       1 calls)
     hinit0       :      0.15s CPU      0.15s WALL (       1 calls)

     Called by electrons:
     c_bands      :      2.78s CPU      2.95s WALL (       7 calls)
     sum_band     :      0.52s CPU      0.54s WALL (       7 calls)
     v_of_rho     :      0.02s CPU      0.02s WALL (       7 calls)
     newd         :      0.04s CPU      0.05s WALL (       7 calls)
     PAW_pot      :      0.65s CPU      0.74s WALL (       7 calls)
     mix_rho      :      0.00s CPU      0.00s WALL (       7 calls)

     Called by c_bands:
     init_us_2    :      0.10s CPU      0.10s WALL (     952 calls)
     cegterg      :      2.64s CPU      2.81s WALL (     392 calls)

     Called by sum_band:
     sum_band:bec :      0.00s CPU      0.00s WALL (     392 calls)
     addusdens    :      0.04s CPU      0.04s WALL (       7 calls)

     Called by *egterg:
     h_psi        :      2.09s CPU      2.22s WALL (    1233 calls)
     s_psi        :      0.07s CPU      0.08s WALL (    1233 calls)
     g_psi        :      0.01s CPU      0.01s WALL (     785 calls)
     cdiaghg      :      0.24s CPU      0.26s WALL (    1121 calls)

     Called by h_psi:
     h_psi:pot    :      2.08s CPU      2.21s WALL (    1233 calls)
     h_psi:calbec :      0.10s CPU      0.10s WALL (    1233 calls)
     vloc_psi     :      1.90s CPU      2.02s WALL (    1233 calls)
     add_vuspsi   :      0.07s CPU      0.08s WALL (    1233 calls)

     General routines
     calbec       :      0.16s CPU      0.17s WALL (    1905 calls)
     fft          :      0.02s CPU      0.02s WALL (     104 calls)
     ffts         :      0.00s CPU      0.00s WALL (       7 calls)
     fftw         :      2.13s CPU      2.26s WALL (   23658 calls)

     Parallel routines
     fft_scatt_xy :      0.17s CPU      0.18s WALL (   23769 calls)
     fft_scatt_yz :      0.58s CPU      0.61s WALL (   23769 calls)

     PWSCF        :     5.32s CPU         5.69s WALL


   This run was terminated on:  23:32:43  25Mar2024            

=------------------------------------------------------------------------------=
   JOB DONE.
=------------------------------------------------------------------------------=
