
     Program PWSCF v.6.3MaX starts on 25Mar2024 at 23:11:20 

     This program is part of the open-source Quantum ESPRESSO suite
     for quantum simulation of materials; please cite
         "P. Giannozzi et al., J. Phys.:Condens. Matter 21 395502 (2009);
         "P. Giannozzi et al., J. Phys.:Condens. Matter 29 465901 (2017);
          URL http://www.quantum-espresso.org", 
     in publications or presentations arising from this work. More details at
     http://www.quantum-espresso.org/quote

     Parallel version (MPI), running on     5 processors

     MPI processes distributed on     1 nodes
     R & G space division:  proc/nbgrp/npool/nimage =       5
     Waiting for input...
     Reading input from standard input

     Current dimensions of program PWSCF are:
     Max number of different atomic species (ntypx) = 10
     Max number of k-points (npk) =  40000
     Max angular momentum in pseudopotentials (lmaxx) =  3
               file Cu.pbesol-dn-rrkjus_psl.1.0.0.UPF: wavefunction(s)  3D renormalized

     Subspace diagonalization in iterative solution of the eigenvalue problem:
     a serial algorithm will be used


     Parallelization info
     --------------------
     sticks:   dense  smooth     PW     G-vecs:    dense   smooth      PW
     Min          18      18      7                  121      121      33
     Max          19      19      8                  123      123      35
     Sum          91      91     37                  609      609     169



     bravais-lattice index     =            2
     lattice parameter (alat)  =       6.8300  a.u.
     unit-cell volume          =      79.6530 (a.u.)^3
     number of atoms/cell      =            1
     number of atomic types    =            1
     number of electrons       =        11.00
     number of Kohn-Sham states=           10
     kinetic-energy cutoff     =      15.0000  Ry
     charge density cutoff     =      60.0000  Ry
     convergence threshold     =      1.0E-08
     mixing beta               =       0.7000
     number of iterations used =            8  plain     mixing
     Exchange-correlation      = PBESOL ( 1  4 10  8 0 0)

     celldm(1)=   6.830000  celldm(2)=   0.000000  celldm(3)=   0.000000
     celldm(4)=   0.000000  celldm(5)=   0.000000  celldm(6)=   0.000000

     crystal axes: (cart. coord. in units of alat)
               a(1) = (  -0.500000   0.000000   0.500000 )  
               a(2) = (   0.000000   0.500000   0.500000 )  
               a(3) = (  -0.500000   0.500000   0.000000 )  

     reciprocal axes: (cart. coord. in units 2 pi/alat)
               b(1) = ( -1.000000 -1.000000  1.000000 )  
               b(2) = (  1.000000  1.000000  1.000000 )  
               b(3) = ( -1.000000  1.000000 -1.000000 )  


     PseudoPot. # 1 for Cu read from file:
     /home/lorenzo/pseudos/Cu/Cu.pbesol-dn-rrkjus_psl.1.0.0.UPF
     MD5 check sum: bfa4c7aafbc42e028d5f4ccf7ceed93d
     Pseudo is Ultrasoft + core correction, Zval = 11.0
     Generated using "atomic" code by A. Dal Corso v.6.3
     Using radial grid of 1199 points,  6 beta functions with: 
                l(1) =   0
                l(2) =   0
                l(3) =   1
                l(4) =   1
                l(5) =   2
                l(6) =   2
     Q(r) pseudized with 0 coefficients 


     atomic species   valence    mass     pseudopotential
        Cu            11.00    63.54600     Cu( 1.00)

     48 Sym. Ops., with inversion, found



   Cartesian axes

     site n.     atom                  positions (alat units)
         1           Cu  tau(   1) = (   0.0000000   0.0000000   0.0000000  )

     number of k points=    10  gaussian smearing, width (Ry)=  0.0100
                       cart. coord. in units 2pi/alat
        k(    1) = (   0.0000000   0.0000000   0.0000000), wk =   0.0160000
        k(    2) = (  -0.2000000   0.2000000  -0.2000000), wk =   0.1280000
        k(    3) = (  -0.4000000   0.4000000  -0.4000000), wk =   0.1280000
        k(    4) = (   0.0000000   0.4000000   0.0000000), wk =   0.0960000
        k(    5) = (  -0.2000000   0.6000000  -0.2000000), wk =   0.3840000
        k(    6) = (   0.6000000  -0.2000000   0.6000000), wk =   0.3840000
        k(    7) = (   0.4000000   0.0000000   0.4000000), wk =   0.1920000
        k(    8) = (   0.0000000   0.8000000   0.0000000), wk =   0.0960000
        k(    9) = (   0.8000000   0.0000000   0.8000000), wk =   0.1920000
        k(   10) = (   0.6000000  -0.2000000   1.0000000), wk =   0.3840000

     Dense  grid:      609 G-vectors     FFT dimensions: (  12,  12,  12)

     Estimated max dynamical RAM per process >       1.17 MB

     Estimated total dynamical RAM >       5.83 MB

     Check: negative/imaginary core charge=   -0.001129    0.000000

     Initial potential from superposition of free atoms

     starting charge   10.99979, renormalised to   11.00000
     Starting wfcs are    9 randomized atomic wfcs +    1 random wfcs

     total cpu time spent up to now is        0.8 secs

     Self-consistent Calculation

     iteration #  1     ecut=    15.00 Ry     beta= 0.70
     Davidson diagonalization with overlap
     ethr =  1.00E-02,  avg # of iterations =  3.9

     total cpu time spent up to now is        0.8 secs

     total energy              =    -117.52383552 Ry
     Harris-Foulkes estimate   =    -120.43184337 Ry
     estimated scf accuracy    <       3.53282585 Ry

     iteration #  2     ecut=    15.00 Ry     beta= 0.70
     Davidson diagonalization with overlap
     ethr =  1.00E-02,  avg # of iterations =  2.3

     total cpu time spent up to now is        0.8 secs

     total energy              =    -119.18426785 Ry
     Harris-Foulkes estimate   =    -120.02043971 Ry
     estimated scf accuracy    <       1.45629541 Ry

     iteration #  3     ecut=    15.00 Ry     beta= 0.70
     Davidson diagonalization with overlap
     ethr =  1.00E-02,  avg # of iterations =  1.7

     total cpu time spent up to now is        0.9 secs

     total energy              =    -119.26077838 Ry
     Harris-Foulkes estimate   =    -119.33698295 Ry
     estimated scf accuracy    <       0.11044474 Ry

     iteration #  4     ecut=    15.00 Ry     beta= 0.70
     Davidson diagonalization with overlap
     ethr =  1.00E-03,  avg # of iterations =  2.4

     total cpu time spent up to now is        0.9 secs

     total energy              =    -119.28181100 Ry
     Harris-Foulkes estimate   =    -119.33685751 Ry
     estimated scf accuracy    <       0.10483484 Ry

     iteration #  5     ecut=    15.00 Ry     beta= 0.70
     Davidson diagonalization with overlap
     ethr =  9.53E-04,  avg # of iterations =  1.6

     total cpu time spent up to now is        0.9 secs

     total energy              =    -119.30143626 Ry
     Harris-Foulkes estimate   =    -119.30126609 Ry
     estimated scf accuracy    <       0.00016950 Ry

     iteration #  6     ecut=    15.00 Ry     beta= 0.70
     Davidson diagonalization with overlap
     ethr =  1.54E-06,  avg # of iterations =  3.0

     total cpu time spent up to now is        1.0 secs

     total energy              =    -119.30124821 Ry
     Harris-Foulkes estimate   =    -119.30159079 Ry
     estimated scf accuracy    <       0.00058585 Ry

     iteration #  7     ecut=    15.00 Ry     beta= 0.70
     Davidson diagonalization with overlap
     ethr =  1.54E-06,  avg # of iterations =  2.0

     total cpu time spent up to now is        1.0 secs

     total energy              =    -119.30136975 Ry
     Harris-Foulkes estimate   =    -119.30136976 Ry
     estimated scf accuracy    <       0.00000006 Ry

     iteration #  8     ecut=    15.00 Ry     beta= 0.70
     Davidson diagonalization with overlap
     ethr =  5.15E-10,  avg # of iterations =  2.3

     total cpu time spent up to now is        1.0 secs

     total energy              =    -119.30136977 Ry
     Harris-Foulkes estimate   =    -119.30136981 Ry
     estimated scf accuracy    <       0.00000007 Ry

     iteration #  9     ecut=    15.00 Ry     beta= 0.70
     Davidson diagonalization with overlap
     ethr =  5.15E-10,  avg # of iterations =  2.0

     total cpu time spent up to now is        1.0 secs

     End of self-consistent calculation

          k = 0.0000 0.0000 0.0000 (    65 PWs)   bands (ev):

     3.2515   7.9866   7.9866   9.0507   9.0507   9.0507  36.7767  36.8305
    36.8305  36.8305

          k =-0.2000 0.2000-0.2000 (    77 PWs)   bands (ev):

     4.5198   5.3786   5.3786   6.8407   7.9201   7.9201  28.0812  35.7545
    35.7545  37.0446

          k =-0.4000 0.4000-0.4000 (    74 PWs)   bands (ev):

     5.6488   6.3879   6.3879   7.9926   7.9926   9.9183  18.5368  33.7644
    33.7644  35.3040

          k = 0.0000 0.4000 0.0000 (    76 PWs)   bands (ev):

     4.8864   6.0611   6.0611   7.0536   7.0731   7.9076  31.1418  31.1418
    34.0172  35.7419

          k =-0.2000 0.6000-0.2000 (    77 PWs)   bands (ev):

     5.4432   6.0236   6.1280   7.2678   7.3771   9.7071  22.2115  29.2285
    29.4178  34.6646

          k = 0.6000-0.2000 0.6000 (    79 PWs)   bands (ev):

     5.1442   5.9204   6.0314   6.6486   7.0352  13.3256  16.7647  25.9387
    30.8790  34.8089

          k = 0.4000 0.0000 0.4000 (    79 PWs)   bands (ev):

     5.4118   5.5100   5.8796   6.2119   7.4560   8.3388  25.4410  25.6538
    35.5955  37.0703

          k = 0.0000 0.8000 0.0000 (    80 PWs)   bands (ev):

     5.1049   5.1943   6.3412   6.3412   7.1809  11.5777  22.7899  25.9338
    25.9338  33.1977

          k = 0.8000 0.0000 0.8000 (    77 PWs)   bands (ev):

     6.0550   6.2837   6.5111   6.7408   7.2657  15.8087  19.8036  20.5101
    26.6502  34.6167

          k = 0.6000-0.2000 1.0000 (    84 PWs)   bands (ev):

     4.6094   5.1266   5.2732   6.1336   6.2290  13.8246  20.9213  21.7442
    24.3805  39.2710

     the Fermi energy is    11.5980 ev

!    total energy              =    -119.30136979 Ry
     Harris-Foulkes estimate   =    -119.30136979 Ry
     estimated scf accuracy    <          3.4E-09 Ry

     The total energy is the sum of the following terms:

     one-electron contribution =     -20.56961567 Ry
     hartree contribution      =      24.90474340 Ry
     xc contribution           =     -42.41100077 Ry
     ewald contribution        =     -81.22523186 Ry
     smearing contrib. (-TS)   =      -0.00026488 Ry

     convergence has been achieved in   9 iterations

     Forces acting on atoms (cartesian axes, Ry/au):

     atom    1 type  1   force =     0.00000000    0.00000000    0.00000000

     Total force =     0.000000     Total SCF correction =     0.000000


     Computing stress (Cartesian axis) and pressure

          total   stress  (Ry/bohr**3)                   (kbar)     P=********
  -0.11888398  -0.00000000  -0.00000000     -17488.43     -0.00     -0.00
  -0.00000000  -0.11888398   0.00000000         -0.00 -17488.43      0.00
  -0.00000000   0.00000000  -0.11888398         -0.00      0.00 -17488.43


     Writing output data file Cu.save/

     init_run     :      0.08s CPU      0.08s WALL (       1 calls)
     electrons    :      0.25s CPU      0.30s WALL (       1 calls)
     forces       :      0.00s CPU      0.00s WALL (       1 calls)
     stress       :      0.01s CPU      0.01s WALL (       1 calls)

     Called by init_run:
     wfcinit      :      0.01s CPU      0.01s WALL (       1 calls)
     potinit      :      0.00s CPU      0.00s WALL (       1 calls)
     hinit0       :      0.07s CPU      0.07s WALL (       1 calls)

     Called by electrons:
     c_bands      :      0.20s CPU      0.24s WALL (       9 calls)
     sum_band     :      0.03s CPU      0.04s WALL (       9 calls)
     v_of_rho     :      0.01s CPU      0.01s WALL (      10 calls)
     newd         :      0.01s CPU      0.01s WALL (      10 calls)
     mix_rho      :      0.00s CPU      0.00s WALL (       9 calls)

     Called by c_bands:
     init_us_2    :      0.00s CPU      0.00s WALL (     210 calls)
     cegterg      :      0.19s CPU      0.22s WALL (      90 calls)

     Called by sum_band:
     sum_band:bec :      0.00s CPU      0.00s WALL (      90 calls)
     addusdens    :      0.01s CPU      0.01s WALL (       9 calls)

     Called by *egterg:
     h_psi        :      0.11s CPU      0.13s WALL (     312 calls)
     s_psi        :      0.00s CPU      0.00s WALL (     312 calls)
     g_psi        :      0.00s CPU      0.00s WALL (     212 calls)
     cdiaghg      :      0.05s CPU      0.06s WALL (     302 calls)

     Called by h_psi:
     h_psi:pot    :      0.11s CPU      0.13s WALL (     312 calls)
     h_psi:calbec :      0.01s CPU      0.01s WALL (     312 calls)
     vloc_psi     :      0.10s CPU      0.12s WALL (     312 calls)
     add_vuspsi   :      0.00s CPU      0.00s WALL (     312 calls)

     General routines
     calbec       :      0.01s CPU      0.01s WALL (     452 calls)
     fft          :      0.00s CPU      0.00s WALL (     136 calls)
     ffts         :      0.00s CPU      0.00s WALL (       9 calls)
     fftw         :      0.11s CPU      0.13s WALL (    5810 calls)

     Parallel routines
     fft_scatt_xy :      0.01s CPU      0.01s WALL (    5955 calls)
     fft_scatt_yz :      0.06s CPU      0.07s WALL (    5955 calls)

     PWSCF        :     1.03s CPU         1.13s WALL


   This run was terminated on:  23:11:21  25Mar2024            

=------------------------------------------------------------------------------=
   JOB DONE.
=------------------------------------------------------------------------------=
