
     Program PWSCF v.6.3MaX starts on 25Mar2024 at 23:38:40 

     This program is part of the open-source Quantum ESPRESSO suite
     for quantum simulation of materials; please cite
         "P. Giannozzi et al., J. Phys.:Condens. Matter 21 395502 (2009);
         "P. Giannozzi et al., J. Phys.:Condens. Matter 29 465901 (2017);
          URL http://www.quantum-espresso.org", 
     in publications or presentations arising from this work. More details at
     http://www.quantum-espresso.org/quote

     Parallel version (MPI), running on     5 processors

     MPI processes distributed on     1 nodes
     R & G space division:  proc/nbgrp/npool/nimage =       5
     Waiting for input...
     Reading input from standard input

     Current dimensions of program PWSCF are:
     Max number of different atomic species (ntypx) = 10
     Max number of k-points (npk) =  40000
     Max angular momentum in pseudopotentials (lmaxx) =  3
               file Cu.pbe-dn-kjpaw_psl.1.0.0.UPF: wavefunction(s)  4S 3D renormalized

     Subspace diagonalization in iterative solution of the eigenvalue problem:
     a serial algorithm will be used


     Parallelization info
     --------------------
     sticks:   dense  smooth     PW     G-vecs:    dense   smooth      PW
     Min         102     102     32                 1545     1545     272
     Max         103     103     33                 1546     1546     273
     Sum         511     511    163                 7727     7727    1363



     bravais-lattice index     =            2
     lattice parameter (alat)  =       6.8300  a.u.
     unit-cell volume          =      79.6530 (a.u.)^3
     number of atoms/cell      =            1
     number of atomic types    =            1
     number of electrons       =        11.00
     number of Kohn-Sham states=           10
     kinetic-energy cutoff     =      80.0000  Ry
     charge density cutoff     =     320.0000  Ry
     convergence threshold     =      1.0E-08
     mixing beta               =       0.7000
     number of iterations used =            8  plain     mixing
     Exchange-correlation      = SLA PW PBX PBC ( 1  4  3  4 0 0)

     celldm(1)=   6.830000  celldm(2)=   0.000000  celldm(3)=   0.000000
     celldm(4)=   0.000000  celldm(5)=   0.000000  celldm(6)=   0.000000

     crystal axes: (cart. coord. in units of alat)
               a(1) = (  -0.500000   0.000000   0.500000 )  
               a(2) = (   0.000000   0.500000   0.500000 )  
               a(3) = (  -0.500000   0.500000   0.000000 )  

     reciprocal axes: (cart. coord. in units 2 pi/alat)
               b(1) = ( -1.000000 -1.000000  1.000000 )  
               b(2) = (  1.000000  1.000000  1.000000 )  
               b(3) = ( -1.000000  1.000000 -1.000000 )  


     PseudoPot. # 1 for Cu read from file:
     /home/lorenzo/pseudos/Cu/Cu.pbe-dn-kjpaw_psl.1.0.0.UPF
     MD5 check sum: cfffd1f38ee05704b3e17f46f1730a6f
     Pseudo is Projector augmented-wave + core cor, Zval = 11.0
     Generated using "atomic" code by A. Dal Corso v.6.3
     Shape of augmentation charge: PSQ
     Using radial grid of 1199 points,  6 beta functions with: 
                l(1) =   0
                l(2) =   0
                l(3) =   1
                l(4) =   1
                l(5) =   2
                l(6) =   2
     Q(r) pseudized with 0 coefficients 


     atomic species   valence    mass     pseudopotential
        Cu            11.00    63.54600     Cu( 1.00)

     48 Sym. Ops., with inversion, found



   Cartesian axes

     site n.     atom                  positions (alat units)
         1           Cu  tau(   1) = (   0.0000000   0.0000000   0.0000000  )

     number of k points=     8  gaussian smearing, width (Ry)=  0.0100
                       cart. coord. in units 2pi/alat
        k(    1) = (   0.0000000   0.0000000   0.0000000), wk =   0.0312500
        k(    2) = (  -0.2500000   0.2500000  -0.2500000), wk =   0.2500000
        k(    3) = (   0.5000000  -0.5000000   0.5000000), wk =   0.1250000
        k(    4) = (   0.0000000   0.5000000   0.0000000), wk =   0.1875000
        k(    5) = (   0.7500000  -0.2500000   0.7500000), wk =   0.7500000
        k(    6) = (   0.5000000   0.0000000   0.5000000), wk =   0.3750000
        k(    7) = (   0.0000000  -1.0000000   0.0000000), wk =   0.0937500
        k(    8) = (  -0.5000000  -1.0000000   0.0000000), wk =   0.1875000

     Dense  grid:     7727 G-vectors     FFT dimensions: (  27,  27,  27)

     Estimated max dynamical RAM per process >       7.56 MB

     Estimated total dynamical RAM >      37.81 MB

     Initial potential from superposition of free atoms

     starting charge   10.99977, renormalised to   11.00000
     Starting wfcs are    9 randomized atomic wfcs +    1 random wfcs
     Checking if some PAW data can be deallocated... 

     total cpu time spent up to now is        1.1 secs

     Self-consistent Calculation

     iteration #  1     ecut=    80.00 Ry     beta= 0.70
     Davidson diagonalization with overlap
     ethr =  1.00E-02,  avg # of iterations =  3.9

     Threshold (ethr) on eigenvalues was too large:
     Diagonalizing with lowered threshold

     Davidson diagonalization with overlap
     ethr =  5.52E-04,  avg # of iterations =  1.0

     total cpu time spent up to now is        1.4 secs

     total energy              =    -213.04959648 Ry
     Harris-Foulkes estimate   =    -213.09738783 Ry
     estimated scf accuracy    <       0.06066642 Ry

     iteration #  2     ecut=    80.00 Ry     beta= 0.70
     Davidson diagonalization with overlap
     ethr =  5.52E-04,  avg # of iterations =  2.0

     total cpu time spent up to now is        1.6 secs

     total energy              =    -213.05167489 Ry
     Harris-Foulkes estimate   =    -213.13263299 Ry
     estimated scf accuracy    <       0.20683968 Ry

     iteration #  3     ecut=    80.00 Ry     beta= 0.70
     Davidson diagonalization with overlap
     ethr =  5.52E-04,  avg # of iterations =  2.0

     total cpu time spent up to now is        1.8 secs

     total energy              =    -213.08514915 Ry
     Harris-Foulkes estimate   =    -213.08516543 Ry
     estimated scf accuracy    <       0.00005410 Ry

     iteration #  4     ecut=    80.00 Ry     beta= 0.70
     Davidson diagonalization with overlap
     ethr =  4.92E-07,  avg # of iterations =  2.9

     total cpu time spent up to now is        2.0 secs

     total energy              =    -213.08519058 Ry
     Harris-Foulkes estimate   =    -213.08519566 Ry
     estimated scf accuracy    <       0.00001493 Ry

     iteration #  5     ecut=    80.00 Ry     beta= 0.70
     Davidson diagonalization with overlap
     ethr =  1.36E-07,  avg # of iterations =  1.2

     total cpu time spent up to now is        2.2 secs

     total energy              =    -213.08519326 Ry
     Harris-Foulkes estimate   =    -213.08519340 Ry
     estimated scf accuracy    <       0.00000039 Ry

     iteration #  6     ecut=    80.00 Ry     beta= 0.70
     Davidson diagonalization with overlap
     ethr =  3.51E-09,  avg # of iterations =  1.5

     total cpu time spent up to now is        2.4 secs

     End of self-consistent calculation

          k = 0.0000 0.0000 0.0000 (   941 PWs)   bands (ev):

     3.2653   9.6436   9.6436   9.6436  10.4753  10.4753  35.5876  37.9846
    37.9846  37.9846

          k =-0.2500 0.2500-0.2500 (   947 PWs)   bands (ev):

     5.3881   9.3855   9.8014   9.8014  10.5589  10.5589  25.1085  35.3701
    35.4661  35.4661

          k = 0.5000-0.5000 0.5000 (   960 PWs)   bands (ev):

     7.5667   9.6107   9.6107  11.0483  11.0483  11.6260  16.4133  33.9937
    34.7493  34.7493

          k = 0.0000 0.5000 0.0000 (   982 PWs)   bands (ev):

     6.0309   8.9202  10.0100  10.3105  10.3105  10.7498  29.7600  29.7600
    31.0475  31.6929

          k = 0.7500-0.2500 0.7500 (   963 PWs)   bands (ev):

     8.2171   8.7945   9.6605  10.2884  11.0891  13.5970  19.3647  25.2298
    28.7630  32.3065

          k = 0.5000 0.0000 0.5000 (   975 PWs)   bands (ev):

     7.9358   9.1330   9.3430  10.1471  10.4735  12.3615  22.3643  23.5704
    33.1363  34.4433

          k = 0.0000-1.0000 0.0000 (   982 PWs)   bands (ev):

     7.7721   8.2361  11.0306  11.1921  11.1921  14.1310  19.7682  25.7585
    25.7585  30.2427

          k =-0.5000-1.0000 0.0000 (   952 PWs)   bands (ev):

     8.5175   9.1278   9.1278  10.4332  11.1929  18.8551  18.8551  20.9684
    21.4516  41.0668

     the Fermi energy is    13.4304 ev

!    total energy              =    -213.08519333 Ry
     Harris-Foulkes estimate   =    -213.08519333 Ry
     estimated scf accuracy    <          9.0E-10 Ry

     total all-electron energy =     -3309.964959 Ry

     The total energy is the sum of the following terms:

     one-electron contribution =     -27.98703622 Ry
     hartree contribution      =      30.60107124 Ry
     xc contribution           =     -44.62594293 Ry
     ewald contribution        =     -81.22522855 Ry
     one-center paw contrib.   =     -89.84758448 Ry
     smearing contrib. (-TS)   =      -0.00047239 Ry

     convergence has been achieved in   6 iterations

     Forces acting on atoms (cartesian axes, Ry/au):

     atom    1 type  1   force =     0.00000000    0.00000000    0.00000000

     Total force =     0.000000     Total SCF correction =     0.000000


     Computing stress (Cartesian axis) and pressure

          total   stress  (Ry/bohr**3)                   (kbar)     P=   35.44
   0.00024094   0.00000000  -0.00000000         35.44      0.00     -0.00
   0.00000000   0.00024094   0.00000000          0.00     35.44      0.00
  -0.00000000   0.00000000   0.00024094         -0.00      0.00     35.44


     Writing output data file Cu.save/

     init_run     :      0.33s CPU      0.35s WALL (       1 calls)
     electrons    :      1.16s CPU      1.28s WALL (       1 calls)
     forces       :      0.04s CPU      0.04s WALL (       1 calls)
     stress       :      0.13s CPU      0.13s WALL (       1 calls)

     Called by init_run:
     wfcinit      :      0.03s CPU      0.03s WALL (       1 calls)
     potinit      :      0.10s CPU      0.12s WALL (       1 calls)
     hinit0       :      0.17s CPU      0.17s WALL (       1 calls)

     Called by electrons:
     c_bands      :      0.42s CPU      0.44s WALL (       7 calls)
     sum_band     :      0.13s CPU      0.14s WALL (       7 calls)
     v_of_rho     :      0.03s CPU      0.03s WALL (       7 calls)
     newd         :      0.05s CPU      0.06s WALL (       7 calls)
     PAW_pot      :      0.61s CPU      0.71s WALL (       7 calls)
     mix_rho      :      0.00s CPU      0.00s WALL (       7 calls)

     Called by c_bands:
     init_us_2    :      0.02s CPU      0.02s WALL (     136 calls)
     cegterg      :      0.40s CPU      0.42s WALL (      56 calls)

     Called by sum_band:
     sum_band:bec :      0.00s CPU      0.00s WALL (      56 calls)
     addusdens    :      0.05s CPU      0.05s WALL (       7 calls)

     Called by *egterg:
     h_psi        :      0.33s CPU      0.35s WALL (     180 calls)
     s_psi        :      0.01s CPU      0.01s WALL (     180 calls)
     g_psi        :      0.00s CPU      0.00s WALL (     116 calls)
     cdiaghg      :      0.03s CPU      0.03s WALL (     164 calls)

     Called by h_psi:
     h_psi:pot    :      0.33s CPU      0.35s WALL (     180 calls)
     h_psi:calbec :      0.01s CPU      0.02s WALL (     180 calls)
     vloc_psi     :      0.30s CPU      0.32s WALL (     180 calls)
     add_vuspsi   :      0.01s CPU      0.01s WALL (     180 calls)

     General routines
     calbec       :      0.02s CPU      0.03s WALL (     276 calls)
     fft          :      0.02s CPU      0.02s WALL (     104 calls)
     ffts         :      0.00s CPU      0.00s WALL (       7 calls)
     fftw         :      0.34s CPU      0.36s WALL (    3384 calls)

     Parallel routines
     fft_scatt_xy :      0.03s CPU      0.03s WALL (    3495 calls)
     fft_scatt_yz :      0.09s CPU      0.10s WALL (    3495 calls)

     PWSCF        :     2.43s CPU         2.62s WALL


   This run was terminated on:  23:38:42  25Mar2024            

=------------------------------------------------------------------------------=
   JOB DONE.
=------------------------------------------------------------------------------=
