
     Program PWSCF v.6.3MaX starts on 25Mar2024 at 23:34:42 

     This program is part of the open-source Quantum ESPRESSO suite
     for quantum simulation of materials; please cite
         "P. Giannozzi et al., J. Phys.:Condens. Matter 21 395502 (2009);
         "P. Giannozzi et al., J. Phys.:Condens. Matter 29 465901 (2017);
          URL http://www.quantum-espresso.org", 
     in publications or presentations arising from this work. More details at
     http://www.quantum-espresso.org/quote

     Parallel version (MPI), running on     5 processors

     MPI processes distributed on     1 nodes
     R & G space division:  proc/nbgrp/npool/nimage =       5
     Waiting for input...
     Reading input from standard input

     Current dimensions of program PWSCF are:
     Max number of different atomic species (ntypx) = 10
     Max number of k-points (npk) =  40000
     Max angular momentum in pseudopotentials (lmaxx) =  3
               file Cu.pbe-dn-kjpaw_psl.1.0.0.UPF: wavefunction(s)  4S 3D renormalized

     Subspace diagonalization in iterative solution of the eigenvalue problem:
     a serial algorithm will be used


     Parallelization info
     --------------------
     sticks:   dense  smooth     PW     G-vecs:    dense   smooth      PW
     Min          95      95     30                 1375     1375     248
     Max          95      95     31                 1376     1376     251
     Sum         475     475    151                 6879     6879    1243



     bravais-lattice index     =            2
     lattice parameter (alat)  =       6.8300  a.u.
     unit-cell volume          =      79.6530 (a.u.)^3
     number of atoms/cell      =            1
     number of atomic types    =            1
     number of electrons       =        11.00
     number of Kohn-Sham states=           10
     kinetic-energy cutoff     =      75.0000  Ry
     charge density cutoff     =     300.0000  Ry
     convergence threshold     =      1.0E-08
     mixing beta               =       0.7000
     number of iterations used =            8  plain     mixing
     Exchange-correlation      = SLA PW PBX PBC ( 1  4  3  4 0 0)

     celldm(1)=   6.830000  celldm(2)=   0.000000  celldm(3)=   0.000000
     celldm(4)=   0.000000  celldm(5)=   0.000000  celldm(6)=   0.000000

     crystal axes: (cart. coord. in units of alat)
               a(1) = (  -0.500000   0.000000   0.500000 )  
               a(2) = (   0.000000   0.500000   0.500000 )  
               a(3) = (  -0.500000   0.500000   0.000000 )  

     reciprocal axes: (cart. coord. in units 2 pi/alat)
               b(1) = ( -1.000000 -1.000000  1.000000 )  
               b(2) = (  1.000000  1.000000  1.000000 )  
               b(3) = ( -1.000000  1.000000 -1.000000 )  


     PseudoPot. # 1 for Cu read from file:
     /home/lorenzo/pseudos/Cu/Cu.pbe-dn-kjpaw_psl.1.0.0.UPF
     MD5 check sum: cfffd1f38ee05704b3e17f46f1730a6f
     Pseudo is Projector augmented-wave + core cor, Zval = 11.0
     Generated using "atomic" code by A. Dal Corso v.6.3
     Shape of augmentation charge: PSQ
     Using radial grid of 1199 points,  6 beta functions with: 
                l(1) =   0
                l(2) =   0
                l(3) =   1
                l(4) =   1
                l(5) =   2
                l(6) =   2
     Q(r) pseudized with 0 coefficients 


     atomic species   valence    mass     pseudopotential
        Cu            11.00    63.54600     Cu( 1.00)

     48 Sym. Ops., with inversion, found



   Cartesian axes

     site n.     atom                  positions (alat units)
         1           Cu  tau(   1) = (   0.0000000   0.0000000   0.0000000  )

     number of k points=    47  gaussian smearing, width (Ry)=  0.0100
                       cart. coord. in units 2pi/alat
        k(    1) = (   0.0000000   0.0000000   0.0000000), wk =   0.0020000
        k(    2) = (  -0.1000000   0.1000000  -0.1000000), wk =   0.0160000
        k(    3) = (  -0.2000000   0.2000000  -0.2000000), wk =   0.0160000
        k(    4) = (  -0.3000000   0.3000000  -0.3000000), wk =   0.0160000
        k(    5) = (  -0.4000000   0.4000000  -0.4000000), wk =   0.0160000
        k(    6) = (   0.5000000  -0.5000000   0.5000000), wk =   0.0080000
        k(    7) = (   0.0000000   0.2000000   0.0000000), wk =   0.0120000
        k(    8) = (  -0.1000000   0.3000000  -0.1000000), wk =   0.0480000
        k(    9) = (  -0.2000000   0.4000000  -0.2000000), wk =   0.0480000
        k(   10) = (  -0.3000000   0.5000000  -0.3000000), wk =   0.0480000
        k(   11) = (   0.6000000  -0.4000000   0.6000000), wk =   0.0480000
        k(   12) = (   0.5000000  -0.3000000   0.5000000), wk =   0.0480000
        k(   13) = (   0.4000000  -0.2000000   0.4000000), wk =   0.0480000
        k(   14) = (   0.3000000  -0.1000000   0.3000000), wk =   0.0480000
        k(   15) = (   0.2000000   0.0000000   0.2000000), wk =   0.0240000
        k(   16) = (   0.0000000   0.4000000   0.0000000), wk =   0.0120000
        k(   17) = (  -0.1000000   0.5000000  -0.1000000), wk =   0.0480000
        k(   18) = (  -0.2000000   0.6000000  -0.2000000), wk =   0.0480000
        k(   19) = (   0.7000000  -0.3000000   0.7000000), wk =   0.0480000
        k(   20) = (   0.6000000  -0.2000000   0.6000000), wk =   0.0480000
        k(   21) = (   0.5000000  -0.1000000   0.5000000), wk =   0.0480000
        k(   22) = (   0.4000000   0.0000000   0.4000000), wk =   0.0240000
        k(   23) = (   0.0000000   0.6000000   0.0000000), wk =   0.0120000
        k(   24) = (  -0.1000000   0.7000000  -0.1000000), wk =   0.0480000
        k(   25) = (   0.8000000  -0.2000000   0.8000000), wk =   0.0480000
        k(   26) = (   0.7000000  -0.1000000   0.7000000), wk =   0.0480000
        k(   27) = (   0.6000000  -0.0000000   0.6000000), wk =   0.0240000
        k(   28) = (   0.0000000   0.8000000   0.0000000), wk =   0.0120000
        k(   29) = (   0.9000000  -0.1000000   0.9000000), wk =   0.0480000
        k(   30) = (   0.8000000   0.0000000   0.8000000), wk =   0.0240000
        k(   31) = (   0.0000000  -1.0000000   0.0000000), wk =   0.0060000
        k(   32) = (  -0.2000000   0.4000000   0.0000000), wk =   0.0480000
        k(   33) = (  -0.3000000   0.5000000  -0.1000000), wk =   0.0960000
        k(   34) = (   0.6000000  -0.4000000   0.8000000), wk =   0.0960000
        k(   35) = (   0.5000000  -0.3000000   0.7000000), wk =   0.0480000
        k(   36) = (  -0.2000000   0.6000000   0.0000000), wk =   0.0480000
        k(   37) = (   0.7000000  -0.3000000   0.9000000), wk =   0.0960000
        k(   38) = (   0.6000000  -0.2000000   0.8000000), wk =   0.0960000
        k(   39) = (   0.5000000  -0.1000000   0.7000000), wk =   0.0960000
        k(   40) = (   0.4000000   0.0000000   0.6000000), wk =   0.0480000
        k(   41) = (   0.8000000  -0.2000000   1.0000000), wk =   0.0480000
        k(   42) = (   0.7000000  -0.1000000   0.9000000), wk =   0.0960000
        k(   43) = (   0.6000000   0.0000000   0.8000000), wk =   0.0480000
        k(   44) = (  -0.2000000  -1.0000000   0.0000000), wk =   0.0240000
        k(   45) = (   0.6000000  -0.2000000   1.0000000), wk =   0.0480000
        k(   46) = (   0.5000000  -0.1000000   0.9000000), wk =   0.0480000
        k(   47) = (  -0.4000000  -1.0000000   0.0000000), wk =   0.0240000

     Dense  grid:     6879 G-vectors     FFT dimensions: (  27,  27,  27)

     Estimated max dynamical RAM per process >       7.93 MB

     Estimated total dynamical RAM >      39.63 MB

     Initial potential from superposition of free atoms

     starting charge   10.99977, renormalised to   11.00000
     Starting wfcs are    9 randomized atomic wfcs +    1 random wfcs
     Checking if some PAW data can be deallocated... 

     total cpu time spent up to now is        1.2 secs

     Self-consistent Calculation

     iteration #  1     ecut=    75.00 Ry     beta= 0.70
     Davidson diagonalization with overlap
     ethr =  1.00E-02,  avg # of iterations =  3.7

     Threshold (ethr) on eigenvalues was too large:
     Diagonalizing with lowered threshold

     Davidson diagonalization with overlap
     ethr =  5.75E-04,  avg # of iterations =  1.1

     total cpu time spent up to now is        2.2 secs

     total energy              =    -213.05872857 Ry
     Harris-Foulkes estimate   =    -213.10828669 Ry
     estimated scf accuracy    <       0.06291276 Ry

     iteration #  2     ecut=    75.00 Ry     beta= 0.70
     Davidson diagonalization with overlap
     ethr =  5.72E-04,  avg # of iterations =  2.0

     total cpu time spent up to now is        2.8 secs

     total energy              =    -213.06004658 Ry
     Harris-Foulkes estimate   =    -213.14830914 Ry
     estimated scf accuracy    <       0.22995813 Ry

     iteration #  3     ecut=    75.00 Ry     beta= 0.70
     Davidson diagonalization with overlap
     ethr =  5.72E-04,  avg # of iterations =  2.0

     total cpu time spent up to now is        3.4 secs

     total energy              =    -213.09601915 Ry
     Harris-Foulkes estimate   =    -213.09605168 Ry
     estimated scf accuracy    <       0.00008119 Ry

     iteration #  4     ecut=    75.00 Ry     beta= 0.70
     Davidson diagonalization with overlap
     ethr =  7.38E-07,  avg # of iterations =  2.5

     total cpu time spent up to now is        4.0 secs

     total energy              =    -213.09606744 Ry
     Harris-Foulkes estimate   =    -213.09607596 Ry
     estimated scf accuracy    <       0.00002370 Ry

     iteration #  5     ecut=    75.00 Ry     beta= 0.70
     Davidson diagonalization with overlap
     ethr =  2.15E-07,  avg # of iterations =  1.2

     total cpu time spent up to now is        4.5 secs

     total energy              =    -213.09607193 Ry
     Harris-Foulkes estimate   =    -213.09607225 Ry
     estimated scf accuracy    <       0.00000089 Ry

     iteration #  6     ecut=    75.00 Ry     beta= 0.70
     Davidson diagonalization with overlap
     ethr =  8.09E-09,  avg # of iterations =  1.2

     total cpu time spent up to now is        4.9 secs

     End of self-consistent calculation

          k = 0.0000 0.0000 0.0000 (   893 PWs)   bands (ev):

     3.2676   9.6621   9.6621   9.6621  10.4940  10.4940  35.5877  37.9875
    37.9875  37.9875

          k =-0.1000 0.1000-0.1000 (   887 PWs)   bands (ev):

     3.6298   9.5876   9.7271   9.7271  10.4711  10.4711  32.8202  36.2380
    37.0297  37.0297

          k =-0.2000 0.2000-0.2000 (   887 PWs)   bands (ev):

     4.6710   9.4367   9.8241   9.8241  10.4932  10.4932  27.6105  35.7350
    35.8903  35.8903

          k =-0.3000 0.3000-0.3000 (   875 PWs)   bands (ev):

     6.1635   9.4763   9.7793   9.7793  10.7042  10.7042  22.7526  34.9648
    35.1586  35.1586

          k =-0.4000 0.4000-0.4000 (   869 PWs)   bands (ev):

     7.3116   9.6748   9.6748  10.4018  10.9600  10.9600  18.6160  34.2655
    34.8246  34.8246

          k = 0.5000-0.5000 0.5000 (   862 PWs)   bands (ev):

     7.5792   9.6285   9.6285  11.0683  11.0683  11.6279  16.4241  33.9943
    34.7539  34.7539

          k = 0.0000 0.2000 0.0000 (   889 PWs)   bands (ev):

     3.7498   9.5205   9.7774   9.7774  10.3677  10.5461  34.1863  34.8672
    34.8672  36.3844

          k =-0.1000 0.3000-0.1000 (   889 PWs)   bands (ev):

     4.5641   9.3586   9.8819   9.9025  10.3050  10.6083  29.5736  33.2881
    34.2251  37.4871

          k =-0.2000 0.4000-0.2000 (   876 PWs)   bands (ev):

     5.9276   9.2515   9.7764   9.9218  10.5992  10.7818  24.5594  32.3467
    33.5133  35.7223

          k =-0.3000 0.5000-0.3000 (   872 PWs)   bands (ev):

     7.2699   9.5138   9.6544   9.8305  10.9996  11.2694  20.1116  32.1030
    32.5500  34.0284

          k = 0.6000-0.4000 0.6000 (   865 PWs)   bands (ev):

     7.7501   9.5012   9.7509  10.2103  11.0756  12.5460  16.8498  31.1925
    32.6315  33.7723

          k = 0.5000-0.3000 0.5000 (   872 PWs)   bands (ev):

     7.6807   9.5407   9.7516  10.1105  10.9319  12.1562  17.7048  30.2882
    33.9726  34.3342

          k = 0.4000-0.2000 0.4000 (   879 PWs)   bands (ev):

     6.9008   9.4346   9.6743   9.8407  10.6255  11.2416  21.5208  30.0514
    35.5716  36.0868

          k = 0.3000-0.1000 0.3000 (   883 PWs)   bands (ev):

     5.4335   9.3076   9.8101   9.9369  10.3356  10.8036  26.1883  30.4642
    37.2988  38.7602

          k = 0.2000 0.0000 0.2000 (   891 PWs)   bands (ev):

     4.2197   9.4598   9.8178   9.8282  10.3471  10.5675  31.0182  31.8039
    37.7161  39.3153

          k = 0.0000 0.4000 0.0000 (   869 PWs)   bands (ev):

     5.1206   9.1571  10.0926  10.1054  10.1054  10.6833  31.3134  31.3134
    32.3892  33.4652

          k =-0.1000 0.5000-0.1000 (   864 PWs)   bands (ev):

     6.2280   8.9676   9.8404  10.2334  10.5797  10.8247  26.8603  30.0409
    31.2765  32.9850

          k =-0.2000 0.6000-0.2000 (   876 PWs)   bands (ev):

     7.4854   8.9274   9.6192  10.1843  11.0306  11.5429  22.2258  28.9862
    29.5591  32.6980

          k = 0.7000-0.3000 0.7000 (   868 PWs)   bands (ev):

     8.1329   9.0715   9.6327  10.0868  11.0957  13.3605  18.2748  27.1109
    29.9434  32.7516

          k = 0.6000-0.2000 0.6000 (   857 PWs)   bands (ev):

     8.2389   9.1757   9.6575  10.0324  10.9337  14.1260  17.2956  25.8614
    31.1994  33.2948

          k = 0.5000-0.1000 0.5000 (   876 PWs)   bands (ev):

     7.8948   9.2718   9.3907  10.0594  10.6025  12.3594  20.8464  25.3215
    33.2391  34.4300

          k = 0.4000 0.0000 0.4000 (   871 PWs)   bands (ev):

     6.7004   9.1590   9.6426  10.1519  10.2471  11.3658  24.9992  25.8119
    35.9146  36.1527

          k = 0.0000 0.6000 0.0000 (   866 PWs)   bands (ev):

     6.9182   8.7218  10.2013  10.5740  10.5740  10.8550  28.2127  28.4144
    28.4144  31.1534

          k =-0.1000 0.7000-0.1000 (   873 PWs)   bands (ev):

     7.6540   8.5831  10.1827  10.6333  11.0359  11.6258  24.8000  25.6202
    27.6119  31.7217

          k = 0.8000-0.2000 0.8000 (   873 PWs)   bands (ev):

     8.1663   8.6113   9.9473  10.5374  11.1239  13.7812  20.6725  23.5359
    27.7461  31.9340

          k = 0.7000-0.1000 0.7000 (   879 PWs)   bands (ev):

     8.5110   8.7473   9.6566  10.4224  10.9802  16.3949  17.4501  22.1375
    28.8207  32.3491

          k = 0.6000-0.0000 0.6000 (   871 PWs)   bands (ev):

     8.5779   9.0114   9.3097  10.2868  10.7284  14.2177  20.0090  21.9291
    30.7129  33.1777

          k = 0.0000 0.8000 0.0000 (   882 PWs)   bands (ev):

     7.7342   8.3804  10.9957  11.0209  11.0209  12.0752  22.8317  26.4627
    26.4627  30.4668

          k = 0.9000-0.1000 0.9000 (   873 PWs)   bands (ev):

     7.8975   8.3503  10.7728  10.9246  11.1634  14.0180  20.8569  23.6716
    26.2821  31.2263

          k = 0.8000 0.0000 0.8000 (   870 PWs)   bands (ev):

     8.1909   8.4976  10.2097  10.7560  11.0848  16.1337  19.8796  20.3925
    27.1115  31.7185

          k = 0.0000-1.0000 0.0000 (   846 PWs)   bands (ev):

     7.7853   8.2525  11.0499  11.2126  11.2126  14.1333  19.7770  25.7616
    25.7616  30.2489

          k =-0.2000 0.4000 0.0000 (   877 PWs)   bands (ev):

     5.5464   9.1770   9.8197  10.1166  10.2839  10.8219  28.0727  28.7040
    34.8204  36.3115

          k =-0.3000 0.5000-0.1000 (   871 PWs)   bands (ev):

     6.9215   9.0943   9.5981  10.1198  10.5776  11.3389  23.5003  27.8093
    32.2906  36.4076

          k = 0.6000-0.4000 0.8000 (   877 PWs)   bands (ev):

     7.9113   9.2789   9.5185  10.0152  10.9146  12.4787  19.2742  27.8625
    30.1975  35.8904

          k = 0.5000-0.3000 0.7000 (   868 PWs)   bands (ev):

     8.1131   9.2460   9.7866   9.9543  11.0249  13.9714  16.7144  28.4430
    28.9192  35.6715

          k =-0.2000 0.6000 0.0000 (   872 PWs)   bands (ev):

     7.2555   8.8031   9.7093  10.5729  10.6246  11.3626  25.7028  26.2920
    28.6965  34.5393

          k = 0.7000-0.3000 0.9000 (   875 PWs)   bands (ev):

     8.1221   8.7988   9.5269  10.4632  10.9519  12.7792  21.5504  25.8486
    26.4205  35.1128

          k = 0.6000-0.2000 0.8000 (   870 PWs)   bands (ev):

     8.5070   8.8588   9.4884  10.3161  11.0366  15.1541  17.8556  24.6430
    26.5268  35.4722

          k = 0.5000-0.1000 0.7000 (   871 PWs)   bands (ev):

     8.5697   8.9662   9.3168  10.2830  10.8848  14.4235  18.9382  23.6217
    27.8607  36.3532

          k = 0.4000 0.0000 0.6000 (   878 PWs)   bands (ev):

     8.0392   9.0284   9.3001  10.3385  10.5960  12.4560  22.5725  23.7096
    29.8207  37.7654

          k = 0.8000-0.2000 1.0000 (   866 PWs)   bands (ev):

     7.9838   8.5036  10.1923  10.8768  11.0190  13.1378  23.1632  24.0769
    24.7497  33.4888

          k = 0.7000-0.1000 0.9000 (   874 PWs)   bands (ev):

     8.2823   8.6027   9.9039  10.6709  11.1307  15.5817  20.4442  21.4636
    24.8762  34.4943

          k = 0.6000 0.0000 0.8000 (   875 PWs)   bands (ev):

     8.6112   8.7642   9.4960  10.4740  11.0222  17.0837  18.2035  20.9597
    26.0478  35.2865

          k =-0.2000-1.0000 0.0000 (   874 PWs)   bands (ev):

     8.0017   8.3905  10.5313  10.8851  11.2128  15.2471  19.9602  23.4817
    24.1707  33.1484

          k = 0.6000-0.2000 1.0000 (   878 PWs)   bands (ev):

     8.5220   8.8789   9.3091  10.5339  11.0157  14.8644  20.9266  22.4355
    24.2651  38.5699

          k = 0.5000-0.1000 0.9000 (   870 PWs)   bands (ev):

     8.6208   8.9877   9.2187  10.4371  11.1207  17.4659  18.0808  22.6583
    22.9014  39.1196

          k =-0.4000-1.0000 0.0000 (   880 PWs)   bands (ev):

     8.4386   8.8165   9.5479  10.5305  11.2132  17.5122  20.3226  20.5932
    22.0473  38.1844

     the Fermi energy is    12.5815 ev

!    total energy              =    -213.09607208 Ry
     Harris-Foulkes estimate   =    -213.09607208 Ry
     estimated scf accuracy    <          1.9E-10 Ry

     total all-electron energy =     -3309.975838 Ry

     The total energy is the sum of the following terms:

     one-electron contribution =     -28.00910124 Ry
     hartree contribution      =      30.61304112 Ry
     xc contribution           =     -44.62778860 Ry
     ewald contribution        =     -81.22522855 Ry
     one-center paw contrib.   =     -89.84661516 Ry
     smearing contrib. (-TS)   =      -0.00037966 Ry

     convergence has been achieved in   6 iterations

     Forces acting on atoms (cartesian axes, Ry/au):

     atom    1 type  1   force =     0.00000000    0.00000000    0.00000000

     Total force =     0.000000     Total SCF correction =     0.000000


     Computing stress (Cartesian axis) and pressure

          total   stress  (Ry/bohr**3)                   (kbar)     P=   18.15
   0.00012340   0.00000000   0.00000000         18.15      0.00      0.00
   0.00000000   0.00012340  -0.00000000          0.00     18.15     -0.00
   0.00000000  -0.00000000   0.00012340          0.00     -0.00     18.15


     Writing output data file Cu.save/

     init_run     :      0.42s CPU      0.45s WALL (       1 calls)
     electrons    :      3.55s CPU      3.73s WALL (       1 calls)
     forces       :      0.05s CPU      0.05s WALL (       1 calls)
     stress       :      0.15s CPU      0.15s WALL (       1 calls)

     Called by init_run:
     wfcinit      :      0.14s CPU      0.15s WALL (       1 calls)
     potinit      :      0.10s CPU      0.11s WALL (       1 calls)
     hinit0       :      0.17s CPU      0.17s WALL (       1 calls)

     Called by electrons:
     c_bands      :      2.39s CPU      2.49s WALL (       7 calls)
     sum_band     :      0.50s CPU      0.52s WALL (       7 calls)
     v_of_rho     :      0.03s CPU      0.03s WALL (       7 calls)
     newd         :      0.05s CPU      0.06s WALL (       7 calls)
     PAW_pot      :      0.67s CPU      0.75s WALL (       7 calls)
     mix_rho      :      0.00s CPU      0.00s WALL (       7 calls)

     Called by c_bands:
     init_us_2    :      0.08s CPU      0.09s WALL (     799 calls)
     cegterg      :      2.27s CPU      2.36s WALL (     329 calls)

     Called by sum_band:
     sum_band:bec :      0.00s CPU      0.00s WALL (     329 calls)
     addusdens    :      0.05s CPU      0.05s WALL (       7 calls)

     Called by *egterg:
     h_psi        :      1.87s CPU      1.96s WALL (    1017 calls)
     s_psi        :      0.06s CPU      0.06s WALL (    1017 calls)
     g_psi        :      0.01s CPU      0.01s WALL (     641 calls)
     cdiaghg      :      0.18s CPU      0.19s WALL (     923 calls)

     Called by h_psi:
     h_psi:pot    :      1.87s CPU      1.95s WALL (    1017 calls)
     h_psi:calbec :      0.08s CPU      0.09s WALL (    1017 calls)
     vloc_psi     :      1.72s CPU      1.80s WALL (    1017 calls)
     add_vuspsi   :      0.06s CPU      0.06s WALL (    1017 calls)

     General routines
     calbec       :      0.14s CPU      0.14s WALL (    1581 calls)
     fft          :      0.02s CPU      0.02s WALL (     104 calls)
     ffts         :      0.00s CPU      0.00s WALL (       7 calls)
     fftw         :      1.94s CPU      2.03s WALL (   19840 calls)

     Parallel routines
     fft_scatt_xy :      0.17s CPU      0.18s WALL (   19951 calls)
     fft_scatt_yz :      0.46s CPU      0.48s WALL (   19951 calls)

     PWSCF        :     4.98s CPU         5.27s WALL


   This run was terminated on:  23:34:48  25Mar2024            

=------------------------------------------------------------------------------=
   JOB DONE.
=------------------------------------------------------------------------------=
