
     Program PWSCF v.6.3MaX starts on 25Mar2024 at 23:32:23 

     This program is part of the open-source Quantum ESPRESSO suite
     for quantum simulation of materials; please cite
         "P. Giannozzi et al., J. Phys.:Condens. Matter 21 395502 (2009);
         "P. Giannozzi et al., J. Phys.:Condens. Matter 29 465901 (2017);
          URL http://www.quantum-espresso.org", 
     in publications or presentations arising from this work. More details at
     http://www.quantum-espresso.org/quote

     Parallel version (MPI), running on     5 processors

     MPI processes distributed on     1 nodes
     R & G space division:  proc/nbgrp/npool/nimage =       5
     Waiting for input...
     Reading input from standard input

     Current dimensions of program PWSCF are:
     Max number of different atomic species (ntypx) = 10
     Max number of k-points (npk) =  40000
     Max angular momentum in pseudopotentials (lmaxx) =  3
               file Cu.pbe-dn-rrkjus_psl.1.0.0.UPF: wavefunction(s)  3D renormalized

     Subspace diagonalization in iterative solution of the eigenvalue problem:
     a serial algorithm will be used


     Parallelization info
     --------------------
     sticks:   dense  smooth     PW     G-vecs:    dense   smooth      PW
     Min          87      87     30                 1245     1245     241
     Max          88      88     31                 1247     1247     244
     Sum         439     439    151                 6231     6231    1211



     bravais-lattice index     =            2
     lattice parameter (alat)  =       6.8300  a.u.
     unit-cell volume          =      79.6530 (a.u.)^3
     number of atoms/cell      =            1
     number of atomic types    =            1
     number of electrons       =        11.00
     number of Kohn-Sham states=           10
     kinetic-energy cutoff     =      70.0000  Ry
     charge density cutoff     =     280.0000  Ry
     convergence threshold     =      1.0E-08
     mixing beta               =       0.7000
     number of iterations used =            8  plain     mixing
     Exchange-correlation      = PBE ( 1  4  3  4 0 0)

     celldm(1)=   6.830000  celldm(2)=   0.000000  celldm(3)=   0.000000
     celldm(4)=   0.000000  celldm(5)=   0.000000  celldm(6)=   0.000000

     crystal axes: (cart. coord. in units of alat)
               a(1) = (  -0.500000   0.000000   0.500000 )  
               a(2) = (   0.000000   0.500000   0.500000 )  
               a(3) = (  -0.500000   0.500000   0.000000 )  

     reciprocal axes: (cart. coord. in units 2 pi/alat)
               b(1) = ( -1.000000 -1.000000  1.000000 )  
               b(2) = (  1.000000  1.000000  1.000000 )  
               b(3) = ( -1.000000  1.000000 -1.000000 )  


     PseudoPot. # 1 for Cu read from file:
     /home/lorenzo/pseudos/Cu/Cu.pbe-dn-rrkjus_psl.1.0.0.UPF
     MD5 check sum: ba3d6c84e19846e79d48cdc68ff7152b
     Pseudo is Ultrasoft + core correction, Zval = 11.0
     Generated using "atomic" code by A. Dal Corso v.6.3
     Using radial grid of 1199 points,  6 beta functions with: 
                l(1) =   0
                l(2) =   0
                l(3) =   1
                l(4) =   1
                l(5) =   2
                l(6) =   2
     Q(r) pseudized with 0 coefficients 


     atomic species   valence    mass     pseudopotential
        Cu            11.00    63.54600     Cu( 1.00)

     48 Sym. Ops., with inversion, found



   Cartesian axes

     site n.     atom                  positions (alat units)
         1           Cu  tau(   1) = (   0.0000000   0.0000000   0.0000000  )

     number of k points=    47  gaussian smearing, width (Ry)=  0.0100
                       cart. coord. in units 2pi/alat
        k(    1) = (   0.0000000   0.0000000   0.0000000), wk =   0.0020000
        k(    2) = (  -0.1000000   0.1000000  -0.1000000), wk =   0.0160000
        k(    3) = (  -0.2000000   0.2000000  -0.2000000), wk =   0.0160000
        k(    4) = (  -0.3000000   0.3000000  -0.3000000), wk =   0.0160000
        k(    5) = (  -0.4000000   0.4000000  -0.4000000), wk =   0.0160000
        k(    6) = (   0.5000000  -0.5000000   0.5000000), wk =   0.0080000
        k(    7) = (   0.0000000   0.2000000   0.0000000), wk =   0.0120000
        k(    8) = (  -0.1000000   0.3000000  -0.1000000), wk =   0.0480000
        k(    9) = (  -0.2000000   0.4000000  -0.2000000), wk =   0.0480000
        k(   10) = (  -0.3000000   0.5000000  -0.3000000), wk =   0.0480000
        k(   11) = (   0.6000000  -0.4000000   0.6000000), wk =   0.0480000
        k(   12) = (   0.5000000  -0.3000000   0.5000000), wk =   0.0480000
        k(   13) = (   0.4000000  -0.2000000   0.4000000), wk =   0.0480000
        k(   14) = (   0.3000000  -0.1000000   0.3000000), wk =   0.0480000
        k(   15) = (   0.2000000   0.0000000   0.2000000), wk =   0.0240000
        k(   16) = (   0.0000000   0.4000000   0.0000000), wk =   0.0120000
        k(   17) = (  -0.1000000   0.5000000  -0.1000000), wk =   0.0480000
        k(   18) = (  -0.2000000   0.6000000  -0.2000000), wk =   0.0480000
        k(   19) = (   0.7000000  -0.3000000   0.7000000), wk =   0.0480000
        k(   20) = (   0.6000000  -0.2000000   0.6000000), wk =   0.0480000
        k(   21) = (   0.5000000  -0.1000000   0.5000000), wk =   0.0480000
        k(   22) = (   0.4000000   0.0000000   0.4000000), wk =   0.0240000
        k(   23) = (   0.0000000   0.6000000   0.0000000), wk =   0.0120000
        k(   24) = (  -0.1000000   0.7000000  -0.1000000), wk =   0.0480000
        k(   25) = (   0.8000000  -0.2000000   0.8000000), wk =   0.0480000
        k(   26) = (   0.7000000  -0.1000000   0.7000000), wk =   0.0480000
        k(   27) = (   0.6000000  -0.0000000   0.6000000), wk =   0.0240000
        k(   28) = (   0.0000000   0.8000000   0.0000000), wk =   0.0120000
        k(   29) = (   0.9000000  -0.1000000   0.9000000), wk =   0.0480000
        k(   30) = (   0.8000000   0.0000000   0.8000000), wk =   0.0240000
        k(   31) = (   0.0000000  -1.0000000   0.0000000), wk =   0.0060000
        k(   32) = (  -0.2000000   0.4000000   0.0000000), wk =   0.0480000
        k(   33) = (  -0.3000000   0.5000000  -0.1000000), wk =   0.0960000
        k(   34) = (   0.6000000  -0.4000000   0.8000000), wk =   0.0960000
        k(   35) = (   0.5000000  -0.3000000   0.7000000), wk =   0.0480000
        k(   36) = (  -0.2000000   0.6000000   0.0000000), wk =   0.0480000
        k(   37) = (   0.7000000  -0.3000000   0.9000000), wk =   0.0960000
        k(   38) = (   0.6000000  -0.2000000   0.8000000), wk =   0.0960000
        k(   39) = (   0.5000000  -0.1000000   0.7000000), wk =   0.0960000
        k(   40) = (   0.4000000   0.0000000   0.6000000), wk =   0.0480000
        k(   41) = (   0.8000000  -0.2000000   1.0000000), wk =   0.0480000
        k(   42) = (   0.7000000  -0.1000000   0.9000000), wk =   0.0960000
        k(   43) = (   0.6000000   0.0000000   0.8000000), wk =   0.0480000
        k(   44) = (  -0.2000000  -1.0000000   0.0000000), wk =   0.0240000
        k(   45) = (   0.6000000  -0.2000000   1.0000000), wk =   0.0480000
        k(   46) = (   0.5000000  -0.1000000   0.9000000), wk =   0.0480000
        k(   47) = (  -0.4000000  -1.0000000   0.0000000), wk =   0.0240000

     Dense  grid:     6231 G-vectors     FFT dimensions: (  25,  25,  25)

     Estimated max dynamical RAM per process >       7.20 MB

     Estimated total dynamical RAM >      36.02 MB

     Initial potential from superposition of free atoms

     starting charge   10.99977, renormalised to   11.00000
     Starting wfcs are    9 randomized atomic wfcs +    1 random wfcs

     total cpu time spent up to now is        1.0 secs

     Self-consistent Calculation

     iteration #  1     ecut=    70.00 Ry     beta= 0.70
     Davidson diagonalization with overlap
     ethr =  1.00E-02,  avg # of iterations =  3.6

     Threshold (ethr) on eigenvalues was too large:
     Diagonalizing with lowered threshold

     Davidson diagonalization with overlap
     ethr =  5.76E-04,  avg # of iterations =  1.0

     total cpu time spent up to now is        1.9 secs

     total energy              =    -122.70872601 Ry
     Harris-Foulkes estimate   =    -122.75810213 Ry
     estimated scf accuracy    <       0.06300718 Ry

     iteration #  2     ecut=    70.00 Ry     beta= 0.70
     Davidson diagonalization with overlap
     ethr =  5.73E-04,  avg # of iterations =  2.0

     total cpu time spent up to now is        2.4 secs

     total energy              =    -122.70958709 Ry
     Harris-Foulkes estimate   =    -122.79783421 Ry
     estimated scf accuracy    <       0.22992650 Ry

     iteration #  3     ecut=    70.00 Ry     beta= 0.70
     Davidson diagonalization with overlap
     ethr =  5.73E-04,  avg # of iterations =  2.0

     total cpu time spent up to now is        2.9 secs

     total energy              =    -122.74582673 Ry
     Harris-Foulkes estimate   =    -122.74583926 Ry
     estimated scf accuracy    <       0.00005896 Ry

     iteration #  4     ecut=    70.00 Ry     beta= 0.70
     Davidson diagonalization with overlap
     ethr =  5.36E-07,  avg # of iterations =  2.8

     total cpu time spent up to now is        3.3 secs

     total energy              =    -122.74587660 Ry
     Harris-Foulkes estimate   =    -122.74588049 Ry
     estimated scf accuracy    <       0.00001273 Ry

     iteration #  5     ecut=    70.00 Ry     beta= 0.70
     Davidson diagonalization with overlap
     ethr =  1.16E-07,  avg # of iterations =  1.3

     total cpu time spent up to now is        3.6 secs

     total energy              =    -122.74587906 Ry
     Harris-Foulkes estimate   =    -122.74587929 Ry
     estimated scf accuracy    <       0.00000068 Ry

     iteration #  6     ecut=    70.00 Ry     beta= 0.70
     Davidson diagonalization with overlap
     ethr =  6.16E-09,  avg # of iterations =  1.1

     total cpu time spent up to now is        4.0 secs

     End of self-consistent calculation

          k = 0.0000 0.0000 0.0000 (   749 PWs)   bands (ev):

     3.2751   9.6767   9.6767   9.6767  10.5037  10.5037  35.5974  37.9926
    37.9926  37.9926

          k =-0.1000 0.1000-0.1000 (   791 PWs)   bands (ev):

     3.6372   9.6021   9.7416   9.7416  10.4808  10.4808  32.8280  36.2460
    37.0359  37.0359

          k =-0.2000 0.2000-0.2000 (   794 PWs)   bands (ev):

     4.6785   9.4508   9.8379   9.8379  10.5036  10.5036  27.6178  35.7437
    35.8966  35.8966

          k =-0.3000 0.3000-0.3000 (   790 PWs)   bands (ev):

     6.1716   9.4894   9.7918   9.7918  10.7160  10.7160  22.7600  34.9737
    35.1645  35.1645

          k =-0.4000 0.4000-0.4000 (   790 PWs)   bands (ev):

     7.3225   9.6866   9.6866  10.4114  10.9724  10.9724  18.6239  34.2743
    34.8298  34.8298

          k = 0.5000-0.5000 0.5000 (   778 PWs)   bands (ev):

     7.5915   9.6402   9.6402  11.0809  11.0809  11.6352  16.4328  34.0030
    34.7587  34.7587

          k = 0.0000 0.2000 0.0000 (   797 PWs)   bands (ev):

     3.7572   9.5350   9.7920   9.7920  10.3774  10.5556  34.1961  34.8735
    34.8735  36.3907

          k =-0.1000 0.3000-0.1000 (   797 PWs)   bands (ev):

     4.5714   9.3730   9.8957   9.9167  10.3153  10.6182  29.5809  33.2944
    34.2335  37.4950

          k =-0.2000 0.4000-0.2000 (   795 PWs)   bands (ev):

     5.9353   9.2653   9.7884   9.9347  10.6112  10.7930  24.5667  32.3529
    33.5219  35.7279

          k =-0.3000 0.5000-0.3000 (   789 PWs)   bands (ev):

     7.2798   9.5247   9.6672   9.8426  11.0118  11.2809  20.1191  32.1090
    32.5581  34.0342

          k = 0.6000-0.4000 0.6000 (   791 PWs)   bands (ev):

     7.7624   9.5121   9.7625  10.2222  11.0883  12.5550  16.8582  31.1994
    32.6372  33.7791

          k = 0.5000-0.3000 0.5000 (   791 PWs)   bands (ev):

     7.6925   9.5519   9.7631  10.1220  10.9446  12.1662  17.7129  30.2949
    33.9781  34.3414

          k = 0.4000-0.2000 0.4000 (   790 PWs)   bands (ev):

     6.9096   9.4475   9.6861   9.8524  10.6379  11.2534  21.5282  30.0582
    35.5790  36.0920

          k = 0.3000-0.1000 0.3000 (   799 PWs)   bands (ev):

     5.4410   9.3217   9.8229   9.9502  10.3465  10.8148  26.1955  30.4711
    37.3065  38.7648

          k = 0.2000 0.0000 0.2000 (   797 PWs)   bands (ev):

     4.2270   9.4742   9.8318   9.8428  10.3568  10.5776  31.0262  31.8102
    37.7237  39.3205

          k = 0.0000 0.4000 0.0000 (   801 PWs)   bands (ev):

     5.1280   9.1714  10.1021  10.1199  10.1199  10.6928  31.3197  31.3197
    32.3990  33.4733

          k =-0.1000 0.5000-0.1000 (   804 PWs)   bands (ev):

     6.2356   8.9818   9.8514  10.2469  10.5925  10.8352  26.8674  30.0471
    31.2842  32.9926

          k =-0.2000 0.6000-0.2000 (   797 PWs)   bands (ev):

     7.4944   8.9407   9.6310  10.1965  11.0426  11.5543  22.2330  28.9930
    29.5651  32.7055

          k = 0.7000-0.3000 0.7000 (   792 PWs)   bands (ev):

     8.1449   9.0817   9.6460  10.0983  11.1085  13.3697  18.2825  27.1174
    29.9493  32.7590

          k = 0.6000-0.2000 0.6000 (   785 PWs)   bands (ev):

     8.2515   9.1854   9.6707  10.0434  10.9469  14.1347  17.3037  25.8679
    31.2052  33.3022

          k = 0.5000-0.1000 0.5000 (   787 PWs)   bands (ev):

     7.9050   9.2847   9.4020  10.0701  10.6161  12.3701  20.8539  25.3282
    33.2448  34.4373

          k = 0.4000 0.0000 0.4000 (   789 PWs)   bands (ev):

     6.7084   9.1730   9.6542  10.1615  10.2617  11.3775  25.0071  25.8181
    35.9204  36.1600

          k = 0.0000 0.6000 0.0000 (   801 PWs)   bands (ev):

     6.9261   8.7359  10.2102  10.5885  10.5885  10.8646  28.2195  28.4206
    28.4206  31.1632

          k =-0.1000 0.7000-0.1000 (   785 PWs)   bands (ev):

     7.6628   8.5971  10.1947  10.6457  11.0476  11.6366  24.8070  25.6265
    27.6180  31.7303

          k = 0.8000-0.2000 0.8000 (   781 PWs)   bands (ev):

     8.1764   8.6245   9.9604  10.5485  11.1370  13.7902  20.6797  23.5422
    27.7521  31.9419

          k = 0.7000-0.1000 0.7000 (   787 PWs)   bands (ev):

     8.5232   8.7581   9.6702  10.4327  10.9942  16.4030  17.4579  22.1437
    28.8266  32.3567

          k = 0.6000-0.0000 0.6000 (   788 PWs)   bands (ev):

     8.5902   9.0212   9.3235  10.2964  10.7431  14.2267  20.0172  21.9350
    30.7187  33.1852

          k = 0.0000 0.8000 0.0000 (   789 PWs)   bands (ev):

     7.7435   8.3944  11.0053  11.0356  11.0356  12.0827  22.8379  26.4687
    26.4687  30.4767

          k = 0.9000-0.1000 0.9000 (   777 PWs)   bands (ev):

     7.9071   8.3642  10.7868  10.9348  11.1775  14.0260  20.8630  23.6782
    26.2882  31.2350

          k = 0.8000 0.0000 0.8000 (   782 PWs)   bands (ev):

     8.2008   8.5111  10.2234  10.7656  11.0995  16.1420  19.8869  20.3982
    27.1175  31.7265

          k = 0.0000-1.0000 0.0000 (   790 PWs)   bands (ev):

     7.7948   8.2665  11.0594  11.2273  11.2273  14.1405  19.7830  25.7676
    25.7676  30.2588

          k =-0.2000 0.4000 0.0000 (   792 PWs)   bands (ev):

     5.5539   9.1913   9.8318  10.1311  10.2944  10.8330  28.0804  28.7102
    34.8276  36.3199

          k =-0.3000 0.5000-0.1000 (   792 PWs)   bands (ev):

     6.9297   9.1081   9.6097  10.1318  10.5898  11.3506  23.5076  27.8161
    32.2971  36.4146

          k = 0.6000-0.4000 0.8000 (   789 PWs)   bands (ev):

     7.9224   9.2892   9.5318  10.0267  10.9274  12.4890  19.2818  27.8693
    30.2038  35.8970

          k = 0.5000-0.3000 0.7000 (   790 PWs)   bands (ev):

     8.1257   9.2560   9.7995   9.9656  11.0379  13.9799  16.7228  28.4503
    28.9248  35.6781

          k =-0.2000 0.6000 0.0000 (   790 PWs)   bands (ev):

     7.2637   8.8172   9.7207  10.5875  10.6343  11.3743  25.7103  26.2983
    28.7028  34.5480

          k = 0.7000-0.3000 0.9000 (   789 PWs)   bands (ev):

     8.1318   8.8122   9.5393  10.4744  10.9650  12.7892  21.5576  25.8556
    26.4264  35.1204

          k = 0.6000-0.2000 0.8000 (   791 PWs)   bands (ev):

     8.5193   8.8693   9.5019  10.3267  11.0503  15.1625  17.8633  24.6494
    26.5331  35.4794

          k = 0.5000-0.1000 0.7000 (   784 PWs)   bands (ev):

     8.5819   8.9763   9.3304  10.2933  10.8989  14.4323  18.9459  23.6282
    27.8670  36.3601

          k = 0.4000 0.0000 0.6000 (   783 PWs)   bands (ev):

     8.0486   9.0423   9.3114  10.3480  10.6106  12.4666  22.5805  23.7157
    29.8271  37.7718

          k = 0.8000-0.2000 1.0000 (   786 PWs)   bands (ev):

     7.9931   8.5176  10.2052  10.8865  11.0338  13.1468  23.1697  24.0842
    24.7555  33.4977

          k = 0.7000-0.1000 0.9000 (   775 PWs)   bands (ev):

     8.2921   8.6164   9.9173  10.6808  11.1453  15.5900  20.4516  21.4697
    24.8824  34.5022

          k = 0.6000 0.0000 0.8000 (   777 PWs)   bands (ev):

     8.6214   8.7772   9.5097  10.4836  11.0370  17.0916  18.2118  20.9655
    26.0541  35.2939

          k =-0.2000-1.0000 0.0000 (   782 PWs)   bands (ev):

     8.0114   8.4045  10.5452  10.8946  11.2276  15.2552  19.9662  23.4889
    24.1765  33.1574

          k = 0.6000-0.2000 1.0000 (   776 PWs)   bands (ev):

     8.5316   8.8928   9.3221  10.5436  11.0304  14.8730  20.9345  22.4416
    24.2712  38.5786

          k = 0.5000-0.1000 0.9000 (   778 PWs)   bands (ev):

     8.6305   9.0013   9.2324  10.4468  11.1354  17.4739  18.0885  22.6656
    22.9067  39.1265

          k =-0.4000-1.0000 0.0000 (   772 PWs)   bands (ev):

     8.4483   8.8304   9.5616  10.5401  11.2280  17.5204  20.3305  20.5994
    22.0528  38.1931

     the Fermi energy is    12.5914 ev

!    total energy              =    -122.74587916 Ry
     Harris-Foulkes estimate   =    -122.74587917 Ry
     estimated scf accuracy    <          6.4E-10 Ry

     The total energy is the sum of the following terms:

     one-electron contribution =     -27.50356270 Ry
     hartree contribution      =      30.61062814 Ry
     xc contribution           =     -44.62733548 Ry
     ewald contribution        =     -81.22522855 Ry
     smearing contrib. (-TS)   =      -0.00038057 Ry

     convergence has been achieved in   6 iterations

     Forces acting on atoms (cartesian axes, Ry/au):

     atom    1 type  1   force =     0.00000000    0.00000000    0.00000000

     Total force =     0.000000     Total SCF correction =     0.000000


     Computing stress (Cartesian axis) and pressure

          total   stress  (Ry/bohr**3)                   (kbar)     P=   27.03
   0.00018378  -0.00000000  -0.00000000         27.03     -0.00     -0.00
  -0.00000000   0.00018378   0.00000000         -0.00     27.03      0.00
  -0.00000000   0.00000000   0.00018378         -0.00      0.00     27.03


     Writing output data file Cu.save/

     init_run     :      0.32s CPU      0.32s WALL (       1 calls)
     electrons    :      2.79s CPU      2.93s WALL (       1 calls)
     forces       :      0.05s CPU      0.05s WALL (       1 calls)
     stress       :      0.16s CPU      0.16s WALL (       1 calls)

     Called by init_run:
     wfcinit      :      0.15s CPU      0.15s WALL (       1 calls)
     potinit      :      0.01s CPU      0.01s WALL (       1 calls)
     hinit0       :      0.15s CPU      0.15s WALL (       1 calls)

     Called by electrons:
     c_bands      :      2.26s CPU      2.38s WALL (       7 calls)
     sum_band     :      0.47s CPU      0.48s WALL (       7 calls)
     v_of_rho     :      0.02s CPU      0.02s WALL (       7 calls)
     newd         :      0.05s CPU      0.05s WALL (       7 calls)
     mix_rho      :      0.00s CPU      0.00s WALL (       7 calls)

     Called by c_bands:
     init_us_2    :      0.08s CPU      0.09s WALL (     799 calls)
     cegterg      :      2.15s CPU      2.26s WALL (     329 calls)

     Called by sum_band:
     sum_band:bec :      0.00s CPU      0.00s WALL (     329 calls)
     addusdens    :      0.04s CPU      0.04s WALL (       7 calls)

     Called by *egterg:
     h_psi        :      1.74s CPU      1.83s WALL (    1023 calls)
     s_psi        :      0.06s CPU      0.06s WALL (    1023 calls)
     g_psi        :      0.01s CPU      0.01s WALL (     647 calls)
     cdiaghg      :      0.19s CPU      0.20s WALL (     929 calls)

     Called by h_psi:
     h_psi:pot    :      1.73s CPU      1.82s WALL (    1023 calls)
     h_psi:calbec :      0.08s CPU      0.09s WALL (    1023 calls)
     vloc_psi     :      1.58s CPU      1.66s WALL (    1023 calls)
     add_vuspsi   :      0.06s CPU      0.06s WALL (    1023 calls)

     General routines
     calbec       :      0.15s CPU      0.15s WALL (    1587 calls)
     fft          :      0.02s CPU      0.02s WALL (     104 calls)
     ffts         :      0.00s CPU      0.00s WALL (       7 calls)
     fftw         :      1.81s CPU      1.89s WALL (   19902 calls)

     Parallel routines
     fft_scatt_xy :      0.14s CPU      0.14s WALL (   20013 calls)
     fft_scatt_yz :      0.56s CPU      0.58s WALL (   20013 calls)

     PWSCF        :     4.09s CPU         4.29s WALL


   This run was terminated on:  23:32:28  25Mar2024            

=------------------------------------------------------------------------------=
   JOB DONE.
=------------------------------------------------------------------------------=
