
     Program PWSCF v.6.3MaX starts on 25Mar2024 at 23:14:13 

     This program is part of the open-source Quantum ESPRESSO suite
     for quantum simulation of materials; please cite
         "P. Giannozzi et al., J. Phys.:Condens. Matter 21 395502 (2009);
         "P. Giannozzi et al., J. Phys.:Condens. Matter 29 465901 (2017);
          URL http://www.quantum-espresso.org", 
     in publications or presentations arising from this work. More details at
     http://www.quantum-espresso.org/quote

     Parallel version (MPI), running on     5 processors

     MPI processes distributed on     1 nodes
     R & G space division:  proc/nbgrp/npool/nimage =       5
     Waiting for input...
     Reading input from standard input

     Current dimensions of program PWSCF are:
     Max number of different atomic species (ntypx) = 10
     Max number of k-points (npk) =  40000
     Max angular momentum in pseudopotentials (lmaxx) =  3
               file Cu.pbesol-dn-rrkjus_psl.1.0.0.UPF: wavefunction(s)  3D renormalized

     Subspace diagonalization in iterative solution of the eigenvalue problem:
     a serial algorithm will be used


     Parallelization info
     --------------------
     sticks:   dense  smooth     PW     G-vecs:    dense   smooth      PW
     Min          32      32     12                  272      272      66
     Max          33      33     13                  273      273      67
     Sum         163     163     61                 1363     1363     331



     bravais-lattice index     =            2
     lattice parameter (alat)  =       6.8300  a.u.
     unit-cell volume          =      79.6530 (a.u.)^3
     number of atoms/cell      =            1
     number of atomic types    =            1
     number of electrons       =        11.00
     number of Kohn-Sham states=           10
     kinetic-energy cutoff     =      25.0000  Ry
     charge density cutoff     =     100.0000  Ry
     convergence threshold     =      1.0E-08
     mixing beta               =       0.7000
     number of iterations used =            8  plain     mixing
     Exchange-correlation      = PBESOL ( 1  4 10  8 0 0)

     celldm(1)=   6.830000  celldm(2)=   0.000000  celldm(3)=   0.000000
     celldm(4)=   0.000000  celldm(5)=   0.000000  celldm(6)=   0.000000

     crystal axes: (cart. coord. in units of alat)
               a(1) = (  -0.500000   0.000000   0.500000 )  
               a(2) = (   0.000000   0.500000   0.500000 )  
               a(3) = (  -0.500000   0.500000   0.000000 )  

     reciprocal axes: (cart. coord. in units 2 pi/alat)
               b(1) = ( -1.000000 -1.000000  1.000000 )  
               b(2) = (  1.000000  1.000000  1.000000 )  
               b(3) = ( -1.000000  1.000000 -1.000000 )  


     PseudoPot. # 1 for Cu read from file:
     /home/lorenzo/pseudos/Cu/Cu.pbesol-dn-rrkjus_psl.1.0.0.UPF
     MD5 check sum: bfa4c7aafbc42e028d5f4ccf7ceed93d
     Pseudo is Ultrasoft + core correction, Zval = 11.0
     Generated using "atomic" code by A. Dal Corso v.6.3
     Using radial grid of 1199 points,  6 beta functions with: 
                l(1) =   0
                l(2) =   0
                l(3) =   1
                l(4) =   1
                l(5) =   2
                l(6) =   2
     Q(r) pseudized with 0 coefficients 


     atomic species   valence    mass     pseudopotential
        Cu            11.00    63.54600     Cu( 1.00)

     48 Sym. Ops., with inversion, found



   Cartesian axes

     site n.     atom                  positions (alat units)
         1           Cu  tau(   1) = (   0.0000000   0.0000000   0.0000000  )

     number of k points=    56  gaussian smearing, width (Ry)=  0.0100
                       cart. coord. in units 2pi/alat
        k(    1) = (   0.0000000   0.0000000   0.0000000), wk =   0.0015026
        k(    2) = (  -0.0909091   0.0909091  -0.0909091), wk =   0.0120210
        k(    3) = (  -0.1818182   0.1818182  -0.1818182), wk =   0.0120210
        k(    4) = (  -0.2727273   0.2727273  -0.2727273), wk =   0.0120210
        k(    5) = (  -0.3636364   0.3636364  -0.3636364), wk =   0.0120210
        k(    6) = (  -0.4545455   0.4545455  -0.4545455), wk =   0.0120210
        k(    7) = (   0.0000000   0.1818182   0.0000000), wk =   0.0090158
        k(    8) = (  -0.0909091   0.2727273  -0.0909091), wk =   0.0360631
        k(    9) = (  -0.1818182   0.3636364  -0.1818182), wk =   0.0360631
        k(   10) = (  -0.2727273   0.4545455  -0.2727273), wk =   0.0360631
        k(   11) = (  -0.3636364   0.5454545  -0.3636364), wk =   0.0360631
        k(   12) = (   0.5454545  -0.3636364   0.5454545), wk =   0.0360631
        k(   13) = (   0.4545455  -0.2727273   0.4545455), wk =   0.0360631
        k(   14) = (   0.3636364  -0.1818182   0.3636364), wk =   0.0360631
        k(   15) = (   0.2727273  -0.0909091   0.2727273), wk =   0.0360631
        k(   16) = (   0.1818182  -0.0000000   0.1818182), wk =   0.0180316
        k(   17) = (   0.0000000   0.3636364   0.0000000), wk =   0.0090158
        k(   18) = (  -0.0909091   0.4545455  -0.0909091), wk =   0.0360631
        k(   19) = (  -0.1818182   0.5454545  -0.1818182), wk =   0.0360631
        k(   20) = (  -0.2727273   0.6363636  -0.2727273), wk =   0.0360631
        k(   21) = (   0.6363636  -0.2727273   0.6363636), wk =   0.0360631
        k(   22) = (   0.5454545  -0.1818182   0.5454545), wk =   0.0360631
        k(   23) = (   0.4545455  -0.0909091   0.4545455), wk =   0.0360631
        k(   24) = (   0.3636364   0.0000000   0.3636364), wk =   0.0180316
        k(   25) = (   0.0000000   0.5454545   0.0000000), wk =   0.0090158
        k(   26) = (  -0.0909091   0.6363636  -0.0909091), wk =   0.0360631
        k(   27) = (  -0.1818182   0.7272727  -0.1818182), wk =   0.0360631
        k(   28) = (   0.7272727  -0.1818182   0.7272727), wk =   0.0360631
        k(   29) = (   0.6363636  -0.0909091   0.6363636), wk =   0.0360631
        k(   30) = (   0.5454545   0.0000000   0.5454545), wk =   0.0180316
        k(   31) = (   0.0000000   0.7272727   0.0000000), wk =   0.0090158
        k(   32) = (  -0.0909091   0.8181818  -0.0909091), wk =   0.0360631
        k(   33) = (   0.8181818  -0.0909091   0.8181818), wk =   0.0360631
        k(   34) = (   0.7272727   0.0000000   0.7272727), wk =   0.0180316
        k(   35) = (   0.0000000   0.9090909   0.0000000), wk =   0.0090158
        k(   36) = (   0.9090909  -0.0000000   0.9090909), wk =   0.0180316
        k(   37) = (  -0.1818182   0.3636364   0.0000000), wk =   0.0360631
        k(   38) = (  -0.2727273   0.4545455  -0.0909091), wk =   0.0721262
        k(   39) = (  -0.3636364   0.5454545  -0.1818182), wk =   0.0721262
        k(   40) = (   0.5454545  -0.3636364   0.7272727), wk =   0.0721262
        k(   41) = (  -0.1818182   0.5454545   0.0000000), wk =   0.0360631
        k(   42) = (  -0.2727273   0.6363636  -0.0909091), wk =   0.0721262
        k(   43) = (   0.6363636  -0.2727273   0.8181818), wk =   0.0721262
        k(   44) = (   0.5454545  -0.1818182   0.7272727), wk =   0.0721262
        k(   45) = (   0.4545455  -0.0909091   0.6363636), wk =   0.0721262
        k(   46) = (   0.3636364   0.0000000   0.5454545), wk =   0.0360631
        k(   47) = (  -0.1818182   0.7272727   0.0000000), wk =   0.0360631
        k(   48) = (   0.7272727  -0.1818182   0.9090909), wk =   0.0721262
        k(   49) = (   0.6363636  -0.0909091   0.8181818), wk =   0.0721262
        k(   50) = (   0.5454545   0.0000000   0.7272727), wk =   0.0360631
        k(   51) = (   0.8181818  -0.0909091   1.0000000), wk =   0.0360631
        k(   52) = (   0.7272727   0.0000000   0.9090909), wk =   0.0360631
        k(   53) = (   0.6363636  -0.2727273   1.0000000), wk =   0.0360631
        k(   54) = (   0.5454545  -0.1818182   0.9090909), wk =   0.0721262
        k(   55) = (   0.6363636  -0.0909091   1.0000000), wk =   0.0360631
        k(   56) = (   0.5454545   0.0000000   0.9090909), wk =   0.0360631

     Dense  grid:     1363 G-vectors     FFT dimensions: (  15,  15,  15)

     Estimated max dynamical RAM per process >       2.16 MB

     Estimated total dynamical RAM >      10.82 MB

     Check: negative/imaginary core charge=   -0.000132    0.000000

     Initial potential from superposition of free atoms

     starting charge   10.99979, renormalised to   11.00000
     Starting wfcs are    9 randomized atomic wfcs +    1 random wfcs

     total cpu time spent up to now is        0.8 secs

     Self-consistent Calculation

     iteration #  1     ecut=    25.00 Ry     beta= 0.70
     Davidson diagonalization with overlap
     ethr =  1.00E-02,  avg # of iterations =  3.6

     total cpu time spent up to now is        1.1 secs

     total energy              =    -122.18284079 Ry
     Harris-Foulkes estimate   =    -122.32459357 Ry
     estimated scf accuracy    <       0.17209188 Ry

     iteration #  2     ecut=    25.00 Ry     beta= 0.70
     Davidson diagonalization with overlap
     ethr =  1.56E-03,  avg # of iterations =  2.0

     total cpu time spent up to now is        1.2 secs

     total energy              =    -122.22020124 Ry
     Harris-Foulkes estimate   =    -122.40850320 Ry
     estimated scf accuracy    <       0.45126618 Ry

     iteration #  3     ecut=    25.00 Ry     beta= 0.70
     Davidson diagonalization with overlap
     ethr =  1.56E-03,  avg # of iterations =  2.0

     total cpu time spent up to now is        1.4 secs

     total energy              =    -122.28725989 Ry
     Harris-Foulkes estimate   =    -122.28843604 Ry
     estimated scf accuracy    <       0.00221273 Ry

     iteration #  4     ecut=    25.00 Ry     beta= 0.70
     Davidson diagonalization with overlap
     ethr =  2.01E-05,  avg # of iterations =  2.1

     total cpu time spent up to now is        1.6 secs

     total energy              =    -122.28805565 Ry
     Harris-Foulkes estimate   =    -122.28834341 Ry
     estimated scf accuracy    <       0.00086633 Ry

     iteration #  5     ecut=    25.00 Ry     beta= 0.70
     Davidson diagonalization with overlap
     ethr =  7.88E-06,  avg # of iterations =  1.0

     total cpu time spent up to now is        1.7 secs

     total energy              =    -122.28814552 Ry
     Harris-Foulkes estimate   =    -122.28815488 Ry
     estimated scf accuracy    <       0.00002902 Ry

     iteration #  6     ecut=    25.00 Ry     beta= 0.70
     Davidson diagonalization with overlap
     ethr =  2.64E-07,  avg # of iterations =  1.7

     total cpu time spent up to now is        1.8 secs

     total energy              =    -122.28814965 Ry
     Harris-Foulkes estimate   =    -122.28814992 Ry
     estimated scf accuracy    <       0.00000069 Ry

     iteration #  7     ecut=    25.00 Ry     beta= 0.70
     Davidson diagonalization with overlap
     ethr =  6.24E-09,  avg # of iterations =  2.1

     total cpu time spent up to now is        2.0 secs

     End of self-consistent calculation

          k = 0.0000 0.0000 0.0000 (   169 PWs)   bands (ev):

     3.0866   9.1235   9.1235   9.1235   9.8996   9.8996  35.4628  37.7469
    37.7469  37.7469

          k =-0.0909 0.0909-0.0909 (   169 PWs)   bands (ev):

     3.3857   9.0716   9.1831   9.1831   9.8874   9.8874  33.2917  36.1184
    37.0782  37.0782

          k =-0.1818 0.1818-0.1818 (   168 PWs)   bands (ev):

     4.2517   8.9886   9.2717   9.2717   9.9375   9.9375  28.5441  35.7567
    36.0627  36.0627

          k =-0.2727 0.2727-0.2727 (   162 PWs)   bands (ev):

     5.5374   8.9910   9.2966   9.2966  10.1902  10.1902  23.9617  35.1070
    35.3003  35.3003

          k =-0.3636 0.3636-0.3636 (   162 PWs)   bands (ev):

     6.7122   9.2525   9.2525   9.5612  10.4355  10.4355  19.8467  34.3587
    34.8031  34.8031

          k =-0.4545 0.4545-0.4545 (   168 PWs)   bands (ev):

     7.1342   9.1584   9.1584  10.5118  10.5118  11.0470  16.7411  33.9055
    34.5313  34.5313

          k = 0.0000 0.1818 0.0000 (   169 PWs)   bands (ev):

     3.4850   9.0112   9.2306   9.2306   9.8059   9.9498  34.4244  35.1855
    35.1855  36.4178

          k =-0.0909 0.2727-0.0909 (   167 PWs)   bands (ev):

     4.1615   8.9051   9.3389   9.3469   9.8288   9.9934  30.3410  33.7046
    34.5070  37.6733

          k =-0.1818 0.3636-0.1818 (   165 PWs)   bands (ev):

     5.3190   8.8145   9.3326   9.3921  10.0175  10.2020  25.6552  32.7212
    33.9020  36.6885

          k =-0.2727 0.4545-0.2727 (   164 PWs)   bands (ev):

     6.5910   9.0098   9.1972   9.3686  10.4732  10.5025  21.3368  32.2999
    33.2615  34.6025

          k =-0.3636 0.5455-0.3636 (   169 PWs)   bands (ev):

     7.2279   9.0633   9.2639   9.6470  10.5245  11.4884  17.7477  32.1363
    32.4469  33.7366

          k = 0.5455-0.3636 0.5455 (   166 PWs)   bands (ev):

     7.3222   9.0392   9.2665   9.9390  10.5406  12.3183  16.3215  31.0554
    33.2919  33.8767

          k = 0.4545-0.2727 0.4545 (   167 PWs)   bands (ev):

     7.1115   9.1201   9.2858   9.4995  10.3348  11.1728  18.8389  30.5182
    34.6132  34.7947

          k = 0.3636-0.1818 0.3636 (   163 PWs)   bands (ev):

     6.2073   8.9461   9.2396   9.3858  10.0846  10.5669  22.7454  30.5481
    35.8796  36.9001

          k = 0.2727-0.0909 0.2727 (   166 PWs)   bands (ev):

     4.8931   8.8761   9.3073   9.3899   9.8190  10.2106  27.1809  31.0715
    37.3534  38.8216

          k = 0.1818-0.0000 0.1818 (   170 PWs)   bands (ev):

     3.8745   8.9748   9.2627   9.2727   9.7949   9.9587  31.6667  32.3326
    37.3615  38.8891

          k = 0.0000 0.3636 0.0000 (   169 PWs)   bands (ev):

     4.6284   8.7158   9.5002   9.5002   9.6692  10.0542  31.8413  31.8413
    32.8873  34.1715

          k =-0.0909 0.4545-0.0909 (   166 PWs)   bands (ev):

     5.5790   8.5795   9.4000   9.6654   9.9591  10.2103  27.7270  30.5906
    32.4741  33.6502

          k =-0.1818 0.5455-0.1818 (   166 PWs)   bands (ev):

     6.7537   8.5329   9.2062   9.6155  10.5161  10.6335  23.3378  29.9189
    30.4875  33.0576

          k =-0.2727 0.6364-0.2727 (   163 PWs)   bands (ev):

     7.5254   8.7256   9.1359   9.6051  10.6597  11.9958  19.4320  28.5844
    30.0025  32.9020

          k = 0.6364-0.2727 0.6364 (   170 PWs)   bands (ev):

     7.7088   8.7426   9.2932   9.5122  10.4887  13.7665  16.6098  27.1343
    30.7820  33.0925

          k = 0.5455-0.1818 0.5455 (   168 PWs)   bands (ev):

     7.6769   8.8320   9.1635   9.5329  10.3064  12.7250  18.2800  26.2848
    32.3145  33.8027

          k = 0.4545-0.0909 0.4545 (   169 PWs)   bands (ev):

     7.1571   8.7699   9.0289   9.5630   9.9730  11.3208  21.9977  26.0278
    34.4545  35.0490

          k = 0.3636 0.0000 0.3636 (   168 PWs)   bands (ev):

     5.9841   8.7237   9.2145   9.6173   9.7267  10.5887  26.0174  26.6332
    36.7677  37.1247

          k = 0.0000 0.5455 0.0000 (   165 PWs)   bands (ev):

     6.2311   8.3610   9.6438   9.9909   9.9909  10.2308  29.0099  29.0099
    29.8631  31.8021

          k =-0.0909 0.6364-0.0909 (   169 PWs)   bands (ev):

     7.0154   8.2261   9.5937   9.9880  10.4601  10.6808  25.6146  27.3157
    28.0573  32.1998

          k =-0.1818 0.7273-0.1818 (   167 PWs)   bands (ev):

     7.6126   8.2428   9.4382   9.9287  10.6557  12.2965  21.6353  25.2335
    27.8945  32.2556

          k = 0.7273-0.1818 0.7273 (   174 PWs)   bands (ev):

     7.9294   8.3255   9.2230   9.8240  10.5001  14.6340  18.1175  23.6098
    28.5178  32.3774

          k = 0.6364-0.0909 0.6364 (   172 PWs)   bands (ev):

     8.1115   8.4666   9.0149   9.7638  10.3303  14.8204  18.0422  22.5824
    29.9049  32.9008

          k = 0.5455 0.0000 0.5455 (   168 PWs)   bands (ev):

     7.9620   8.7583   8.7597   9.7389  10.0581  12.7343  21.1610  22.6207
    31.9494  33.8361

          k = 0.0000 0.7273 0.0000 (   170 PWs)   bands (ev):

     7.2350   8.0187  10.3865  10.3885  10.3885  10.8601  24.6043  26.8543
    26.8543  31.0931

          k =-0.0909 0.8182-0.0909 (   168 PWs)   bands (ev):

     7.4481   7.9526  10.1944  10.3303  10.7015  12.5774  22.4506  24.1724
    26.4150  31.6293

          k = 0.8182-0.0909 0.8182 (   174 PWs)   bands (ev):

     7.6746   8.0389   9.7880  10.1986  10.5408  14.8767  20.6113  20.9483
    26.8198  31.8823

          k = 0.7273 0.0000 0.7273 (   172 PWs)   bands (ev):

     7.9981   8.2098   9.3341  10.0251  10.4483  17.1976  17.4870  20.4922
    28.0240  32.2659

          k = 0.0000 0.9091 0.0000 (   162 PWs)   bands (ev):

     7.3749   7.8438  10.6735  10.7598  10.7598  13.3305  20.4791  25.6932
    25.6932  30.8364

          k = 0.9091-0.0000 0.9091 (   178 PWs)   bands (ev):

     7.4098   7.8408  10.3976  10.4237  10.5796  14.4355  19.6405  23.6508
    25.8331  31.3987

          k =-0.1818 0.3636 0.0000 (   164 PWs)   bands (ev):

     4.9876   8.7678   9.3698   9.5164   9.7994  10.2303  28.9413  29.4274
    35.9081  36.3556

          k =-0.2727 0.4545-0.0909 (   166 PWs)   bands (ev):

     6.1936   8.6782   9.2122   9.5665   9.9889  10.6184  24.5885  28.4915
    33.5677  36.4125

          k =-0.3636 0.5455-0.1818 (   162 PWs)   bands (ev):

     7.2557   8.9093   9.0459   9.5481  10.3934  11.4004  20.4993  28.3381
    31.4999  35.7809

          k = 0.5455-0.3636 0.7273 (   167 PWs)   bands (ev):

     7.5837   8.8501   9.3505   9.4703  10.5140  12.9275  17.1370  28.7466
    29.8622  35.3418

          k =-0.1818 0.5455 0.0000 (   169 PWs)   bands (ev):

     6.5235   8.4207   9.2771   9.9144  10.0069  10.6025  26.5660  27.0201
    30.2665  34.7491

          k =-0.2727 0.6364-0.0909 (   168 PWs)   bands (ev):

     7.4503   8.4204   9.0844   9.8774  10.3626  11.5872  22.5857  26.4669
    27.9791  35.0936

          k = 0.6364-0.2727 0.8182 (   169 PWs)   bands (ev):

     7.9016   8.4841   9.0380   9.7643  10.5524  13.4364  18.8269  26.1521
    26.7781  35.1259

          k = 0.5455-0.1818 0.7273 (   170 PWs)   bands (ev):

     8.0330   8.5107   9.0479   9.7094  10.4758  14.8661  16.9716  24.8862
    27.6942  35.5838

          k = 0.4545-0.0909 0.6364 (   168 PWs)   bands (ev):

     7.9491   8.6694   8.8105   9.7538  10.2584  12.8704  20.0369  24.2203
    29.2084  36.5732

          k = 0.3636 0.0000 0.5455 (   170 PWs)   bands (ev):

     7.2646   8.5635   8.9541   9.8454   9.9323  11.3797  23.6164  24.4887
    31.2103  37.9826

          k =-0.1818 0.7273 0.0000 (   172 PWs)   bands (ev):

     7.4610   8.1104   9.5825  10.2957  10.3825  11.7893  24.7678  24.8811
    25.2992  33.6841

          k = 0.7273-0.1818 0.9091 (   169 PWs)   bands (ev):

     7.7919   8.1799   9.4073  10.1445  10.6022  13.8218  21.2414  23.0188
    25.1615  34.3866

          k = 0.6364-0.0909 0.8182 (   173 PWs)   bands (ev):

     8.0567   8.2639   9.1414   9.9736  10.5293  16.3991  17.9178  21.6681
    25.9314  34.7974

          k = 0.5455 0.0000 0.7273 (   169 PWs)   bands (ev):

     8.3118   8.3902   8.8594   9.8979  10.3634  14.9972  19.2829  21.4372
    27.3349  35.6263

          k = 0.8182-0.0909 1.0000 (   171 PWs)   bands (ev):

     7.5365   7.9383  10.0525  10.4093  10.6723  14.1957  20.6583  23.7790
    24.3129  33.1836

          k = 0.7273 0.0000 0.9091 (   172 PWs)   bands (ev):

     7.7491   8.0868   9.6428  10.2104  10.6241  15.9468  19.9843  20.7885
    24.7034  34.1407

          k = 0.6364-0.2727 1.0000 (   167 PWs)   bands (ev):

     7.9951   8.4235   8.8932  10.0919  10.3521  13.2043  21.8719  23.0450
    25.8551  38.2309

          k = 0.5455-0.1818 0.9091 (   172 PWs)   bands (ev):

     8.1949   8.4470   8.7957   9.9243  10.5155  15.5035  18.6984  23.1088
    24.1990  38.3414

          k = 0.6364-0.0909 1.0000 (   166 PWs)   bands (ev):

     7.9674   8.3221   9.1779  10.1360  10.6977  15.9810  20.9114  21.3904
    22.3023  37.6542

          k = 0.5455 0.0000 0.9091 (   169 PWs)   bands (ev):

     8.1134   8.5160   8.8356   9.9873  10.6902  18.1492  18.1745  20.8723
    22.7687  38.7752

     the Fermi energy is    12.4646 ev

!    total energy              =    -122.28814983 Ry
     Harris-Foulkes estimate   =    -122.28814983 Ry
     estimated scf accuracy    <          3.0E-09 Ry

     The total energy is the sum of the following terms:

     one-electron contribution =     -27.25216195 Ry
     hartree contribution      =      30.18006660 Ry
     xc contribution           =     -43.99071696 Ry
     ewald contribution        =     -81.22522862 Ry
     smearing contrib. (-TS)   =      -0.00010890 Ry

     convergence has been achieved in   7 iterations

     Forces acting on atoms (cartesian axes, Ry/au):

     atom    1 type  1   force =     0.00000000    0.00000000    0.00000000

     Total force =     0.000000     Total SCF correction =     0.000000


     Computing stress (Cartesian axis) and pressure

          total   stress  (Ry/bohr**3)                   (kbar)     P=-1462.08
  -0.00993901  -0.00000000  -0.00000000      -1462.08     -0.00     -0.00
  -0.00000000  -0.00993901   0.00000000         -0.00  -1462.08      0.00
  -0.00000000   0.00000000  -0.00993901         -0.00      0.00  -1462.08


     Writing output data file Cu.save/

     init_run     :      0.15s CPU      0.15s WALL (       1 calls)
     electrons    :      1.01s CPU      1.16s WALL (       1 calls)
     forces       :      0.02s CPU      0.02s WALL (       1 calls)
     stress       :      0.05s CPU      0.05s WALL (       1 calls)

     Called by init_run:
     wfcinit      :      0.04s CPU      0.05s WALL (       1 calls)
     potinit      :      0.00s CPU      0.00s WALL (       1 calls)
     hinit0       :      0.10s CPU      0.10s WALL (       1 calls)

     Called by electrons:
     c_bands      :      0.86s CPU      0.98s WALL (       7 calls)
     sum_band     :      0.14s CPU      0.16s WALL (       7 calls)
     v_of_rho     :      0.01s CPU      0.01s WALL (       8 calls)
     newd         :      0.01s CPU      0.01s WALL (       8 calls)
     mix_rho      :      0.00s CPU      0.00s WALL (       7 calls)

     Called by c_bands:
     init_us_2    :      0.02s CPU      0.03s WALL (     952 calls)
     cegterg      :      0.82s CPU      0.94s WALL (     392 calls)

     Called by sum_band:
     sum_band:bec :      0.00s CPU      0.00s WALL (     392 calls)
     addusdens    :      0.01s CPU      0.01s WALL (       7 calls)

     Called by *egterg:
     h_psi        :      0.53s CPU      0.61s WALL (    1260 calls)
     s_psi        :      0.02s CPU      0.02s WALL (    1260 calls)
     g_psi        :      0.00s CPU      0.00s WALL (     812 calls)
     cdiaghg      :      0.19s CPU      0.21s WALL (    1204 calls)

     Called by h_psi:
     h_psi:pot    :      0.52s CPU      0.60s WALL (    1260 calls)
     h_psi:calbec :      0.03s CPU      0.04s WALL (    1260 calls)
     vloc_psi     :      0.46s CPU      0.53s WALL (    1260 calls)
     add_vuspsi   :      0.02s CPU      0.02s WALL (    1260 calls)

     General routines
     calbec       :      0.06s CPU      0.07s WALL (    1932 calls)
     fft          :      0.01s CPU      0.01s WALL (     114 calls)
     ffts         :      0.00s CPU      0.00s WALL (       7 calls)
     fftw         :      0.51s CPU      0.59s WALL (   23640 calls)

     Parallel routines
     fft_scatt_xy :      0.05s CPU      0.06s WALL (   23761 calls)
     fft_scatt_yz :      0.22s CPU      0.25s WALL (   23761 calls)

     PWSCF        :     1.94s CPU         2.17s WALL


   This run was terminated on:  23:14:15  25Mar2024            

=------------------------------------------------------------------------------=
   JOB DONE.
=------------------------------------------------------------------------------=
