
     Program PWSCF v.6.3MaX starts on 25Mar2024 at 23:13:21 

     This program is part of the open-source Quantum ESPRESSO suite
     for quantum simulation of materials; please cite
         "P. Giannozzi et al., J. Phys.:Condens. Matter 21 395502 (2009);
         "P. Giannozzi et al., J. Phys.:Condens. Matter 29 465901 (2017);
          URL http://www.quantum-espresso.org", 
     in publications or presentations arising from this work. More details at
     http://www.quantum-espresso.org/quote

     Parallel version (MPI), running on     5 processors

     MPI processes distributed on     1 nodes
     R & G space division:  proc/nbgrp/npool/nimage =       5
     Waiting for input...
     Reading input from standard input

     Current dimensions of program PWSCF are:
     Max number of different atomic species (ntypx) = 10
     Max number of k-points (npk) =  40000
     Max angular momentum in pseudopotentials (lmaxx) =  3
               file Cu.pbe-dn-rrkjus_psl.1.0.0.UPF: wavefunction(s)  3D renormalized

     Subspace diagonalization in iterative solution of the eigenvalue problem:
     a serial algorithm will be used


     Parallelization info
     --------------------
     sticks:   dense  smooth     PW     G-vecs:    dense   smooth      PW
     Min          24      24     11                  187      187      51
     Max          25      25     11                  191      191      52
     Sum         121     121     55                  941      941     259



     bravais-lattice index     =            2
     lattice parameter (alat)  =       6.8300  a.u.
     unit-cell volume          =      79.6530 (a.u.)^3
     number of atoms/cell      =            1
     number of atomic types    =            1
     number of electrons       =        11.00
     number of Kohn-Sham states=           10
     kinetic-energy cutoff     =      20.0000  Ry
     charge density cutoff     =      80.0000  Ry
     convergence threshold     =      1.0E-08
     mixing beta               =       0.7000
     number of iterations used =            8  plain     mixing
     Exchange-correlation      = PBE ( 1  4  3  4 0 0)

     celldm(1)=   6.830000  celldm(2)=   0.000000  celldm(3)=   0.000000
     celldm(4)=   0.000000  celldm(5)=   0.000000  celldm(6)=   0.000000

     crystal axes: (cart. coord. in units of alat)
               a(1) = (  -0.500000   0.000000   0.500000 )  
               a(2) = (   0.000000   0.500000   0.500000 )  
               a(3) = (  -0.500000   0.500000   0.000000 )  

     reciprocal axes: (cart. coord. in units 2 pi/alat)
               b(1) = ( -1.000000 -1.000000  1.000000 )  
               b(2) = (  1.000000  1.000000  1.000000 )  
               b(3) = ( -1.000000  1.000000 -1.000000 )  


     PseudoPot. # 1 for Cu read from file:
     /home/lorenzo/pseudos/Cu/Cu.pbe-dn-rrkjus_psl.1.0.0.UPF
     MD5 check sum: ba3d6c84e19846e79d48cdc68ff7152b
     Pseudo is Ultrasoft + core correction, Zval = 11.0
     Generated using "atomic" code by A. Dal Corso v.6.3
     Using radial grid of 1199 points,  6 beta functions with: 
                l(1) =   0
                l(2) =   0
                l(3) =   1
                l(4) =   1
                l(5) =   2
                l(6) =   2
     Q(r) pseudized with 0 coefficients 


     atomic species   valence    mass     pseudopotential
        Cu            11.00    63.54600     Cu( 1.00)

     48 Sym. Ops., with inversion, found



   Cartesian axes

     site n.     atom                  positions (alat units)
         1           Cu  tau(   1) = (   0.0000000   0.0000000   0.0000000  )

     number of k points=    20  gaussian smearing, width (Ry)=  0.0100
                       cart. coord. in units 2pi/alat
        k(    1) = (   0.0000000   0.0000000   0.0000000), wk =   0.0058309
        k(    2) = (  -0.1428571   0.1428571  -0.1428571), wk =   0.0466472
        k(    3) = (  -0.2857143   0.2857143  -0.2857143), wk =   0.0466472
        k(    4) = (  -0.4285714   0.4285714  -0.4285714), wk =   0.0466472
        k(    5) = (   0.0000000   0.2857143   0.0000000), wk =   0.0349854
        k(    6) = (  -0.1428571   0.4285714  -0.1428571), wk =   0.1399417
        k(    7) = (  -0.2857143   0.5714286  -0.2857143), wk =   0.1399417
        k(    8) = (   0.5714286  -0.2857143   0.5714286), wk =   0.1399417
        k(    9) = (   0.4285714  -0.1428571   0.4285714), wk =   0.1399417
        k(   10) = (   0.2857143  -0.0000000   0.2857143), wk =   0.0699708
        k(   11) = (   0.0000000   0.5714286   0.0000000), wk =   0.0349854
        k(   12) = (  -0.1428571   0.7142857  -0.1428571), wk =   0.1399417
        k(   13) = (   0.7142857  -0.1428571   0.7142857), wk =   0.1399417
        k(   14) = (   0.5714286   0.0000000   0.5714286), wk =   0.0699708
        k(   15) = (   0.0000000   0.8571429   0.0000000), wk =   0.0349854
        k(   16) = (   0.8571429  -0.0000000   0.8571429), wk =   0.0699708
        k(   17) = (  -0.2857143   0.5714286   0.0000000), wk =   0.1399417
        k(   18) = (   0.5714286  -0.2857143   0.8571429), wk =   0.2798834
        k(   19) = (   0.7142857  -0.1428571   1.0000000), wk =   0.1399417
        k(   20) = (   0.5714286   0.0000000   0.8571429), wk =   0.1399417

     Dense  grid:      941 G-vectors     FFT dimensions: (  15,  15,  15)

     Estimated max dynamical RAM per process >       1.57 MB

     Estimated total dynamical RAM >       7.83 MB

     Check: negative/imaginary core charge=   -0.000090    0.000000

     Initial potential from superposition of free atoms

     starting charge   10.99977, renormalised to   11.00000
     Starting wfcs are    9 randomized atomic wfcs +    1 random wfcs

     total cpu time spent up to now is        1.1 secs

     Self-consistent Calculation

     iteration #  1     ecut=    20.00 Ry     beta= 0.70
     Davidson diagonalization with overlap
     ethr =  1.00E-02,  avg # of iterations =  3.7

     total cpu time spent up to now is        1.2 secs

     total energy              =    -121.65116418 Ry
     Harris-Foulkes estimate   =    -122.21152615 Ry
     estimated scf accuracy    <       0.67736608 Ry

     iteration #  2     ecut=    20.00 Ry     beta= 0.70
     Davidson diagonalization with overlap
     ethr =  6.16E-03,  avg # of iterations =  2.0

     total cpu time spent up to now is        1.2 secs

     total energy              =    -121.92341246 Ry
     Harris-Foulkes estimate   =    -122.35870990 Ry
     estimated scf accuracy    <       0.90473012 Ry

     iteration #  3     ecut=    20.00 Ry     beta= 0.70
     Davidson diagonalization with overlap
     ethr =  6.16E-03,  avg # of iterations =  1.4

     total cpu time spent up to now is        1.3 secs

     total energy              =    -122.02904891 Ry
     Harris-Foulkes estimate   =    -122.04695333 Ry
     estimated scf accuracy    <       0.02522202 Ry

     iteration #  4     ecut=    20.00 Ry     beta= 0.70
     Davidson diagonalization with overlap
     ethr =  2.29E-04,  avg # of iterations =  2.0

     total cpu time spent up to now is        1.4 secs

     total energy              =    -122.03503487 Ry
     Harris-Foulkes estimate   =    -122.05517001 Ry
     estimated scf accuracy    <       0.05221388 Ry

     iteration #  5     ecut=    20.00 Ry     beta= 0.70
     Davidson diagonalization with overlap
     ethr =  2.29E-04,  avg # of iterations =  1.7

     total cpu time spent up to now is        1.4 secs

     total energy              =    -122.04233366 Ry
     Harris-Foulkes estimate   =    -122.04228921 Ry
     estimated scf accuracy    <       0.00068905 Ry

     iteration #  6     ecut=    20.00 Ry     beta= 0.70
     Davidson diagonalization with overlap
     ethr =  6.26E-06,  avg # of iterations =  2.1

     total cpu time spent up to now is        1.5 secs

     total energy              =    -122.04202748 Ry
     Harris-Foulkes estimate   =    -122.04236725 Ry
     estimated scf accuracy    <       0.00077321 Ry

     iteration #  7     ecut=    20.00 Ry     beta= 0.70
     Davidson diagonalization with overlap
     ethr =  6.26E-06,  avg # of iterations =  1.1

     total cpu time spent up to now is        1.5 secs

     total energy              =    -122.04216841 Ry
     Harris-Foulkes estimate   =    -122.04216834 Ry
     estimated scf accuracy    <       0.00000003 Ry

     iteration #  8     ecut=    20.00 Ry     beta= 0.70
     Davidson diagonalization with overlap
     ethr =  2.98E-10,  avg # of iterations =  4.0

     total cpu time spent up to now is        1.6 secs

     total energy              =    -122.04217099 Ry
     Harris-Foulkes estimate   =    -122.04217104 Ry
     estimated scf accuracy    <       0.00000045 Ry

     iteration #  9     ecut=    20.00 Ry     beta= 0.70
     Davidson diagonalization with overlap
     ethr =  2.98E-10,  avg # of iterations =  1.1

     total cpu time spent up to now is        1.7 secs

     total energy              =    -122.04217087 Ry
     Harris-Foulkes estimate   =    -122.04217099 Ry
     estimated scf accuracy    <       0.00000025 Ry

     iteration # 10     ecut=    20.00 Ry     beta= 0.70
     Davidson diagonalization with overlap
     ethr =  2.98E-10,  avg # of iterations =  2.4

     total cpu time spent up to now is        1.7 secs

     End of self-consistent calculation

          k = 0.0000 0.0000 0.0000 (   113 PWs)   bands (ev):

     3.3961   8.8456   8.8456   8.8456   9.5461   9.5461  35.9542  37.9042
    37.9042  37.9042

          k =-0.1429 0.1429-0.1429 (   122 PWs)   bands (ev):

     4.1189   8.2906   8.5611   8.5611   9.2899   9.2899  31.0260  36.3619
    36.8863  36.8863

          k =-0.2857 0.2857-0.2857 (   120 PWs)   bands (ev):

     5.9015   8.4509   8.6950   8.6950   9.6283   9.6283  23.6017  35.4589
    35.5797  35.5797

          k =-0.4286 0.4286-0.4286 (   120 PWs)   bands (ev):

     6.8632   8.2775   8.2775  10.0023  10.0023  10.8012  17.7279  34.4171
    34.7401  34.7401

          k = 0.0000 0.2857 0.0000 (   125 PWs)   bands (ev):

     4.3564   8.0069   8.5440   8.5440   9.0687   9.3150  33.5942  33.5942
    34.2072  35.5343

          k =-0.1429 0.4286-0.1429 (   126 PWs)   bands (ev):

     5.8096   7.7570   8.2959   8.7360   9.4511   9.5654  26.3398  31.6385
    33.5914  34.8914

          k =-0.2857 0.5714-0.2857 (   119 PWs)   bands (ev):

     7.0645   8.1777   8.6519   8.6741  10.2532  11.2218  19.9045  30.9842
    31.2066  33.6888

          k = 0.5714-0.2857 0.5714 (   121 PWs)   bands (ev):

     7.1576   7.9651   8.5891   9.1104   9.9562  13.1397  16.7474  28.8075
    32.5106  33.9845

          k = 0.4286-0.1429 0.4286 (   123 PWs)   bands (ev):

     6.8950   8.1464   8.4598   8.5059   9.4007  10.7824  21.9219  28.1970
    35.5719  35.7029

          k = 0.2857-0.0000 0.2857 (   123 PWs)   bands (ev):

     5.2377   8.0114   8.5110   8.8321   9.1567   9.6483  28.7659  29.1805
    38.8630  39.0319

          k = 0.0000 0.5714 0.0000 (   125 PWs)   bands (ev):

     6.4602   7.4548   9.1090   9.1935   9.1935   9.5492  28.9234  28.9234
    29.4856  32.2938

          k =-0.1429 0.7143-0.1429 (   122 PWs)   bands (ev):

     6.9942   7.2285   9.0215   9.1921  10.2420  11.7122  23.2536  25.6260
    27.8857  32.4734

          k = 0.7143-0.1429 0.7143 (   116 PWs)   bands (ev):

     7.3193   7.9421   8.8753   9.2173  10.2017  15.7594  17.8164  23.1076
    28.8729  32.9095

          k = 0.5714 0.0000 0.5714 (   122 PWs)   bands (ev):

     7.4864   8.1017   8.2410   8.8521   9.5200  13.3105  20.8569  22.3281
    31.5991  33.9036

          k = 0.0000 0.8571 0.0000 (   117 PWs)   bands (ev):

     6.8182   6.8238  10.1321  10.3247  10.3247  12.8298  21.6509  26.1655
    26.1655  31.0961

          k = 0.8571-0.0000 0.8571 (   114 PWs)   bands (ev):

     6.9793   7.1937  10.0071  10.0220  10.3678  15.3938  20.0892  22.1108
    26.5227  32.1464

          k =-0.2857 0.5714 0.0000 (   124 PWs)   bands (ev):

     7.1192   7.5108   8.2462   9.2106   9.2144  10.9669  24.7408  25.4932
    30.2623  37.7201

          k = 0.5714-0.2857 0.8571 (   119 PWs)   bands (ev):

     7.5432   7.8682   8.3132   9.1280  10.0613  13.8111  18.9904  25.4384
    27.1830  37.2554

          k = 0.7143-0.1429 1.0000 (   117 PWs)   bands (ev):

     7.3000   7.3039   9.0030   9.6994  10.4268  14.6559  22.3289  22.5029
    23.5047  36.3048

          k = 0.5714 0.0000 0.8571 (   112 PWs)   bands (ev):

     7.6076   8.0823   8.5173   9.5504  10.5423  17.8896  18.3662  21.0874
    24.5419  37.7470

     the Fermi energy is    12.8093 ev

!    total energy              =    -122.04217093 Ry
     Harris-Foulkes estimate   =    -122.04217093 Ry
     estimated scf accuracy    <          3.1E-09 Ry

     The total energy is the sum of the following terms:

     one-electron contribution =     -25.78423097 Ry
     hartree contribution      =      29.09113437 Ry
     xc contribution           =     -44.12374819 Ry
     ewald contribution        =     -81.22522858 Ry
     smearing contrib. (-TS)   =      -0.00009755 Ry

     convergence has been achieved in  10 iterations

     Forces acting on atoms (cartesian axes, Ry/au):

     atom    1 type  1   force =     0.00000000    0.00000000    0.00000000

     Total force =     0.000000     Total SCF correction =     0.000000


     Computing stress (Cartesian axis) and pressure

          total   stress  (Ry/bohr**3)                   (kbar)     P=-5559.13
  -0.03779019   0.00000000   0.00000000      -5559.13      0.00      0.00
   0.00000000  -0.03779019  -0.00000000          0.00  -5559.13     -0.00
   0.00000000  -0.00000000  -0.03779019          0.00     -0.00  -5559.13


     Writing output data file Cu.save/

     init_run     :      0.09s CPU      0.10s WALL (       1 calls)
     electrons    :      0.53s CPU      0.63s WALL (       1 calls)
     forces       :      0.01s CPU      0.01s WALL (       1 calls)
     stress       :      0.03s CPU      0.03s WALL (       1 calls)

     Called by init_run:
     wfcinit      :      0.02s CPU      0.02s WALL (       1 calls)
     potinit      :      0.00s CPU      0.00s WALL (       1 calls)
     hinit0       :      0.07s CPU      0.07s WALL (       1 calls)

     Called by electrons:
     c_bands      :      0.44s CPU      0.51s WALL (      10 calls)
     sum_band     :      0.07s CPU      0.09s WALL (      10 calls)
     v_of_rho     :      0.01s CPU      0.01s WALL (      11 calls)
     newd         :      0.01s CPU      0.01s WALL (      11 calls)
     mix_rho      :      0.00s CPU      0.00s WALL (      10 calls)

     Called by c_bands:
     init_us_2    :      0.01s CPU      0.01s WALL (     460 calls)
     cegterg      :      0.42s CPU      0.49s WALL (     200 calls)

     Called by sum_band:
     sum_band:bec :      0.00s CPU      0.00s WALL (     200 calls)
     addusdens    :      0.01s CPU      0.01s WALL (      10 calls)

     Called by *egterg:
     h_psi        :      0.27s CPU      0.31s WALL (     653 calls)
     s_psi        :      0.01s CPU      0.01s WALL (     653 calls)
     g_psi        :      0.00s CPU      0.00s WALL (     433 calls)
     cdiaghg      :      0.11s CPU      0.12s WALL (     633 calls)

     Called by h_psi:
     h_psi:pot    :      0.26s CPU      0.31s WALL (     653 calls)
     h_psi:calbec :      0.01s CPU      0.02s WALL (     653 calls)
     vloc_psi     :      0.24s CPU      0.28s WALL (     653 calls)
     add_vuspsi   :      0.01s CPU      0.01s WALL (     653 calls)

     General routines
     calbec       :      0.02s CPU      0.02s WALL (     953 calls)
     fft          :      0.00s CPU      0.00s WALL (     147 calls)
     ffts         :      0.00s CPU      0.00s WALL (      10 calls)
     fftw         :      0.26s CPU      0.30s WALL (   12072 calls)

     Parallel routines
     fft_scatt_xy :      0.03s CPU      0.03s WALL (   12229 calls)
     fft_scatt_yz :      0.10s CPU      0.12s WALL (   12229 calls)

     PWSCF        :     1.70s CPU         1.85s WALL


   This run was terminated on:  23:13:23  25Mar2024            

=------------------------------------------------------------------------------=
   JOB DONE.
=------------------------------------------------------------------------------=
