
     Program PWSCF v.6.3MaX starts on 25Mar2024 at 23:41:50 

     This program is part of the open-source Quantum ESPRESSO suite
     for quantum simulation of materials; please cite
         "P. Giannozzi et al., J. Phys.:Condens. Matter 21 395502 (2009);
         "P. Giannozzi et al., J. Phys.:Condens. Matter 29 465901 (2017);
          URL http://www.quantum-espresso.org", 
     in publications or presentations arising from this work. More details at
     http://www.quantum-espresso.org/quote

     Parallel version (MPI), running on     5 processors

     MPI processes distributed on     1 nodes
     R & G space division:  proc/nbgrp/npool/nimage =       5
     Waiting for input...
     Reading input from standard input

     Current dimensions of program PWSCF are:
     Max number of different atomic species (ntypx) = 10
     Max number of k-points (npk) =  40000
     Max angular momentum in pseudopotentials (lmaxx) =  3
               file Cu.pbesol-dn-rrkjus_psl.1.0.0.UPF: wavefunction(s)  3D renormalized

     Subspace diagonalization in iterative solution of the eigenvalue problem:
     a serial algorithm will be used


     Parallelization info
     --------------------
     sticks:   dense  smooth     PW     G-vecs:    dense   smooth      PW
     Min         109     109     32                 1678     1678     290
     Max         110     110     33                 1680     1680     293
     Sum         547     547    163                 8393     8393    1459



     bravais-lattice index     =            2
     lattice parameter (alat)  =       6.8300  a.u.
     unit-cell volume          =      79.6530 (a.u.)^3
     number of atoms/cell      =            1
     number of atomic types    =            1
     number of electrons       =        11.00
     number of Kohn-Sham states=           10
     kinetic-energy cutoff     =      85.0000  Ry
     charge density cutoff     =     340.0000  Ry
     convergence threshold     =      1.0E-08
     mixing beta               =       0.7000
     number of iterations used =            8  plain     mixing
     Exchange-correlation      = PBESOL ( 1  4 10  8 0 0)

     celldm(1)=   6.830000  celldm(2)=   0.000000  celldm(3)=   0.000000
     celldm(4)=   0.000000  celldm(5)=   0.000000  celldm(6)=   0.000000

     crystal axes: (cart. coord. in units of alat)
               a(1) = (  -0.500000   0.000000   0.500000 )  
               a(2) = (   0.000000   0.500000   0.500000 )  
               a(3) = (  -0.500000   0.500000   0.000000 )  

     reciprocal axes: (cart. coord. in units 2 pi/alat)
               b(1) = ( -1.000000 -1.000000  1.000000 )  
               b(2) = (  1.000000  1.000000  1.000000 )  
               b(3) = ( -1.000000  1.000000 -1.000000 )  


     PseudoPot. # 1 for Cu read from file:
     /home/lorenzo/pseudos/Cu/Cu.pbesol-dn-rrkjus_psl.1.0.0.UPF
     MD5 check sum: bfa4c7aafbc42e028d5f4ccf7ceed93d
     Pseudo is Ultrasoft + core correction, Zval = 11.0
     Generated using "atomic" code by A. Dal Corso v.6.3
     Using radial grid of 1199 points,  6 beta functions with: 
                l(1) =   0
                l(2) =   0
                l(3) =   1
                l(4) =   1
                l(5) =   2
                l(6) =   2
     Q(r) pseudized with 0 coefficients 


     atomic species   valence    mass     pseudopotential
        Cu            11.00    63.54600     Cu( 1.00)

     48 Sym. Ops., with inversion, found



   Cartesian axes

     site n.     atom                  positions (alat units)
         1           Cu  tau(   1) = (   0.0000000   0.0000000   0.0000000  )

     number of k points=    10  gaussian smearing, width (Ry)=  0.0100
                       cart. coord. in units 2pi/alat
        k(    1) = (   0.0000000   0.0000000   0.0000000), wk =   0.0160000
        k(    2) = (  -0.2000000   0.2000000  -0.2000000), wk =   0.1280000
        k(    3) = (  -0.4000000   0.4000000  -0.4000000), wk =   0.1280000
        k(    4) = (   0.0000000   0.4000000   0.0000000), wk =   0.0960000
        k(    5) = (  -0.2000000   0.6000000  -0.2000000), wk =   0.3840000
        k(    6) = (   0.6000000  -0.2000000   0.6000000), wk =   0.3840000
        k(    7) = (   0.4000000   0.0000000   0.4000000), wk =   0.1920000
        k(    8) = (   0.0000000   0.8000000   0.0000000), wk =   0.0960000
        k(    9) = (   0.8000000   0.0000000   0.8000000), wk =   0.1920000
        k(   10) = (   0.6000000  -0.2000000   1.0000000), wk =   0.3840000

     Dense  grid:     8393 G-vectors     FFT dimensions: (  30,  30,  30)

     Estimated max dynamical RAM per process >       8.23 MB

     Estimated total dynamical RAM >      41.17 MB

     Initial potential from superposition of free atoms

     starting charge   10.99979, renormalised to   11.00000
     Starting wfcs are    9 randomized atomic wfcs +    1 random wfcs

     total cpu time spent up to now is        1.0 secs

     Self-consistent Calculation

     iteration #  1     ecut=    85.00 Ry     beta= 0.70
     Davidson diagonalization with overlap
     ethr =  1.00E-02,  avg # of iterations =  3.6

     Threshold (ethr) on eigenvalues was too large:
     Diagonalizing with lowered threshold

     Davidson diagonalization with overlap
     ethr =  6.79E-04,  avg # of iterations =  1.0

     total cpu time spent up to now is        1.2 secs

     total energy              =    -122.37197981 Ry
     Harris-Foulkes estimate   =    -122.43111120 Ry
     estimated scf accuracy    <       0.07437508 Ry

     iteration #  2     ecut=    85.00 Ry     beta= 0.70
     Davidson diagonalization with overlap
     ethr =  6.76E-04,  avg # of iterations =  2.0

     total cpu time spent up to now is        1.4 secs

     total energy              =    -122.37586189 Ry
     Harris-Foulkes estimate   =    -122.48078666 Ry
     estimated scf accuracy    <       0.27353178 Ry

     iteration #  3     ecut=    85.00 Ry     beta= 0.70
     Davidson diagonalization with overlap
     ethr =  6.76E-04,  avg # of iterations =  2.0

     total cpu time spent up to now is        1.5 secs

     total energy              =    -122.41733870 Ry
     Harris-Foulkes estimate   =    -122.41750835 Ry
     estimated scf accuracy    <       0.00041299 Ry

     iteration #  4     ecut=    85.00 Ry     beta= 0.70
     Davidson diagonalization with overlap
     ethr =  3.75E-06,  avg # of iterations =  2.3

     total cpu time spent up to now is        1.6 secs

     total energy              =    -122.41746899 Ry
     Harris-Foulkes estimate   =    -122.41747396 Ry
     estimated scf accuracy    <       0.00001538 Ry

     iteration #  5     ecut=    85.00 Ry     beta= 0.70
     Davidson diagonalization with overlap
     ethr =  1.40E-07,  avg # of iterations =  1.5

     total cpu time spent up to now is        1.8 secs

     total energy              =    -122.41747218 Ry
     Harris-Foulkes estimate   =    -122.41747220 Ry
     estimated scf accuracy    <       0.00000005 Ry

     iteration #  6     ecut=    85.00 Ry     beta= 0.70
     Davidson diagonalization with overlap
     ethr =  4.50E-10,  avg # of iterations =  2.7

     total cpu time spent up to now is        1.9 secs

     End of self-consistent calculation

          k = 0.0000 0.0000 0.0000 (  1067 PWs)   bands (ev):

     3.0531   9.5338   9.5338   9.5338  10.3700  10.3700  35.3887  37.7597
    37.7597  37.7597

          k =-0.2000 0.2000-0.2000 (  1046 PWs)   bands (ev):

     4.4570   9.3033   9.6966   9.6966  10.3693  10.3693  27.4045  35.5340
    35.6665  35.6665

          k =-0.4000 0.4000-0.4000 (  1050 PWs)   bands (ev):

     7.1330   9.5446   9.5446  10.2166  10.8412  10.8412  18.4282  34.0640
    34.5931  34.5931

          k = 0.0000 0.4000 0.0000 (  1054 PWs)   bands (ev):

     4.9070   9.0240   9.9621   9.9800   9.9800  10.5607  31.0909  31.0909
    32.1953  33.2643

          k =-0.2000 0.6000-0.2000 (  1046 PWs)   bands (ev):

     7.2942   8.7858   9.4830  10.0582  10.9123  11.4020  22.0242  28.7802
    29.3346  32.4958

          k = 0.6000-0.2000 0.6000 (  1073 PWs)   bands (ev):

     8.0821   9.0316   9.5140   9.9043  10.8152  13.9485  17.1110  25.6545
    30.9746  33.0899

          k = 0.4000 0.0000 0.4000 (  1057 PWs)   bands (ev):

     6.4930   9.0225   9.5098  10.0241  10.1237  11.2398  24.7986  25.6024
    35.6901  35.9428

          k = 0.0000 0.8000 0.0000 (  1042 PWs)   bands (ev):

     7.5701   8.2405  10.8757  10.9036  10.9036  11.8790  22.6363  26.2348
    26.2348  30.2815

          k = 0.8000 0.0000 0.8000 (  1057 PWs)   bands (ev):

     8.0400   8.3545  10.0737  10.6331  10.9686  15.9350  19.6907  20.1895
    26.8845  31.5244

          k = 0.6000-0.2000 1.0000 (  1052 PWs)   bands (ev):

     8.3670   8.7384   9.1664  10.4080  10.8985  14.6852  20.7262  22.2307
    24.0598  38.3557

     the Fermi energy is    11.8992 ev

!    total energy              =    -122.41747222 Ry
     Harris-Foulkes estimate   =    -122.41747223 Ry
     estimated scf accuracy    <          7.9E-10 Ry

     The total energy is the sum of the following terms:

     one-electron contribution =     -27.63371618 Ry
     hartree contribution      =      30.55957280 Ry
     xc contribution           =     -44.11783542 Ry
     ewald contribution        =     -81.22522855 Ry
     smearing contrib. (-TS)   =      -0.00026488 Ry

     convergence has been achieved in   6 iterations

     Forces acting on atoms (cartesian axes, Ry/au):

     atom    1 type  1   force =     0.00000000    0.00000000    0.00000000

     Total force =     0.000000     Total SCF correction =     0.000000


     Computing stress (Cartesian axis) and pressure

          total   stress  (Ry/bohr**3)                   (kbar)     P=  -63.80
  -0.00043372   0.00000000   0.00000000        -63.80      0.00      0.00
  -0.00000000  -0.00043372   0.00000000         -0.00    -63.80      0.00
  -0.00000000   0.00000000  -0.00043372         -0.00      0.00    -63.80


     Writing output data file Cu.save/

     init_run     :      0.25s CPU      0.25s WALL (       1 calls)
     electrons    :      0.93s CPU      0.97s WALL (       1 calls)
     forces       :      0.04s CPU      0.04s WALL (       1 calls)
     stress       :      0.14s CPU      0.14s WALL (       1 calls)

     Called by init_run:
     wfcinit      :      0.04s CPU      0.04s WALL (       1 calls)
     potinit      :      0.01s CPU      0.01s WALL (       1 calls)
     hinit0       :      0.18s CPU      0.18s WALL (       1 calls)

     Called by electrons:
     c_bands      :      0.66s CPU      0.69s WALL (       7 calls)
     sum_band     :      0.19s CPU      0.19s WALL (       7 calls)
     v_of_rho     :      0.04s CPU      0.04s WALL (       7 calls)
     newd         :      0.06s CPU      0.06s WALL (       7 calls)
     mix_rho      :      0.00s CPU      0.00s WALL (       7 calls)

     Called by c_bands:
     init_us_2    :      0.02s CPU      0.03s WALL (     170 calls)
     cegterg      :      0.63s CPU      0.66s WALL (      70 calls)

     Called by sum_band:
     sum_band:bec :      0.00s CPU      0.00s WALL (      70 calls)
     addusdens    :      0.06s CPU      0.06s WALL (       7 calls)

     Called by *egterg:
     h_psi        :      0.53s CPU      0.55s WALL (     231 calls)
     s_psi        :      0.02s CPU      0.02s WALL (     231 calls)
     g_psi        :      0.00s CPU      0.00s WALL (     151 calls)
     cdiaghg      :      0.04s CPU      0.05s WALL (     211 calls)

     Called by h_psi:
     h_psi:pot    :      0.52s CPU      0.54s WALL (     231 calls)
     h_psi:calbec :      0.02s CPU      0.03s WALL (     231 calls)
     vloc_psi     :      0.48s CPU      0.50s WALL (     231 calls)
     add_vuspsi   :      0.02s CPU      0.02s WALL (     231 calls)

     General routines
     calbec       :      0.04s CPU      0.04s WALL (     351 calls)
     fft          :      0.03s CPU      0.03s WALL (     104 calls)
     ffts         :      0.00s CPU      0.00s WALL (       7 calls)
     fftw         :      0.54s CPU      0.56s WALL (    4296 calls)

     Parallel routines
     fft_scatt_xy :      0.04s CPU      0.05s WALL (    4407 calls)
     fft_scatt_yz :      0.17s CPU      0.18s WALL (    4407 calls)

     PWSCF        :     2.08s CPU         2.17s WALL


   This run was terminated on:  23:41:53  25Mar2024            

=------------------------------------------------------------------------------=
   JOB DONE.
=------------------------------------------------------------------------------=
