
     Program PWSCF v.6.3MaX starts on 25Mar2024 at 23:37:45 

     This program is part of the open-source Quantum ESPRESSO suite
     for quantum simulation of materials; please cite
         "P. Giannozzi et al., J. Phys.:Condens. Matter 21 395502 (2009);
         "P. Giannozzi et al., J. Phys.:Condens. Matter 29 465901 (2017);
          URL http://www.quantum-espresso.org", 
     in publications or presentations arising from this work. More details at
     http://www.quantum-espresso.org/quote

     Parallel version (MPI), running on     5 processors

     MPI processes distributed on     1 nodes
     R & G space division:  proc/nbgrp/npool/nimage =       5
     Waiting for input...
     Reading input from standard input

     Current dimensions of program PWSCF are:
     Max number of different atomic species (ntypx) = 10
     Max number of k-points (npk) =  40000
     Max angular momentum in pseudopotentials (lmaxx) =  3
               file Cu.pbe-dn-kjpaw_psl.1.0.0.UPF: wavefunction(s)  4S 3D renormalized

     Subspace diagonalization in iterative solution of the eigenvalue problem:
     a serial algorithm will be used


     Parallelization info
     --------------------
     sticks:   dense  smooth     PW     G-vecs:    dense   smooth      PW
     Min         102     102     32                 1545     1545     280
     Max         103     103     33                 1546     1546     283
     Sum         511     511    163                 7727     7727    1411



     bravais-lattice index     =            2
     lattice parameter (alat)  =       6.8300  a.u.
     unit-cell volume          =      79.6530 (a.u.)^3
     number of atoms/cell      =            1
     number of atomic types    =            1
     number of electrons       =        11.00
     number of Kohn-Sham states=           10
     kinetic-energy cutoff     =      80.0000  Ry
     charge density cutoff     =     320.0000  Ry
     convergence threshold     =      1.0E-08
     mixing beta               =       0.7000
     number of iterations used =            8  plain     mixing
     Exchange-correlation      = SLA PW PBX PBC ( 1  4  3  4 0 0)

     celldm(1)=   6.830000  celldm(2)=   0.000000  celldm(3)=   0.000000
     celldm(4)=   0.000000  celldm(5)=   0.000000  celldm(6)=   0.000000

     crystal axes: (cart. coord. in units of alat)
               a(1) = (  -0.500000   0.000000   0.500000 )  
               a(2) = (   0.000000   0.500000   0.500000 )  
               a(3) = (  -0.500000   0.500000   0.000000 )  

     reciprocal axes: (cart. coord. in units 2 pi/alat)
               b(1) = ( -1.000000 -1.000000  1.000000 )  
               b(2) = (  1.000000  1.000000  1.000000 )  
               b(3) = ( -1.000000  1.000000 -1.000000 )  


     PseudoPot. # 1 for Cu read from file:
     /home/lorenzo/pseudos/Cu/Cu.pbe-dn-kjpaw_psl.1.0.0.UPF
     MD5 check sum: cfffd1f38ee05704b3e17f46f1730a6f
     Pseudo is Projector augmented-wave + core cor, Zval = 11.0
     Generated using "atomic" code by A. Dal Corso v.6.3
     Shape of augmentation charge: PSQ
     Using radial grid of 1199 points,  6 beta functions with: 
                l(1) =   0
                l(2) =   0
                l(3) =   1
                l(4) =   1
                l(5) =   2
                l(6) =   2
     Q(r) pseudized with 0 coefficients 


     atomic species   valence    mass     pseudopotential
        Cu            11.00    63.54600     Cu( 1.00)

     48 Sym. Ops., with inversion, found



   Cartesian axes

     site n.     atom                  positions (alat units)
         1           Cu  tau(   1) = (   0.0000000   0.0000000   0.0000000  )

     number of k points=    56  gaussian smearing, width (Ry)=  0.0100
                       cart. coord. in units 2pi/alat
        k(    1) = (   0.0000000   0.0000000   0.0000000), wk =   0.0015026
        k(    2) = (  -0.0909091   0.0909091  -0.0909091), wk =   0.0120210
        k(    3) = (  -0.1818182   0.1818182  -0.1818182), wk =   0.0120210
        k(    4) = (  -0.2727273   0.2727273  -0.2727273), wk =   0.0120210
        k(    5) = (  -0.3636364   0.3636364  -0.3636364), wk =   0.0120210
        k(    6) = (  -0.4545455   0.4545455  -0.4545455), wk =   0.0120210
        k(    7) = (   0.0000000   0.1818182   0.0000000), wk =   0.0090158
        k(    8) = (  -0.0909091   0.2727273  -0.0909091), wk =   0.0360631
        k(    9) = (  -0.1818182   0.3636364  -0.1818182), wk =   0.0360631
        k(   10) = (  -0.2727273   0.4545455  -0.2727273), wk =   0.0360631
        k(   11) = (  -0.3636364   0.5454545  -0.3636364), wk =   0.0360631
        k(   12) = (   0.5454545  -0.3636364   0.5454545), wk =   0.0360631
        k(   13) = (   0.4545455  -0.2727273   0.4545455), wk =   0.0360631
        k(   14) = (   0.3636364  -0.1818182   0.3636364), wk =   0.0360631
        k(   15) = (   0.2727273  -0.0909091   0.2727273), wk =   0.0360631
        k(   16) = (   0.1818182  -0.0000000   0.1818182), wk =   0.0180316
        k(   17) = (   0.0000000   0.3636364   0.0000000), wk =   0.0090158
        k(   18) = (  -0.0909091   0.4545455  -0.0909091), wk =   0.0360631
        k(   19) = (  -0.1818182   0.5454545  -0.1818182), wk =   0.0360631
        k(   20) = (  -0.2727273   0.6363636  -0.2727273), wk =   0.0360631
        k(   21) = (   0.6363636  -0.2727273   0.6363636), wk =   0.0360631
        k(   22) = (   0.5454545  -0.1818182   0.5454545), wk =   0.0360631
        k(   23) = (   0.4545455  -0.0909091   0.4545455), wk =   0.0360631
        k(   24) = (   0.3636364   0.0000000   0.3636364), wk =   0.0180316
        k(   25) = (   0.0000000   0.5454545   0.0000000), wk =   0.0090158
        k(   26) = (  -0.0909091   0.6363636  -0.0909091), wk =   0.0360631
        k(   27) = (  -0.1818182   0.7272727  -0.1818182), wk =   0.0360631
        k(   28) = (   0.7272727  -0.1818182   0.7272727), wk =   0.0360631
        k(   29) = (   0.6363636  -0.0909091   0.6363636), wk =   0.0360631
        k(   30) = (   0.5454545   0.0000000   0.5454545), wk =   0.0180316
        k(   31) = (   0.0000000   0.7272727   0.0000000), wk =   0.0090158
        k(   32) = (  -0.0909091   0.8181818  -0.0909091), wk =   0.0360631
        k(   33) = (   0.8181818  -0.0909091   0.8181818), wk =   0.0360631
        k(   34) = (   0.7272727   0.0000000   0.7272727), wk =   0.0180316
        k(   35) = (   0.0000000   0.9090909   0.0000000), wk =   0.0090158
        k(   36) = (   0.9090909  -0.0000000   0.9090909), wk =   0.0180316
        k(   37) = (  -0.1818182   0.3636364   0.0000000), wk =   0.0360631
        k(   38) = (  -0.2727273   0.4545455  -0.0909091), wk =   0.0721262
        k(   39) = (  -0.3636364   0.5454545  -0.1818182), wk =   0.0721262
        k(   40) = (   0.5454545  -0.3636364   0.7272727), wk =   0.0721262
        k(   41) = (  -0.1818182   0.5454545   0.0000000), wk =   0.0360631
        k(   42) = (  -0.2727273   0.6363636  -0.0909091), wk =   0.0721262
        k(   43) = (   0.6363636  -0.2727273   0.8181818), wk =   0.0721262
        k(   44) = (   0.5454545  -0.1818182   0.7272727), wk =   0.0721262
        k(   45) = (   0.4545455  -0.0909091   0.6363636), wk =   0.0721262
        k(   46) = (   0.3636364   0.0000000   0.5454545), wk =   0.0360631
        k(   47) = (  -0.1818182   0.7272727   0.0000000), wk =   0.0360631
        k(   48) = (   0.7272727  -0.1818182   0.9090909), wk =   0.0721262
        k(   49) = (   0.6363636  -0.0909091   0.8181818), wk =   0.0721262
        k(   50) = (   0.5454545   0.0000000   0.7272727), wk =   0.0360631
        k(   51) = (   0.8181818  -0.0909091   1.0000000), wk =   0.0360631
        k(   52) = (   0.7272727   0.0000000   0.9090909), wk =   0.0360631
        k(   53) = (   0.6363636  -0.2727273   1.0000000), wk =   0.0360631
        k(   54) = (   0.5454545  -0.1818182   0.9090909), wk =   0.0721262
        k(   55) = (   0.6363636  -0.0909091   1.0000000), wk =   0.0360631
        k(   56) = (   0.5454545   0.0000000   0.9090909), wk =   0.0360631

     Dense  grid:     7727 G-vectors     FFT dimensions: (  27,  27,  27)

     Estimated max dynamical RAM per process >       8.97 MB

     Estimated total dynamical RAM >      44.84 MB

     Initial potential from superposition of free atoms

     starting charge   10.99977, renormalised to   11.00000
     Starting wfcs are    9 randomized atomic wfcs +    1 random wfcs
     Checking if some PAW data can be deallocated... 

     total cpu time spent up to now is        1.9 secs

     Self-consistent Calculation

     iteration #  1     ecut=    80.00 Ry     beta= 0.70
     Davidson diagonalization with overlap
     ethr =  1.00E-02,  avg # of iterations =  3.9

     Threshold (ethr) on eigenvalues was too large:
     Diagonalizing with lowered threshold

     Davidson diagonalization with overlap
     ethr =  5.68E-04,  avg # of iterations =  1.1

     total cpu time spent up to now is        3.1 secs

     total energy              =    -213.06059537 Ry
     Harris-Foulkes estimate   =    -213.10956376 Ry
     estimated scf accuracy    <       0.06216944 Ry

     iteration #  2     ecut=    80.00 Ry     beta= 0.70
     Davidson diagonalization with overlap
     ethr =  5.65E-04,  avg # of iterations =  2.0

     total cpu time spent up to now is        3.8 secs

     total energy              =    -213.06180469 Ry
     Harris-Foulkes estimate   =    -213.14830817 Ry
     estimated scf accuracy    <       0.22464420 Ry

     iteration #  3     ecut=    80.00 Ry     beta= 0.70
     Davidson diagonalization with overlap
     ethr =  5.65E-04,  avg # of iterations =  2.0

     total cpu time spent up to now is        4.5 secs

     total energy              =    -213.09744423 Ry
     Harris-Foulkes estimate   =    -213.09747352 Ry
     estimated scf accuracy    <       0.00007607 Ry

     iteration #  4     ecut=    80.00 Ry     beta= 0.70
     Davidson diagonalization with overlap
     ethr =  6.92E-07,  avg # of iterations =  2.4

     total cpu time spent up to now is        5.2 secs

     total energy              =    -213.09748804 Ry
     Harris-Foulkes estimate   =    -213.09749562 Ry
     estimated scf accuracy    <       0.00002110 Ry

     iteration #  5     ecut=    80.00 Ry     beta= 0.70
     Davidson diagonalization with overlap
     ethr =  1.92E-07,  avg # of iterations =  1.2

     total cpu time spent up to now is        5.7 secs

     total energy              =    -213.09749202 Ry
     Harris-Foulkes estimate   =    -213.09749225 Ry
     estimated scf accuracy    <       0.00000065 Ry

     iteration #  6     ecut=    80.00 Ry     beta= 0.70
     Davidson diagonalization with overlap
     ethr =  5.92E-09,  avg # of iterations =  1.4

     total cpu time spent up to now is        6.3 secs

     End of self-consistent calculation

          k = 0.0000 0.0000 0.0000 (   941 PWs)   bands (ev):

     3.2679   9.6630   9.6630   9.6630  10.4945  10.4945  35.5877  37.9877
    37.9877  37.9877

          k =-0.0909 0.0909-0.0909 (   944 PWs)   bands (ev):

     3.5677   9.6006   9.7178   9.7178  10.4746  10.4746  33.2791  36.2881
    37.1470  37.1470

          k =-0.1818 0.1818-0.1818 (   950 PWs)   bands (ev):

     4.4374   9.4624   9.8152   9.8152  10.4771  10.4771  28.5456  35.8470
    36.0698  36.0698

          k =-0.2727 0.2727-0.2727 (   953 PWs)   bands (ev):

     5.7422   9.4175   9.8054   9.8054  10.6326  10.6326  24.0222  35.1881
    35.3161  35.3161

          k =-0.3636 0.3636-0.3636 (   956 PWs)   bands (ev):

     7.0072   9.7109   9.7109   9.9145  10.8769  10.8769  20.0050  34.4840
    34.9063  34.9063

          k =-0.4545 0.4545-0.4545 (   969 PWs)   bands (ev):

     7.5336   9.6392   9.6392  11.0456  11.0456  11.2673  16.9763  34.0520
    34.7661  34.7661

          k = 0.0000 0.1818 0.0000 (   945 PWs)   bands (ev):

     3.6671   9.5452   9.7585   9.7585  10.3891  10.5378  34.3656  35.2106
    35.2106  36.6055

          k =-0.0909 0.2727-0.0909 (   949 PWs)   bands (ev):

     4.3462   9.4050   9.8611   9.8706  10.3156  10.5842  30.3235  33.7349
    34.4879  37.6894

          k =-0.1818 0.3636-0.1818 (   950 PWs)   bands (ev):

     5.5158   9.2823   9.8212   9.9138  10.4894  10.7158  25.6914  32.7697
    33.8452  36.6942

          k =-0.2727 0.4545-0.2727 (   960 PWs)   bands (ev):

     6.8526   9.4138   9.6758   9.8457  10.9247  10.9530  21.4706  32.3552
    33.1864  34.6964

          k =-0.3636 0.5455-0.3636 (   959 PWs)   bands (ev):

     7.6110   9.5447   9.7580  10.0626  11.0653  11.8568  17.9523  32.1330
    32.5470  33.8748

          k = 0.5455-0.3636 0.5455 (   961 PWs)   bands (ev):

     7.7369   9.5276   9.7212  10.3525  11.0376  12.5899  16.5686  31.0994
    33.3936  34.0221

          k = 0.4545-0.2727 0.4545 (   958 PWs)   bands (ev):

     7.4582   9.6034   9.7612   9.8864  10.8362  11.6078  19.0174  30.5579
    34.7716  34.8977

          k = 0.3636-0.1818 0.3636 (   955 PWs)   bands (ev):

     6.4336   9.3560   9.7323   9.8607  10.5419  11.0398  22.8256  30.5634
    36.0329  36.9801

          k = 0.2727-0.0909 0.2727 (   946 PWs)   bands (ev):

     5.0835   9.3442   9.8292   9.9168  10.3283  10.7133  27.2039  31.0865
    37.4745  38.8595

          k = 0.1818-0.0000 0.1818 (   941 PWs)   bands (ev):

     4.0581   9.4915   9.8014   9.8034  10.3696  10.5459  31.6041  32.4278
    37.5414  39.0900

          k = 0.0000 0.3636 0.0000 (   966 PWs)   bands (ev):

     4.8161   9.2344  10.0330  10.0330  10.1406  10.6544  31.9197  31.9197
    32.6781  34.1273

          k =-0.0909 0.4545-0.0909 (   965 PWs)   bands (ev):

     5.7791   9.0582   9.8838  10.1606  10.4267  10.7667  27.7578  30.6701
    32.3058  33.5640

          k =-0.1818 0.5455-0.1818 (   965 PWs)   bands (ev):

     7.0027   8.9821   9.6590  10.1422  10.9590  11.0978  23.4144  30.0447
    30.4252  32.9984

          k =-0.2727 0.6364-0.2727 (   969 PWs)   bands (ev):

     7.8886   9.1151   9.5885  10.0548  11.0892  12.3525  19.5564  28.5872
    30.1048  32.8514

          k = 0.6364-0.2727 0.6364 (   959 PWs)   bands (ev):

     8.1397   9.2024   9.7566   9.9844  11.0463  14.0356  16.8404  27.1995
    30.8831  33.1132

          k = 0.5455-0.1818 0.5455 (   967 PWs)   bands (ev):

     8.0724   9.3125   9.5988   9.9753  10.8244  13.0718  18.4700  26.3663
    32.3528  33.8498

          k = 0.4545-0.0909 0.4545 (   963 PWs)   bands (ev):

     7.4333   9.2164   9.5159  10.0411  10.4959  11.8113  22.0965  26.1284
    34.4312  35.1201

          k = 0.3636 0.0000 0.3636 (   957 PWs)   bands (ev):

     6.1926   9.1956   9.7207  10.1609  10.1715  11.1325  26.0210  26.7628
    36.8732  37.0027

          k = 0.0000 0.5455 0.0000 (   966 PWs)   bands (ev):

     6.4548   8.8385  10.0615  10.4404  10.4404  10.8090  29.1241  29.1241
    29.7761  31.4324

          k =-0.0909 0.6364-0.0909 (   968 PWs)   bands (ev):

     7.3130   8.6875  10.0132  10.5299  10.9648  11.1102  25.6949  27.3622
    28.2280  31.9371

          k =-0.1818 0.7273-0.1818 (   973 PWs)   bands (ev):

     7.9989   8.6702   9.8514  10.4607  11.1091  12.6312  21.7531  25.2901
    28.0699  32.0500

          k = 0.7273-0.1818 0.7273 (   963 PWs)   bands (ev):

     8.3786   8.7682   9.7004  10.3648  11.0732  14.9004  18.3094  23.7196
    28.6868  32.2835

          k = 0.6364-0.0909 0.6364 (   966 PWs)   bands (ev):

     8.5594   8.9233   9.4755  10.2849  10.8640  15.0948  18.2308  22.7242
    30.0316  32.8484

          k = 0.5455 0.0000 0.5455 (   971 PWs)   bands (ev):

     8.3233   9.2000   9.2065  10.2075  10.6037  13.0999  21.2640  22.7537
    31.9926  33.8166

          k = 0.0000 0.7273 0.0000 (   974 PWs)   bands (ev):

     7.6001   8.4854  10.8762  10.8762  10.9527  11.1615  24.6760  27.0432
    27.0432  30.6586

          k =-0.0909 0.8182-0.0909 (   973 PWs)   bands (ev):

     7.8544   8.4104  10.6557  10.8540  11.1217  12.8558  22.5356  24.3230
    26.6182  31.2935

          k = 0.8182-0.0909 0.8182 (   971 PWs)   bands (ev):

     8.1327   8.4835  10.2621  10.7470  11.1205  15.1297  20.7348  21.1268
    27.0194  31.6735

          k = 0.7273 0.0000 0.7273 (   969 PWs)   bands (ev):

     8.4545   8.6542   9.7979  10.5704  10.9791  17.4022  17.6858  20.6440
    28.2010  32.1223

          k = 0.0000 0.9091 0.0000 (   974 PWs)   bands (ev):

     7.7831   8.2802  11.0389  11.1716  11.1716  13.5331  20.5772  25.9092
    25.9092  30.2935

          k = 0.9091-0.0000 0.9091 (   962 PWs)   bands (ev):

     7.8789   8.3087  10.9038  10.9815  11.1867  14.6492  19.8507  23.8180
    26.0494  31.0939

          k =-0.1818 0.3636 0.0000 (   958 PWs)   bands (ev):

     5.1783   9.2418   9.8583  10.0440  10.2679  10.7367  28.8763  29.5162
    35.7904  36.2700

          k =-0.2727 0.4545-0.0909 (   957 PWs)   bands (ev):

     6.4101   9.1324   9.6868  10.0869  10.4766  11.0996  24.6423  28.5433
    33.5279  36.4206

          k =-0.3636 0.5455-0.1818 (   962 PWs)   bands (ev):

     7.5614   9.2796   9.5195   9.9943  10.8211  11.8177  20.5937  28.3838
    31.4887  35.8704

          k = 0.5455-0.3636 0.7273 (   965 PWs)   bands (ev):

     7.9963   9.3241   9.7910   9.9227  11.0098  13.2289  17.3519  28.7866
    29.9419  35.5085

          k =-0.1818 0.5455 0.0000 (   967 PWs)   bands (ev):

     6.7583   8.8935   9.7383  10.4407  10.5274  11.0914  26.5927  27.1450
    30.2612  34.5291

          k =-0.2727 0.6364-0.0909 (   963 PWs)   bands (ev):

     7.7685   8.8481   9.5412  10.3941  10.8593  11.9879  22.6711  26.5585
    28.0368  34.9720

          k = 0.6364-0.2727 0.8182 (   967 PWs)   bands (ev):

     8.3177   8.9310   9.4893  10.2741  11.0309  13.7425  19.0040  26.1920
    26.9127  35.1039

          k = 0.5455-0.1818 0.7273 (   960 PWs)   bands (ev):

     8.4732   8.9707   9.5131  10.1956  10.9869  15.1302  17.1924  24.9844
    27.7874  35.6200

          k = 0.4545-0.0909 0.6364 (   966 PWs)   bands (ev):

     8.3206   9.1108   9.2691  10.2351  10.7719  13.2211  20.1590  24.3372
    29.2565  36.6513

          k = 0.3636 0.0000 0.5455 (   956 PWs)   bands (ev):

     7.5357   9.0380   9.4432  10.3036  10.4689  11.8622  23.6922  24.6339
    31.2121  38.1234

          k =-0.1818 0.7273 0.0000 (   963 PWs)   bands (ev):

     7.8322   8.5770  10.0532  10.8468  10.8741  12.1630  24.8621  24.9220
    25.5121  33.3757

          k = 0.7273-0.1818 0.9091 (   963 PWs)   bands (ev):

     8.2095   8.6104   9.8708  10.6747  11.0807  14.0976  21.3653  23.1098
    25.3090  34.1716

          k = 0.6364-0.0909 0.8182 (   967 PWs)   bands (ev):

     8.5137   8.7232   9.6148  10.4993  11.0570  16.6298  18.1185  21.8100
    26.0666  34.7048

          k = 0.5455 0.0000 0.7273 (   968 PWs)   bands (ev):

     8.7458   8.8368   9.2928  10.3849  10.8900  15.2655  19.4228  21.5737
    27.4201  35.5840

          k = 0.8182-0.0909 1.0000 (   967 PWs)   bands (ev):

     7.9698   8.3917  10.5433  10.9214  11.1714  14.4398  20.7876  23.8977
    24.5062  32.8197

          k = 0.7273 0.0000 0.9091 (   968 PWs)   bands (ev):

     8.1999   8.5267  10.1189  10.7377  11.1690  16.1663  20.1362  20.9463
    24.8533  33.9165

          k = 0.6364-0.2727 1.0000 (   964 PWs)   bands (ev):

     8.3829   8.8519   9.3284  10.5547  10.8722  13.5126  21.9630  23.1850
    25.9246  37.8990

          k = 0.5455-0.1818 0.9091 (   957 PWs)   bands (ev):

     8.6502   8.8970   9.2604  10.4292  11.0449  15.7664  18.8795  23.2405
    24.3204  38.3690

          k = 0.6364-0.0909 1.0000 (   966 PWs)   bands (ev):

     8.3888   8.7334   9.6485  10.5979  11.1704  16.2075  21.0048  21.4795
    22.4820  37.2704

          k = 0.5455 0.0000 0.9091 (   959 PWs)   bands (ev):

     8.5504   8.9582   9.3175  10.4645  11.1690  18.3400  18.3739  20.9999
    22.8987  38.6134

     the Fermi energy is    12.7579 ev

!    total energy              =    -213.09749213 Ry
     Harris-Foulkes estimate   =    -213.09749213 Ry
     estimated scf accuracy    <          4.8E-10 Ry

     total all-electron energy =     -3309.977258 Ry

     The total energy is the sum of the following terms:

     one-electron contribution =     -28.01167848 Ry
     hartree contribution      =      30.61360797 Ry
     xc contribution           =     -44.62767195 Ry
     ewald contribution        =     -81.22522855 Ry
     one-center paw contrib.   =     -89.84639500 Ry
     smearing contrib. (-TS)   =      -0.00012612 Ry

     convergence has been achieved in   6 iterations

     Forces acting on atoms (cartesian axes, Ry/au):

     atom    1 type  1   force =     0.00000000    0.00000000    0.00000000

     Total force =     0.000000     Total SCF correction =     0.000000


     Computing stress (Cartesian axis) and pressure

          total   stress  (Ry/bohr**3)                   (kbar)     P=   15.65
   0.00010642  -0.00000000  -0.00000000         15.65     -0.00     -0.00
  -0.00000000   0.00010642   0.00000000         -0.00     15.65      0.00
  -0.00000000   0.00000000   0.00010642         -0.00      0.00     15.65


     Writing output data file Cu.save/

     init_run     :      0.46s CPU      0.49s WALL (       1 calls)
     electrons    :      4.09s CPU      4.37s WALL (       1 calls)
     forces       :      0.05s CPU      0.05s WALL (       1 calls)
     stress       :      0.19s CPU      0.19s WALL (       1 calls)

     Called by init_run:
     wfcinit      :      0.17s CPU      0.18s WALL (       1 calls)
     potinit      :      0.10s CPU      0.11s WALL (       1 calls)
     hinit0       :      0.17s CPU      0.17s WALL (       1 calls)

     Called by electrons:
     c_bands      :      2.87s CPU      3.03s WALL (       7 calls)
     sum_band     :      0.60s CPU      0.63s WALL (       7 calls)
     v_of_rho     :      0.03s CPU      0.03s WALL (       7 calls)
     newd         :      0.05s CPU      0.06s WALL (       7 calls)
     PAW_pot      :      0.63s CPU      0.73s WALL (       7 calls)
     mix_rho      :      0.00s CPU      0.00s WALL (       7 calls)

     Called by c_bands:
     init_us_2    :      0.12s CPU      0.12s WALL (     952 calls)
     cegterg      :      2.73s CPU      2.88s WALL (     392 calls)

     Called by sum_band:
     sum_band:bec :      0.00s CPU      0.00s WALL (     392 calls)
     addusdens    :      0.05s CPU      0.05s WALL (       7 calls)

     Called by *egterg:
     h_psi        :      2.24s CPU      2.36s WALL (    1231 calls)
     s_psi        :      0.07s CPU      0.08s WALL (    1231 calls)
     g_psi        :      0.01s CPU      0.01s WALL (     783 calls)
     cdiaghg      :      0.21s CPU      0.22s WALL (    1119 calls)

     Called by h_psi:
     h_psi:pot    :      2.23s CPU      2.35s WALL (    1231 calls)
     h_psi:calbec :      0.10s CPU      0.11s WALL (    1231 calls)
     vloc_psi     :      2.04s CPU      2.15s WALL (    1231 calls)
     add_vuspsi   :      0.08s CPU      0.08s WALL (    1231 calls)

     General routines
     calbec       :      0.17s CPU      0.18s WALL (    1903 calls)
     fft          :      0.02s CPU      0.02s WALL (     104 calls)
     ffts         :      0.00s CPU      0.00s WALL (       7 calls)
     fftw         :      2.31s CPU      2.43s WALL (   23666 calls)

     Parallel routines
     fft_scatt_xy :      0.20s CPU      0.21s WALL (   23777 calls)
     fft_scatt_yz :      0.56s CPU      0.59s WALL (   23777 calls)

     PWSCF        :     6.26s CPU         6.65s WALL


   This run was terminated on:  23:37:51  25Mar2024            

=------------------------------------------------------------------------------=
   JOB DONE.
=------------------------------------------------------------------------------=
