
     Program PWSCF v.6.3MaX starts on 25Mar2024 at 23:28:11 

     This program is part of the open-source Quantum ESPRESSO suite
     for quantum simulation of materials; please cite
         "P. Giannozzi et al., J. Phys.:Condens. Matter 21 395502 (2009);
         "P. Giannozzi et al., J. Phys.:Condens. Matter 29 465901 (2017);
          URL http://www.quantum-espresso.org", 
     in publications or presentations arising from this work. More details at
     http://www.quantum-espresso.org/quote

     Parallel version (MPI), running on     5 processors

     MPI processes distributed on     1 nodes
     R & G space division:  proc/nbgrp/npool/nimage =       5
     Waiting for input...
     Reading input from standard input

     Current dimensions of program PWSCF are:
     Max number of different atomic species (ntypx) = 10
     Max number of k-points (npk) =  40000
     Max angular momentum in pseudopotentials (lmaxx) =  3
               file Cu.pbesol-dn-rrkjus_psl.1.0.0.UPF: wavefunction(s)  3D renormalized

     Subspace diagonalization in iterative solution of the eigenvalue problem:
     a serial algorithm will be used


     Parallelization info
     --------------------
     sticks:   dense  smooth     PW     G-vecs:    dense   smooth      PW
     Min          75      75     24                 1003     1003     187
     Max          76      76     25                 1007     1007     191
     Sum         379     379    121                 5029     5029     941



     bravais-lattice index     =            2
     lattice parameter (alat)  =       6.8300  a.u.
     unit-cell volume          =      79.6530 (a.u.)^3
     number of atoms/cell      =            1
     number of atomic types    =            1
     number of electrons       =        11.00
     number of Kohn-Sham states=           10
     kinetic-energy cutoff     =      60.0000  Ry
     charge density cutoff     =     240.0000  Ry
     convergence threshold     =      1.0E-08
     mixing beta               =       0.7000
     number of iterations used =            8  plain     mixing
     Exchange-correlation      = PBESOL ( 1  4 10  8 0 0)

     celldm(1)=   6.830000  celldm(2)=   0.000000  celldm(3)=   0.000000
     celldm(4)=   0.000000  celldm(5)=   0.000000  celldm(6)=   0.000000

     crystal axes: (cart. coord. in units of alat)
               a(1) = (  -0.500000   0.000000   0.500000 )  
               a(2) = (   0.000000   0.500000   0.500000 )  
               a(3) = (  -0.500000   0.500000   0.000000 )  

     reciprocal axes: (cart. coord. in units 2 pi/alat)
               b(1) = ( -1.000000 -1.000000  1.000000 )  
               b(2) = (  1.000000  1.000000  1.000000 )  
               b(3) = ( -1.000000  1.000000 -1.000000 )  


     PseudoPot. # 1 for Cu read from file:
     /home/lorenzo/pseudos/Cu/Cu.pbesol-dn-rrkjus_psl.1.0.0.UPF
     MD5 check sum: bfa4c7aafbc42e028d5f4ccf7ceed93d
     Pseudo is Ultrasoft + core correction, Zval = 11.0
     Generated using "atomic" code by A. Dal Corso v.6.3
     Using radial grid of 1199 points,  6 beta functions with: 
                l(1) =   0
                l(2) =   0
                l(3) =   1
                l(4) =   1
                l(5) =   2
                l(6) =   2
     Q(r) pseudized with 0 coefficients 


     atomic species   valence    mass     pseudopotential
        Cu            11.00    63.54600     Cu( 1.00)

     48 Sym. Ops., with inversion, found



   Cartesian axes

     site n.     atom                  positions (alat units)
         1           Cu  tau(   1) = (   0.0000000   0.0000000   0.0000000  )

     number of k points=    56  gaussian smearing, width (Ry)=  0.0100
                       cart. coord. in units 2pi/alat
        k(    1) = (   0.0000000   0.0000000   0.0000000), wk =   0.0015026
        k(    2) = (  -0.0909091   0.0909091  -0.0909091), wk =   0.0120210
        k(    3) = (  -0.1818182   0.1818182  -0.1818182), wk =   0.0120210
        k(    4) = (  -0.2727273   0.2727273  -0.2727273), wk =   0.0120210
        k(    5) = (  -0.3636364   0.3636364  -0.3636364), wk =   0.0120210
        k(    6) = (  -0.4545455   0.4545455  -0.4545455), wk =   0.0120210
        k(    7) = (   0.0000000   0.1818182   0.0000000), wk =   0.0090158
        k(    8) = (  -0.0909091   0.2727273  -0.0909091), wk =   0.0360631
        k(    9) = (  -0.1818182   0.3636364  -0.1818182), wk =   0.0360631
        k(   10) = (  -0.2727273   0.4545455  -0.2727273), wk =   0.0360631
        k(   11) = (  -0.3636364   0.5454545  -0.3636364), wk =   0.0360631
        k(   12) = (   0.5454545  -0.3636364   0.5454545), wk =   0.0360631
        k(   13) = (   0.4545455  -0.2727273   0.4545455), wk =   0.0360631
        k(   14) = (   0.3636364  -0.1818182   0.3636364), wk =   0.0360631
        k(   15) = (   0.2727273  -0.0909091   0.2727273), wk =   0.0360631
        k(   16) = (   0.1818182  -0.0000000   0.1818182), wk =   0.0180316
        k(   17) = (   0.0000000   0.3636364   0.0000000), wk =   0.0090158
        k(   18) = (  -0.0909091   0.4545455  -0.0909091), wk =   0.0360631
        k(   19) = (  -0.1818182   0.5454545  -0.1818182), wk =   0.0360631
        k(   20) = (  -0.2727273   0.6363636  -0.2727273), wk =   0.0360631
        k(   21) = (   0.6363636  -0.2727273   0.6363636), wk =   0.0360631
        k(   22) = (   0.5454545  -0.1818182   0.5454545), wk =   0.0360631
        k(   23) = (   0.4545455  -0.0909091   0.4545455), wk =   0.0360631
        k(   24) = (   0.3636364   0.0000000   0.3636364), wk =   0.0180316
        k(   25) = (   0.0000000   0.5454545   0.0000000), wk =   0.0090158
        k(   26) = (  -0.0909091   0.6363636  -0.0909091), wk =   0.0360631
        k(   27) = (  -0.1818182   0.7272727  -0.1818182), wk =   0.0360631
        k(   28) = (   0.7272727  -0.1818182   0.7272727), wk =   0.0360631
        k(   29) = (   0.6363636  -0.0909091   0.6363636), wk =   0.0360631
        k(   30) = (   0.5454545   0.0000000   0.5454545), wk =   0.0180316
        k(   31) = (   0.0000000   0.7272727   0.0000000), wk =   0.0090158
        k(   32) = (  -0.0909091   0.8181818  -0.0909091), wk =   0.0360631
        k(   33) = (   0.8181818  -0.0909091   0.8181818), wk =   0.0360631
        k(   34) = (   0.7272727   0.0000000   0.7272727), wk =   0.0180316
        k(   35) = (   0.0000000   0.9090909   0.0000000), wk =   0.0090158
        k(   36) = (   0.9090909  -0.0000000   0.9090909), wk =   0.0180316
        k(   37) = (  -0.1818182   0.3636364   0.0000000), wk =   0.0360631
        k(   38) = (  -0.2727273   0.4545455  -0.0909091), wk =   0.0721262
        k(   39) = (  -0.3636364   0.5454545  -0.1818182), wk =   0.0721262
        k(   40) = (   0.5454545  -0.3636364   0.7272727), wk =   0.0721262
        k(   41) = (  -0.1818182   0.5454545   0.0000000), wk =   0.0360631
        k(   42) = (  -0.2727273   0.6363636  -0.0909091), wk =   0.0721262
        k(   43) = (   0.6363636  -0.2727273   0.8181818), wk =   0.0721262
        k(   44) = (   0.5454545  -0.1818182   0.7272727), wk =   0.0721262
        k(   45) = (   0.4545455  -0.0909091   0.6363636), wk =   0.0721262
        k(   46) = (   0.3636364   0.0000000   0.5454545), wk =   0.0360631
        k(   47) = (  -0.1818182   0.7272727   0.0000000), wk =   0.0360631
        k(   48) = (   0.7272727  -0.1818182   0.9090909), wk =   0.0721262
        k(   49) = (   0.6363636  -0.0909091   0.8181818), wk =   0.0721262
        k(   50) = (   0.5454545   0.0000000   0.7272727), wk =   0.0360631
        k(   51) = (   0.8181818  -0.0909091   1.0000000), wk =   0.0360631
        k(   52) = (   0.7272727   0.0000000   0.9090909), wk =   0.0360631
        k(   53) = (   0.6363636  -0.2727273   1.0000000), wk =   0.0360631
        k(   54) = (   0.5454545  -0.1818182   0.9090909), wk =   0.0721262
        k(   55) = (   0.6363636  -0.0909091   1.0000000), wk =   0.0360631
        k(   56) = (   0.5454545   0.0000000   0.9090909), wk =   0.0360631

     Dense  grid:     5029 G-vectors     FFT dimensions: (  24,  24,  24)

     Estimated max dynamical RAM per process >       6.18 MB

     Estimated total dynamical RAM >      30.89 MB

     Initial potential from superposition of free atoms

     starting charge   10.99979, renormalised to   11.00000
     Starting wfcs are    9 randomized atomic wfcs +    1 random wfcs

     total cpu time spent up to now is        1.0 secs

     Self-consistent Calculation

     iteration #  1     ecut=    60.00 Ry     beta= 0.70
     Davidson diagonalization with overlap
     ethr =  1.00E-02,  avg # of iterations =  3.9

     Threshold (ethr) on eigenvalues was too large:
     Diagonalizing with lowered threshold

     Davidson diagonalization with overlap
     ethr =  6.85E-04,  avg # of iterations =  1.0

     total cpu time spent up to now is        1.7 secs

     total energy              =    -122.36540745 Ry
     Harris-Foulkes estimate   =    -122.42503487 Ry
     estimated scf accuracy    <       0.07502000 Ry

     iteration #  2     ecut=    60.00 Ry     beta= 0.70
     Davidson diagonalization with overlap
     ethr =  6.82E-04,  avg # of iterations =  2.0

     total cpu time spent up to now is        2.1 secs

     total energy              =    -122.36699744 Ry
     Harris-Foulkes estimate   =    -122.47226919 Ry
     estimated scf accuracy    <       0.27385261 Ry

     iteration #  3     ecut=    60.00 Ry     beta= 0.70
     Davidson diagonalization with overlap
     ethr =  6.82E-04,  avg # of iterations =  2.1

     total cpu time spent up to now is        2.5 secs

     total energy              =    -122.41015387 Ry
     Harris-Foulkes estimate   =    -122.41019376 Ry
     estimated scf accuracy    <       0.00010497 Ry

     iteration #  4     ecut=    60.00 Ry     beta= 0.70
     Davidson diagonalization with overlap
     ethr =  9.54E-07,  avg # of iterations =  2.5

     total cpu time spent up to now is        2.9 secs

     total energy              =    -122.41022441 Ry
     Harris-Foulkes estimate   =    -122.41022906 Ry
     estimated scf accuracy    <       0.00001346 Ry

     iteration #  5     ecut=    60.00 Ry     beta= 0.70
     Davidson diagonalization with overlap
     ethr =  1.22E-07,  avg # of iterations =  1.1

     total cpu time spent up to now is        3.2 secs

     total energy              =    -122.41022693 Ry
     Harris-Foulkes estimate   =    -122.41022709 Ry
     estimated scf accuracy    <       0.00000050 Ry

     iteration #  6     ecut=    60.00 Ry     beta= 0.70
     Davidson diagonalization with overlap
     ethr =  4.53E-09,  avg # of iterations =  1.5

     total cpu time spent up to now is        3.5 secs

     End of self-consistent calculation

          k = 0.0000 0.0000 0.0000 (   609 PWs)   bands (ev):

     3.0494   9.4835   9.4835   9.4835  10.3176  10.3176  35.3879  37.7541
    37.7541  37.7541

          k =-0.0909 0.0909-0.0909 (   621 PWs)   bands (ev):

     3.3491   9.4207   9.5385   9.5385  10.2975  10.2975  33.0620  36.0775
    36.9139  36.9139

          k =-0.1818 0.1818-0.1818 (   619 PWs)   bands (ev):

     4.2189   9.2812   9.6362   9.6362  10.3002  10.3002  28.3273  35.6449
    35.8359  35.8359

          k =-0.2727 0.2727-0.2727 (   613 PWs)   bands (ev):

     5.5250   9.2326   9.6260   9.6260  10.4567  10.4567  23.8067  34.9889
    35.0799  35.0799

          k =-0.3636 0.3636-0.3636 (   613 PWs)   bands (ev):

     6.7987   9.5309   9.5309   9.7175  10.7024  10.7024  19.7938  34.2852
    34.6658  34.6658

          k =-0.4545 0.4545-0.4545 (   619 PWs)   bands (ev):

     7.3361   9.4588   9.4588  10.8720  10.8720  11.0528  16.7719  33.8531
    34.5209  34.5209

          k = 0.0000 0.1818 0.0000 (   613 PWs)   bands (ev):

     3.4486   9.3652   9.5793   9.5793  10.2116  10.3610  34.1617  34.9779
    34.9779  36.3872

          k =-0.0909 0.2727-0.0909 (   615 PWs)   bands (ev):

     4.1277   9.2242   9.6822   9.6918  10.1376  10.4077  30.1040  33.5021
    34.2794  37.4726

          k =-0.1818 0.3636-0.1818 (   620 PWs)   bands (ev):

     5.2979   9.0996   9.6417   9.7350  10.3117  10.5402  25.4743  32.5361
    33.6404  36.4625

          k =-0.2727 0.4545-0.2727 (   615 PWs)   bands (ev):

     6.6404   9.2255   9.4956   9.6663  10.7503  10.7740  21.2571  32.1200
    32.9840  34.4602

          k =-0.3636 0.5455-0.3636 (   624 PWs)   bands (ev):

     7.4118   9.3630   9.5781   9.8718  10.8918  11.6647  17.7443  31.9190
    32.3098  33.6500

          k = 0.5455-0.3636 0.5455 (   623 PWs)   bands (ev):

     7.5414   9.3462   9.5411  10.1644  10.8640  12.3873  16.3653  30.8786
    33.1546  33.8044

          k = 0.4545-0.2727 0.4545 (   614 PWs)   bands (ev):

     7.2550   9.4224   9.5813   9.6932  10.6616  11.4241  18.8074  30.3356
    34.5567  34.6570

          k = 0.3636-0.1818 0.3636 (   618 PWs)   bands (ev):

     6.2183   9.1702   9.5521   9.6814  10.3657  10.8634  22.6109  30.3413
    35.8196  36.7368

          k = 0.2727-0.0909 0.2727 (   620 PWs)   bands (ev):

     4.8652   9.1624   9.6497   9.7383  10.1507  10.5371  26.9861  30.8648
    37.2617  38.6207

          k = 0.1818-0.0000 0.1818 (   616 PWs)   bands (ev):

     3.8395   9.3109   9.6225   9.6242  10.1920  10.3692  31.3871  32.2035
    37.3250  38.8569

          k = 0.0000 0.3636 0.0000 (   613 PWs)   bands (ev):

     4.5976   9.0531   9.8549   9.8549   9.9613  10.4782  31.6871  31.6871
    32.4737  33.9242

          k =-0.0909 0.4545-0.0909 (   618 PWs)   bands (ev):

     5.5617   8.8759   9.7035   9.9828  10.2482  10.5911  27.5371  30.4371
    32.1013  33.3428

          k =-0.1818 0.5455-0.1818 (   619 PWs)   bands (ev):

     6.7899   8.7978   9.4773   9.9641  10.7847  10.9165  23.1975  29.8108
    30.2111  32.7828

          k =-0.2727 0.6364-0.2727 (   623 PWs)   bands (ev):

     7.6888   8.9278   9.4046   9.8762  10.9158  12.1609  19.3438  28.3695
    29.8700  32.6387

          k = 0.6364-0.2727 0.6364 (   625 PWs)   bands (ev):

     7.9469   9.0169   9.5709   9.8053  10.8728  13.8324  16.6339  26.9804
    30.6476  32.9011

          k = 0.5455-0.1818 0.5455 (   624 PWs)   bands (ev):

     7.8757   9.1281   9.4116   9.7962  10.6499  12.8772  18.2600  26.1469
    32.1171  33.6374

          k = 0.4545-0.0909 0.4545 (   622 PWs)   bands (ev):

     7.2228   9.0312   9.3341   9.8623  10.3199  11.6300  21.8819  25.9091
    34.1953  34.9069

          k = 0.3636 0.0000 0.3636 (   620 PWs)   bands (ev):

     5.9755   9.0130   9.5402   9.9837   9.9930  10.9559  25.8045  26.5425
    36.6591  36.7664

          k = 0.0000 0.5455 0.0000 (   632 PWs)   bands (ev):

     6.2397   8.6556   9.8760  10.2640  10.2640  10.6334  28.8908  28.8908
    29.5643  31.2291

          k =-0.0909 0.6364-0.0909 (   625 PWs)   bands (ev):

     7.1050   8.5037   9.8270  10.3536  10.7903  10.9269  25.4726  27.1463
    27.9940  31.7288

          k =-0.1818 0.7273-0.1818 (   632 PWs)   bands (ev):

     7.8019   8.4849   9.6657  10.2838  10.9358  12.4362  21.5354  25.0744
    27.8353  31.8420

          k = 0.7273-0.1818 0.7273 (   631 PWs)   bands (ev):

     8.1892   8.5806   9.5157  10.1873  10.9000  14.6962  18.0965  23.5039
    28.4520  32.0752

          k = 0.6364-0.0909 0.6364 (   628 PWs)   bands (ev):

     8.3694   8.7360   9.2910  10.1068  10.6900  14.8911  18.0195  22.5084
    29.7969  32.6390

          k = 0.5455 0.0000 0.5455 (   628 PWs)   bands (ev):

     8.1223   9.0157   9.0225  10.0290  10.4286  12.9079  21.0500  22.5369
    31.7577  33.6054

          k = 0.0000 0.7273 0.0000 (   628 PWs)   bands (ev):

     7.4006   8.3011  10.7020  10.7020  10.7778  10.9565  24.4629  26.8086
    26.8086  30.4567

          k =-0.0909 0.8182-0.0909 (   631 PWs)   bands (ev):

     7.6612   8.2255  10.4748  10.6789  10.9486  12.6495  22.3245  24.0969
    26.3830  31.0878

          k = 0.8182-0.0909 0.8182 (   628 PWs)   bands (ev):

     7.9432   8.2978  10.0796  10.5712  10.9477  14.9192  20.5243  20.9083
    26.7842  31.4676

          k = 0.7273 0.0000 0.7273 (   626 PWs)   bands (ev):

     8.2677   8.4664   9.6140  10.3935  10.8058  17.1891  17.4751  20.4320
    27.9662  31.9152

          k = 0.0000 0.9091 0.0000 (   628 PWs)   bands (ev):

     7.5919   8.0952  10.8644  10.9992  10.9992  13.3129  20.3699  25.6733
    25.6733  30.0923

          k = 0.9091-0.0000 0.9091 (   634 PWs)   bands (ev):

     7.6887   8.1235  10.7269  10.8067  11.0144  14.4300  19.6458  23.5912
    25.8135  30.8890

          k =-0.1818 0.3636 0.0000 (   616 PWs)   bands (ev):

     4.9600   9.0601   9.6789   9.8661  10.0893  10.5606  28.6579  29.2933
    35.5749  36.0520

          k =-0.2727 0.4545-0.0909 (   624 PWs)   bands (ev):

     6.1939   8.9491   9.5064   9.9084  10.2992  10.9229  24.4253  28.3217
    33.3073  36.1961

          k =-0.3636 0.5455-0.1818 (   624 PWs)   bands (ev):

     7.3552   9.0918   9.3380   9.8151  10.6457  11.6338  20.3805  28.1620
    31.2654  35.6450

          k = 0.5455-0.3636 0.7273 (   627 PWs)   bands (ev):

     7.8014   9.1401   9.6044   9.7427  10.8360  13.0299  17.1445  28.5670
    29.7150  35.2830

          k =-0.1818 0.5455 0.0000 (   622 PWs)   bands (ev):

     6.5439   8.7103   9.5563  10.2644  10.3483  10.9143  26.3725  26.9219
    30.0417  34.3127

          k =-0.2727 0.6364-0.0909 (   621 PWs)   bands (ev):

     7.5632   8.6634   9.3577  10.2163  10.6839  11.8016  22.4539  26.3369
    27.8160  34.7533

          k = 0.6364-0.2727 0.8182 (   627 PWs)   bands (ev):

     8.1244   8.7441   9.3047  10.0959  10.8573  13.5437  18.7912  25.9767
    26.6853  34.8840

          k = 0.5455-0.1818 0.7273 (   630 PWs)   bands (ev):

     8.2826   8.7840   9.3283  10.0172  10.8132  14.9257  16.9833  24.7665
    27.5631  35.3983

          k = 0.4545-0.0909 0.6364 (   625 PWs)   bands (ev):

     8.1222   8.9249   9.0855  10.0565  10.5971  13.0271  19.9456  24.1189
    29.0332  36.4272

          k = 0.3636 0.0000 0.5455 (   626 PWs)   bands (ev):

     7.3248   8.8543   9.2614  10.1246  10.2930  11.6802  23.4762  24.4145
    30.9895  37.8957

          k =-0.1818 0.7273 0.0000 (   631 PWs)   bands (ev):

     7.6337   8.3925   9.8678  10.6699  10.6999  11.9696  24.6397  24.7113
    25.2810  33.1614

          k = 0.7273-0.1818 0.9091 (   630 PWs)   bands (ev):

     8.0181   8.4251   9.6861  10.4980  10.9076  13.8940  21.1476  22.8957
    25.0830  33.9558

          k = 0.6364-0.0909 0.8182 (   628 PWs)   bands (ev):

     8.3264   8.5360   9.4305  10.3220  10.8840  16.4208  17.9055  21.5961
    25.8418  34.4874

          k = 0.5455 0.0000 0.7273 (   629 PWs)   bands (ev):

     8.5544   8.6516   9.1082  10.2070  10.7162  15.0614  19.2091  21.3589
    27.1963  35.3639

          k = 0.8182-0.0909 1.0000 (   630 PWs)   bands (ev):

     7.7794   8.2065  10.3631  10.7460  10.9989  14.2270  20.5794  23.6734
    24.2776  32.6067

          k = 0.7273 0.0000 0.9091 (   628 PWs)   bands (ev):

     8.0111   8.3412   9.9364  10.5614  10.9966  15.9518  19.9315  20.7248
    24.6272  33.7015

          k = 0.6364-0.2727 1.0000 (   632 PWs)   bands (ev):

     8.1874   8.6673   9.1432  10.3770  10.6982  13.3155  21.7464  22.9662
    25.7054  37.6782

          k = 0.5455-0.1818 0.9091 (   633 PWs)   bands (ev):

     8.4616   8.7107   9.0753  10.2513  10.8717  15.5603  18.6660  23.0238
    24.1004  38.1442

          k = 0.6364-0.0909 1.0000 (   635 PWs)   bands (ev):

     8.2004   8.5483   9.4641  10.4208  10.9980  15.9972  20.7872  21.2705
    22.2586  37.0499

          k = 0.5455 0.0000 0.9091 (   625 PWs)   bands (ev):

     8.3631   8.7727   9.1328  10.2866  10.9966  18.1278  18.1594  20.7877
    22.6789  38.3905

     the Fermi energy is    12.5562 ev

!    total energy              =    -122.41022702 Ry
     Harris-Foulkes estimate   =    -122.41022702 Ry
     estimated scf accuracy    <          6.6E-10 Ry

     The total energy is the sum of the following terms:

     one-electron contribution =     -27.59771904 Ry
     hartree contribution      =      30.52349807 Ry
     xc contribution           =     -44.11064500 Ry
     ewald contribution        =     -81.22522856 Ry
     smearing contrib. (-TS)   =      -0.00013249 Ry

     convergence has been achieved in   6 iterations

     Forces acting on atoms (cartesian axes, Ry/au):

     atom    1 type  1   force =     0.00000000    0.00000000    0.00000000

     Total force =     0.000000     Total SCF correction =     0.000000


     Computing stress (Cartesian axis) and pressure

          total   stress  (Ry/bohr**3)                   (kbar)     P=  -57.85
  -0.00039324   0.00000000  -0.00000000        -57.85      0.00     -0.00
   0.00000000  -0.00039324  -0.00000000          0.00    -57.85     -0.00
  -0.00000000  -0.00000000  -0.00039324         -0.00     -0.00    -57.85


     Writing output data file Cu.save/

     init_run     :      0.28s CPU      0.29s WALL (       1 calls)
     electrons    :      2.33s CPU      2.51s WALL (       1 calls)
     forces       :      0.04s CPU      0.04s WALL (       1 calls)
     stress       :      0.13s CPU      0.13s WALL (       1 calls)

     Called by init_run:
     wfcinit      :      0.11s CPU      0.12s WALL (       1 calls)
     potinit      :      0.01s CPU      0.01s WALL (       1 calls)
     hinit0       :      0.16s CPU      0.16s WALL (       1 calls)

     Called by electrons:
     c_bands      :      1.90s CPU      2.05s WALL (       7 calls)
     sum_band     :      0.38s CPU      0.41s WALL (       7 calls)
     v_of_rho     :      0.02s CPU      0.02s WALL (       7 calls)
     newd         :      0.03s CPU      0.03s WALL (       7 calls)
     mix_rho      :      0.00s CPU      0.00s WALL (       7 calls)

     Called by c_bands:
     init_us_2    :      0.08s CPU      0.08s WALL (     952 calls)
     cegterg      :      1.81s CPU      1.95s WALL (     392 calls)

     Called by sum_band:
     sum_band:bec :      0.00s CPU      0.00s WALL (     392 calls)
     addusdens    :      0.03s CPU      0.04s WALL (       7 calls)

     Called by *egterg:
     h_psi        :      1.40s CPU      1.51s WALL (    1232 calls)
     s_psi        :      0.05s CPU      0.05s WALL (    1232 calls)
     g_psi        :      0.00s CPU      0.01s WALL (     784 calls)
     cdiaghg      :      0.21s CPU      0.22s WALL (    1120 calls)

     Called by h_psi:
     h_psi:pot    :      1.39s CPU      1.50s WALL (    1232 calls)
     h_psi:calbec :      0.07s CPU      0.08s WALL (    1232 calls)
     vloc_psi     :      1.26s CPU      1.36s WALL (    1232 calls)
     add_vuspsi   :      0.05s CPU      0.06s WALL (    1232 calls)

     General routines
     calbec       :      0.12s CPU      0.13s WALL (    1904 calls)
     fft          :      0.02s CPU      0.02s WALL (     104 calls)
     ffts         :      0.00s CPU      0.00s WALL (       7 calls)
     fftw         :      1.41s CPU      1.52s WALL (   23746 calls)

     Parallel routines
     fft_scatt_xy :      0.14s CPU      0.15s WALL (   23857 calls)
     fft_scatt_yz :      0.39s CPU      0.41s WALL (   23857 calls)

     PWSCF        :     3.51s CPU         3.76s WALL


   This run was terminated on:  23:28:14  25Mar2024            

=------------------------------------------------------------------------------=
   JOB DONE.
=------------------------------------------------------------------------------=
