
     Program PWSCF v.6.3MaX starts on 25Mar2024 at 23: 6:50 

     This program is part of the open-source Quantum ESPRESSO suite
     for quantum simulation of materials; please cite
         "P. Giannozzi et al., J. Phys.:Condens. Matter 21 395502 (2009);
         "P. Giannozzi et al., J. Phys.:Condens. Matter 29 465901 (2017);
          URL http://www.quantum-espresso.org", 
     in publications or presentations arising from this work. More details at
     http://www.quantum-espresso.org/quote

     Parallel version (MPI), running on     5 processors

     MPI processes distributed on     1 nodes
     R & G space division:  proc/nbgrp/npool/nimage =       5
     Waiting for input...
     Reading input from standard input

     Current dimensions of program PWSCF are:
     Max number of different atomic species (ntypx) = 10
     Max number of k-points (npk) =  40000
     Max angular momentum in pseudopotentials (lmaxx) =  3
               file Cu.pbesol-dn-rrkjus_psl.1.0.0.UPF: wavefunction(s)  3D renormalized

     Subspace diagonalization in iterative solution of the eigenvalue problem:
     a serial algorithm will be used


     Parallelization info
     --------------------
     sticks:   dense  smooth     PW     G-vecs:    dense   smooth      PW
     Min         129     129     39                 2168     2168     361
     Max         130     130     40                 2171     2171     363
     Sum         649     649    199                10849    10849    1807



     bravais-lattice index     =            2
     lattice parameter (alat)  =       6.8300  a.u.
     unit-cell volume          =      79.6530 (a.u.)^3
     number of atoms/cell      =            1
     number of atomic types    =            1
     number of electrons       =        11.00
     number of Kohn-Sham states=           10
     kinetic-energy cutoff     =     100.0000  Ry
     charge density cutoff     =     400.0000  Ry
     convergence threshold     =      1.0E-08
     mixing beta               =       0.7000
     number of iterations used =            8  plain     mixing
     Exchange-correlation      = PBESOL ( 1  4 10  8 0 0)

     celldm(1)=   6.830000  celldm(2)=   0.000000  celldm(3)=   0.000000
     celldm(4)=   0.000000  celldm(5)=   0.000000  celldm(6)=   0.000000

     crystal axes: (cart. coord. in units of alat)
               a(1) = (  -0.500000   0.000000   0.500000 )  
               a(2) = (   0.000000   0.500000   0.500000 )  
               a(3) = (  -0.500000   0.500000   0.000000 )  

     reciprocal axes: (cart. coord. in units 2 pi/alat)
               b(1) = ( -1.000000 -1.000000  1.000000 )  
               b(2) = (  1.000000  1.000000  1.000000 )  
               b(3) = ( -1.000000  1.000000 -1.000000 )  


     PseudoPot. # 1 for Cu read from file:
     /home/lorenzo/pseudos/Cu/Cu.pbesol-dn-rrkjus_psl.1.0.0.UPF
     MD5 check sum: bfa4c7aafbc42e028d5f4ccf7ceed93d
     Pseudo is Ultrasoft + core correction, Zval = 11.0
     Generated using "atomic" code by A. Dal Corso v.6.3
     Using radial grid of 1199 points,  6 beta functions with: 
                l(1) =   0
                l(2) =   0
                l(3) =   1
                l(4) =   1
                l(5) =   2
                l(6) =   2
     Q(r) pseudized with 0 coefficients 


     atomic species   valence    mass     pseudopotential
        Cu            11.00    63.54600     Cu( 1.00)

     48 Sym. Ops., with inversion, found



   Cartesian axes

     site n.     atom                  positions (alat units)
         1           Cu  tau(   1) = (   0.0000000   0.0000000   0.0000000  )

     number of k points=     3  gaussian smearing, width (Ry)=  0.0100
                       cart. coord. in units 2pi/alat
        k(    1) = (   0.0000000   0.0000000   0.0000000), wk =   0.2500000
        k(    2) = (   0.5000000  -0.5000000   0.5000000), wk =   1.0000000
        k(    3) = (   0.0000000  -1.0000000   0.0000000), wk =   0.7500000

     Dense  grid:    10849 G-vectors     FFT dimensions: (  32,  32,  32)

     Estimated max dynamical RAM per process >      10.04 MB

     Estimated total dynamical RAM >      50.18 MB

     Initial potential from superposition of free atoms

     starting charge   10.99979, renormalised to   11.00000
     Starting wfcs are    9 randomized atomic wfcs +    1 random wfcs

     total cpu time spent up to now is        1.1 secs

     Self-consistent Calculation

     iteration #  1     ecut=   100.00 Ry     beta= 0.70
     Davidson diagonalization with overlap
     ethr =  1.00E-02,  avg # of iterations =  3.3

     Threshold (ethr) on eigenvalues was too large:
     Diagonalizing with lowered threshold

     Davidson diagonalization with overlap
     ethr =  6.29E-04,  avg # of iterations =  1.0

     total cpu time spent up to now is        1.2 secs

     total energy              =    -122.22037406 Ry
     Harris-Foulkes estimate   =    -122.27340217 Ry
     estimated scf accuracy    <       0.06931543 Ry

     iteration #  2     ecut=   100.00 Ry     beta= 0.70
     Davidson diagonalization with overlap
     ethr =  6.30E-04,  avg # of iterations =  2.7

     total cpu time spent up to now is        1.3 secs

     total energy              =    -122.22996209 Ry
     Harris-Foulkes estimate   =    -122.33037313 Ry
     estimated scf accuracy    <       0.26702764 Ry

     iteration #  3     ecut=   100.00 Ry     beta= 0.70
     Davidson diagonalization with overlap
     ethr =  6.30E-04,  avg # of iterations =  2.7

     total cpu time spent up to now is        1.3 secs

     total energy              =    -122.25754482 Ry
     Harris-Foulkes estimate   =    -122.26146310 Ry
     estimated scf accuracy    <       0.01158832 Ry

     iteration #  4     ecut=   100.00 Ry     beta= 0.70
     Davidson diagonalization with overlap
     ethr =  1.05E-04,  avg # of iterations =  1.3

     total cpu time spent up to now is        1.4 secs

     total energy              =    -122.25761369 Ry
     Harris-Foulkes estimate   =    -122.26098373 Ry
     estimated scf accuracy    <       0.01741170 Ry

     iteration #  5     ecut=   100.00 Ry     beta= 0.70
     Davidson diagonalization with overlap
     ethr =  1.05E-04,  avg # of iterations =  1.0

     total cpu time spent up to now is        1.4 secs

     total energy              =    -122.25966941 Ry
     Harris-Foulkes estimate   =    -122.26023154 Ry
     estimated scf accuracy    <       0.00516508 Ry

     iteration #  6     ecut=   100.00 Ry     beta= 0.70
     Davidson diagonalization with overlap
     ethr =  4.70E-05,  avg # of iterations =  1.0

     total cpu time spent up to now is        1.5 secs

     total energy              =    -122.25971315 Ry
     Harris-Foulkes estimate   =    -122.25982200 Ry
     estimated scf accuracy    <       0.00058325 Ry

     iteration #  7     ecut=   100.00 Ry     beta= 0.70
     Davidson diagonalization with overlap
     ethr =  5.30E-06,  avg # of iterations =  1.0

     total cpu time spent up to now is        1.6 secs

     total energy              =    -122.25977896 Ry
     Harris-Foulkes estimate   =    -122.25980916 Ry
     estimated scf accuracy    <       0.00036774 Ry

     iteration #  8     ecut=   100.00 Ry     beta= 0.70
     Davidson diagonalization with overlap
     ethr =  3.34E-06,  avg # of iterations =  1.0

     total cpu time spent up to now is        1.6 secs

     total energy              =    -122.25978957 Ry
     Harris-Foulkes estimate   =    -122.25979077 Ry
     estimated scf accuracy    <       0.00001694 Ry

     iteration #  9     ecut=   100.00 Ry     beta= 0.70
     Davidson diagonalization with overlap
     ethr =  1.54E-07,  avg # of iterations =  1.0

     total cpu time spent up to now is        1.7 secs

     total energy              =    -122.25978966 Ry
     Harris-Foulkes estimate   =    -122.25979006 Ry
     estimated scf accuracy    <       0.00000182 Ry

     iteration # 10     ecut=   100.00 Ry     beta= 0.70
     Davidson diagonalization with overlap
     ethr =  1.66E-08,  avg # of iterations =  1.7

     total cpu time spent up to now is        1.8 secs

     total energy              =    -122.25978984 Ry
     Harris-Foulkes estimate   =    -122.25979015 Ry
     estimated scf accuracy    <       0.00000241 Ry

     iteration # 11     ecut=   100.00 Ry     beta= 0.70
     Davidson diagonalization with overlap
     ethr =  1.66E-08,  avg # of iterations =  1.0

     total cpu time spent up to now is        1.8 secs

     total energy              =    -122.25979001 Ry
     Harris-Foulkes estimate   =    -122.25979002 Ry
     estimated scf accuracy    <       0.00000010 Ry

     iteration # 12     ecut=   100.00 Ry     beta= 0.70
     Davidson diagonalization with overlap
     ethr =  8.79E-10,  avg # of iterations =  1.0

     total cpu time spent up to now is        1.9 secs

     End of self-consistent calculation

          k = 0.0000 0.0000 0.0000 (  1363 PWs)   bands (ev):

     3.0580   9.7640   9.7640   9.7640  10.6383  10.6383  35.3362  37.7993
    37.7993  37.7993

          k = 0.5000-0.5000 0.5000 (  1350 PWs)   bands (ev):

     7.5482   9.7367   9.7367  11.2200  11.2200  11.4205  16.3881  33.7795
    34.5496  34.5496

          k = 0.0000-1.0000 0.0000 (  1362 PWs)   bands (ev):

     7.8081   8.3007  11.2104  11.3622  11.3622  13.9134  19.7159  25.5531
    25.5531  30.1414

     the Fermi energy is    11.5150 ev

!    total energy              =    -122.25979001 Ry
     Harris-Foulkes estimate   =    -122.25979002 Ry
     estimated scf accuracy    <          2.3E-09 Ry

     The total energy is the sum of the following terms:

     one-electron contribution =     -27.59348216 Ry
     hartree contribution      =      30.73121516 Ry
     xc contribution           =     -44.16928824 Ry
     ewald contribution        =     -81.22522855 Ry
     smearing contrib. (-TS)   =      -0.00300623 Ry

     convergence has been achieved in  12 iterations

     Forces acting on atoms (cartesian axes, Ry/au):

     atom    1 type  1   force =     0.00000000    0.00000000    0.00000000

     Total force =     0.000000     Total SCF correction =     0.000000


     Computing stress (Cartesian axis) and pressure

          total   stress  (Ry/bohr**3)                   (kbar)     P=  191.30
   0.00130040  -0.00000000  -0.00000000        191.30     -0.00     -0.00
   0.00000000   0.00130040   0.00000000          0.00    191.30      0.00
  -0.00000000   0.00000000   0.00130040         -0.00      0.00    191.30


     Writing output data file Cu.save/

     init_run     :      0.31s CPU      0.32s WALL (       1 calls)
     electrons    :      0.78s CPU      0.83s WALL (       1 calls)
     forces       :      0.04s CPU      0.04s WALL (       1 calls)
     stress       :      0.10s CPU      0.10s WALL (       1 calls)

     Called by init_run:
     wfcinit      :      0.01s CPU      0.02s WALL (       1 calls)
     potinit      :      0.02s CPU      0.02s WALL (       1 calls)
     hinit0       :      0.26s CPU      0.26s WALL (       1 calls)

     Called by electrons:
     c_bands      :      0.35s CPU      0.37s WALL (      13 calls)
     sum_band     :      0.21s CPU      0.22s WALL (      13 calls)
     v_of_rho     :      0.09s CPU      0.09s WALL (      13 calls)
     newd         :      0.13s CPU      0.14s WALL (      13 calls)
     mix_rho      :      0.01s CPU      0.01s WALL (      13 calls)

     Called by c_bands:
     init_us_2    :      0.02s CPU      0.02s WALL (      87 calls)
     cegterg      :      0.33s CPU      0.35s WALL (      39 calls)

     Called by sum_band:
     sum_band:bec :      0.00s CPU      0.00s WALL (      39 calls)
     addusdens    :      0.13s CPU      0.13s WALL (      13 calls)

     Called by *egterg:
     h_psi        :      0.27s CPU      0.29s WALL (     101 calls)
     s_psi        :      0.01s CPU      0.01s WALL (     101 calls)
     g_psi        :      0.00s CPU      0.00s WALL (      59 calls)
     cdiaghg      :      0.02s CPU      0.02s WALL (      95 calls)

     Called by h_psi:
     h_psi:pot    :      0.26s CPU      0.29s WALL (     101 calls)
     h_psi:calbec :      0.02s CPU      0.02s WALL (     101 calls)
     vloc_psi     :      0.24s CPU      0.26s WALL (     101 calls)
     add_vuspsi   :      0.01s CPU      0.01s WALL (     101 calls)

     General routines
     calbec       :      0.02s CPU      0.02s WALL (     155 calls)
     fft          :      0.05s CPU      0.05s WALL (     170 calls)
     ffts         :      0.00s CPU      0.00s WALL (      13 calls)
     fftw         :      0.27s CPU      0.29s WALL (    2146 calls)

     Parallel routines
     fft_scatt_xy :      0.03s CPU      0.03s WALL (    2329 calls)
     fft_scatt_yz :      0.11s CPU      0.12s WALL (    2329 calls)

     PWSCF        :     1.96s CPU         2.06s WALL


   This run was terminated on:  23: 6:52  25Mar2024            

=------------------------------------------------------------------------------=
   JOB DONE.
=------------------------------------------------------------------------------=
