
     Program PWSCF v.6.3MaX starts on 25Mar2024 at 23:24:49 

     This program is part of the open-source Quantum ESPRESSO suite
     for quantum simulation of materials; please cite
         "P. Giannozzi et al., J. Phys.:Condens. Matter 21 395502 (2009);
         "P. Giannozzi et al., J. Phys.:Condens. Matter 29 465901 (2017);
          URL http://www.quantum-espresso.org", 
     in publications or presentations arising from this work. More details at
     http://www.quantum-espresso.org/quote

     Parallel version (MPI), running on     5 processors

     MPI processes distributed on     1 nodes
     R & G space division:  proc/nbgrp/npool/nimage =       5
     Waiting for input...
     Reading input from standard input

     Current dimensions of program PWSCF are:
     Max number of different atomic species (ntypx) = 10
     Max number of k-points (npk) =  40000
     Max angular momentum in pseudopotentials (lmaxx) =  3
               file Cu.pbe-dn-rrkjus_psl.1.0.0.UPF: wavefunction(s)  3D renormalized

     Subspace diagonalization in iterative solution of the eigenvalue problem:
     a serial algorithm will be used


     Parallelization info
     --------------------
     sticks:   dense  smooth     PW     G-vecs:    dense   smooth      PW
     Min          62      62     21                  765      765     144
     Max          63      63     22                  770      770     146
     Sum         313     313    109                 3839     3839     725



     bravais-lattice index     =            2
     lattice parameter (alat)  =       6.8300  a.u.
     unit-cell volume          =      79.6530 (a.u.)^3
     number of atoms/cell      =            1
     number of atomic types    =            1
     number of electrons       =        11.00
     number of Kohn-Sham states=           10
     kinetic-energy cutoff     =      50.0000  Ry
     charge density cutoff     =     200.0000  Ry
     convergence threshold     =      1.0E-08
     mixing beta               =       0.7000
     number of iterations used =            8  plain     mixing
     Exchange-correlation      = PBE ( 1  4  3  4 0 0)

     celldm(1)=   6.830000  celldm(2)=   0.000000  celldm(3)=   0.000000
     celldm(4)=   0.000000  celldm(5)=   0.000000  celldm(6)=   0.000000

     crystal axes: (cart. coord. in units of alat)
               a(1) = (  -0.500000   0.000000   0.500000 )  
               a(2) = (   0.000000   0.500000   0.500000 )  
               a(3) = (  -0.500000   0.500000   0.000000 )  

     reciprocal axes: (cart. coord. in units 2 pi/alat)
               b(1) = ( -1.000000 -1.000000  1.000000 )  
               b(2) = (  1.000000  1.000000  1.000000 )  
               b(3) = ( -1.000000  1.000000 -1.000000 )  


     PseudoPot. # 1 for Cu read from file:
     /home/lorenzo/pseudos/Cu/Cu.pbe-dn-rrkjus_psl.1.0.0.UPF
     MD5 check sum: ba3d6c84e19846e79d48cdc68ff7152b
     Pseudo is Ultrasoft + core correction, Zval = 11.0
     Generated using "atomic" code by A. Dal Corso v.6.3
     Using radial grid of 1199 points,  6 beta functions with: 
                l(1) =   0
                l(2) =   0
                l(3) =   1
                l(4) =   1
                l(5) =   2
                l(6) =   2
     Q(r) pseudized with 0 coefficients 


     atomic species   valence    mass     pseudopotential
        Cu            11.00    63.54600     Cu( 1.00)

     48 Sym. Ops., with inversion, found



   Cartesian axes

     site n.     atom                  positions (alat units)
         1           Cu  tau(   1) = (   0.0000000   0.0000000   0.0000000  )

     number of k points=    20  gaussian smearing, width (Ry)=  0.0100
                       cart. coord. in units 2pi/alat
        k(    1) = (   0.0000000   0.0000000   0.0000000), wk =   0.0058309
        k(    2) = (  -0.1428571   0.1428571  -0.1428571), wk =   0.0466472
        k(    3) = (  -0.2857143   0.2857143  -0.2857143), wk =   0.0466472
        k(    4) = (  -0.4285714   0.4285714  -0.4285714), wk =   0.0466472
        k(    5) = (   0.0000000   0.2857143   0.0000000), wk =   0.0349854
        k(    6) = (  -0.1428571   0.4285714  -0.1428571), wk =   0.1399417
        k(    7) = (  -0.2857143   0.5714286  -0.2857143), wk =   0.1399417
        k(    8) = (   0.5714286  -0.2857143   0.5714286), wk =   0.1399417
        k(    9) = (   0.4285714  -0.1428571   0.4285714), wk =   0.1399417
        k(   10) = (   0.2857143  -0.0000000   0.2857143), wk =   0.0699708
        k(   11) = (   0.0000000   0.5714286   0.0000000), wk =   0.0349854
        k(   12) = (  -0.1428571   0.7142857  -0.1428571), wk =   0.1399417
        k(   13) = (   0.7142857  -0.1428571   0.7142857), wk =   0.1399417
        k(   14) = (   0.5714286   0.0000000   0.5714286), wk =   0.0699708
        k(   15) = (   0.0000000   0.8571429   0.0000000), wk =   0.0349854
        k(   16) = (   0.8571429  -0.0000000   0.8571429), wk =   0.0699708
        k(   17) = (  -0.2857143   0.5714286   0.0000000), wk =   0.1399417
        k(   18) = (   0.5714286  -0.2857143   0.8571429), wk =   0.2798834
        k(   19) = (   0.7142857  -0.1428571   1.0000000), wk =   0.1399417
        k(   20) = (   0.5714286   0.0000000   0.8571429), wk =   0.1399417

     Dense  grid:     3839 G-vectors     FFT dimensions: (  24,  24,  24)

     Estimated max dynamical RAM per process >       4.44 MB

     Estimated total dynamical RAM >      22.22 MB

     Check: negative/imaginary core charge=   -0.000002    0.000000

     Initial potential from superposition of free atoms

     starting charge   10.99977, renormalised to   11.00000
     Starting wfcs are    9 randomized atomic wfcs +    1 random wfcs

     total cpu time spent up to now is        1.0 secs

     Self-consistent Calculation

     iteration #  1     ecut=    50.00 Ry     beta= 0.70
     Davidson diagonalization with overlap
     ethr =  1.00E-02,  avg # of iterations =  3.6

     Threshold (ethr) on eigenvalues was too large:
     Diagonalizing with lowered threshold

     Davidson diagonalization with overlap
     ethr =  5.38E-04,  avg # of iterations =  1.2

     total cpu time spent up to now is        1.3 secs

     total energy              =    -122.71401212 Ry
     Harris-Foulkes estimate   =    -122.76013653 Ry
     estimated scf accuracy    <       0.05891377 Ry

     iteration #  2     ecut=    50.00 Ry     beta= 0.70
     Davidson diagonalization with overlap
     ethr =  5.36E-04,  avg # of iterations =  2.1

     total cpu time spent up to now is        1.4 secs

     total energy              =    -122.71531202 Ry
     Harris-Foulkes estimate   =    -122.79629285 Ry
     estimated scf accuracy    <       0.20938664 Ry

     iteration #  3     ecut=    50.00 Ry     beta= 0.70
     Davidson diagonalization with overlap
     ethr =  5.36E-04,  avg # of iterations =  2.0

     total cpu time spent up to now is        1.6 secs

     total energy              =    -122.74867093 Ry
     Harris-Foulkes estimate   =    -122.74868395 Ry
     estimated scf accuracy    <       0.00006194 Ry

     iteration #  4     ecut=    50.00 Ry     beta= 0.70
     Davidson diagonalization with overlap
     ethr =  5.63E-07,  avg # of iterations =  2.6

     total cpu time spent up to now is        1.7 secs

     total energy              =    -122.74872726 Ry
     Harris-Foulkes estimate   =    -122.74873067 Ry
     estimated scf accuracy    <       0.00001264 Ry

     iteration #  5     ecut=    50.00 Ry     beta= 0.70
     Davidson diagonalization with overlap
     ethr =  1.15E-07,  avg # of iterations =  1.1

     total cpu time spent up to now is        1.9 secs

     total energy              =    -122.74872936 Ry
     Harris-Foulkes estimate   =    -122.74872944 Ry
     estimated scf accuracy    <       0.00000022 Ry

     iteration #  6     ecut=    50.00 Ry     beta= 0.70
     Davidson diagonalization with overlap
     ethr =  1.98E-09,  avg # of iterations =  2.2

     total cpu time spent up to now is        2.0 secs

     End of self-consistent calculation

          k = 0.0000 0.0000 0.0000 (   531 PWs)   bands (ev):

     3.2784   9.7027   9.7027   9.7027  10.5304  10.5304  35.5982  37.9966
    37.9966  37.9966

          k =-0.1429 0.1429-0.1429 (   489 PWs)   bands (ev):

     4.0103   9.5636   9.8188   9.8188  10.5007  10.5007  30.5967  36.0566
    36.5125  36.5125

          k =-0.2857 0.2857-0.2857 (   483 PWs)   bands (ev):

     5.9568   9.4745   9.8324   9.8324  10.7056  10.7056  23.4281  35.0920
    35.2511  35.2511

          k =-0.4286 0.4286-0.4286 (   471 PWs)   bands (ev):

     7.4838   9.6906   9.6906  10.8799  11.0538  11.0538  17.6897  34.1445
    34.7981  34.7981

          k = 0.0000 0.2857 0.0000 (   487 PWs)   bands (ev):

     4.2507   9.4250   9.9364   9.9364  10.2896  10.6341  33.2976  33.2976
    33.3766  35.2915

          k =-0.1429 0.4286-0.1429 (   482 PWs)   bands (ev):

     5.8016   9.1802   9.8514  10.0827  10.5557  10.8139  26.2110  31.4080
    32.9203  34.6107

          k =-0.2857 0.5714-0.2857 (   473 PWs)   bands (ev):

     7.6247   9.3425   9.6463   9.9720  11.0973  11.8068  19.7952  30.5714
    31.0198  33.2982

          k = 0.5714-0.2857 0.5714 (   469 PWs)   bands (ev):

     7.9798   9.4177   9.8856   9.9945  11.0367  13.3448  16.8388  28.5888
    32.3167  33.6960

          k = 0.4286-0.1429 0.4286 (   477 PWs)   bands (ev):

     7.1697   9.3457   9.6362   9.9759  10.5932  11.5649  21.8006  27.9735
    35.2501  35.4393

          k = 0.2857-0.0000 0.2857 (   481 PWs)   bands (ev):

     5.1665   9.3496   9.8630  10.0286  10.2800  10.8130  28.3414  29.0329
    38.5458  38.8118

          k = 0.0000 0.5714 0.0000 (   472 PWs)   bands (ev):

     6.6978   8.8206  10.1434  10.5467  10.5467  10.8685  28.7904  28.7904
    29.0473  31.3146

          k =-0.1429 0.7143-0.1429 (   468 PWs)   bands (ev):

     7.8566   8.6547  10.0326  10.5859  11.1252  12.1575  23.2130  25.4243
    27.8105  31.9316

          k = 0.7143-0.1429 0.7143 (   466 PWs)   bands (ev):

     8.4787   8.7848   9.7271  10.4329  11.0768  15.6966  17.8156  22.9415
    28.7319  32.3174

          k = 0.5714 0.0000 0.5714 (   478 PWs)   bands (ev):

     8.4987   9.1468   9.2823  10.2777  10.7072  13.6258  20.6748  22.3534
    31.3826  33.5103

          k = 0.0000 0.8571 0.0000 (   468 PWs)   bands (ev):

     7.7991   8.3565  11.0600  11.1564  11.1564  12.8791  21.5611  26.1340
    26.1340  30.3817

          k = 0.8571-0.0000 0.8571 (   466 PWs)   bands (ev):

     8.0355   8.4225  10.6169  10.9259  11.1920  15.2942  19.9765  22.0787
    26.4742  31.4531

          k =-0.2857 0.5714 0.0000 (   473 PWs)   bands (ev):

     7.3821   8.9665   9.5587  10.4954  10.5520  11.6573  24.6183  25.3988
    29.9580  36.8775

          k = 0.5714-0.2857 0.8571 (   482 PWs)   bands (ev):

     8.4644   9.0111   9.4050  10.3111  10.9968  14.0285  18.9527  25.2738
    26.9853  37.0111

          k = 0.7143-0.1429 1.0000 (   473 PWs)   bands (ev):

     8.2411   8.6240   9.9560  10.7838  11.1543  14.6758  22.1893  22.4251
    23.4644  35.3766

          k = 0.5714 0.0000 0.8571 (   471 PWs)   bands (ev):

     8.6072   8.8886   9.4486  10.5099  11.1517  17.7440  18.2540  20.9759
    24.3605  37.0210

     the Fermi energy is    12.8588 ev

!    total energy              =    -122.74872941 Ry
     Harris-Foulkes estimate   =    -122.74872941 Ry
     estimated scf accuracy    <          9.2E-10 Ry

     The total energy is the sum of the following terms:

     one-electron contribution =     -27.52147269 Ry
     hartree contribution      =      30.62910117 Ry
     xc contribution           =     -44.63103277 Ry
     ewald contribution        =     -81.22522859 Ry
     smearing contrib. (-TS)   =      -0.00009653 Ry

     convergence has been achieved in   6 iterations

     Forces acting on atoms (cartesian axes, Ry/au):

     atom    1 type  1   force =     0.00000000    0.00000000    0.00000000

     Total force =     0.000000     Total SCF correction =     0.000000


     Computing stress (Cartesian axis) and pressure

          total   stress  (Ry/bohr**3)                   (kbar)     P=   11.96
   0.00008131   0.00000000  -0.00000000         11.96      0.00     -0.00
   0.00000000   0.00008131  -0.00000000          0.00     11.96     -0.00
  -0.00000000  -0.00000000   0.00008131         -0.00     -0.00     11.96


     Writing output data file Cu.save/

     init_run     :      0.18s CPU      0.18s WALL (       1 calls)
     electrons    :      0.98s CPU      1.05s WALL (       1 calls)
     forces       :      0.02s CPU      0.02s WALL (       1 calls)
     stress       :      0.07s CPU      0.07s WALL (       1 calls)

     Called by init_run:
     wfcinit      :      0.03s CPU      0.04s WALL (       1 calls)
     potinit      :      0.01s CPU      0.01s WALL (       1 calls)
     hinit0       :      0.13s CPU      0.13s WALL (       1 calls)

     Called by electrons:
     c_bands      :      0.76s CPU      0.81s WALL (       7 calls)
     sum_band     :      0.17s CPU      0.18s WALL (       7 calls)
     v_of_rho     :      0.02s CPU      0.02s WALL (       7 calls)
     newd         :      0.03s CPU      0.03s WALL (       7 calls)
     mix_rho      :      0.00s CPU      0.00s WALL (       7 calls)

     Called by c_bands:
     init_us_2    :      0.02s CPU      0.02s WALL (     340 calls)
     cegterg      :      0.72s CPU      0.77s WALL (     140 calls)

     Called by sum_band:
     sum_band:bec :      0.00s CPU      0.00s WALL (     140 calls)
     addusdens    :      0.03s CPU      0.03s WALL (       7 calls)

     Called by *egterg:
     h_psi        :      0.56s CPU      0.60s WALL (     459 calls)
     s_psi        :      0.01s CPU      0.02s WALL (     459 calls)
     g_psi        :      0.00s CPU      0.00s WALL (     299 calls)
     cdiaghg      :      0.08s CPU      0.09s WALL (     419 calls)

     Called by h_psi:
     h_psi:pot    :      0.56s CPU      0.59s WALL (     459 calls)
     h_psi:calbec :      0.03s CPU      0.03s WALL (     459 calls)
     vloc_psi     :      0.51s CPU      0.55s WALL (     459 calls)
     add_vuspsi   :      0.02s CPU      0.02s WALL (     459 calls)

     General routines
     calbec       :      0.04s CPU      0.05s WALL (     699 calls)
     fft          :      0.01s CPU      0.02s WALL (     104 calls)
     ffts         :      0.00s CPU      0.00s WALL (       7 calls)
     fftw         :      0.58s CPU      0.62s WALL (    8520 calls)

     Parallel routines
     fft_scatt_xy :      0.05s CPU      0.05s WALL (    8631 calls)
     fft_scatt_yz :      0.21s CPU      0.22s WALL (    8631 calls)

     PWSCF        :     2.03s CPU         2.15s WALL


   This run was terminated on:  23:24:51  25Mar2024            

=------------------------------------------------------------------------------=
   JOB DONE.
=------------------------------------------------------------------------------=
