
     Program PWSCF v.6.3MaX starts on 25Mar2024 at 23:10:24 

     This program is part of the open-source Quantum ESPRESSO suite
     for quantum simulation of materials; please cite
         "P. Giannozzi et al., J. Phys.:Condens. Matter 21 395502 (2009);
         "P. Giannozzi et al., J. Phys.:Condens. Matter 29 465901 (2017);
          URL http://www.quantum-espresso.org", 
     in publications or presentations arising from this work. More details at
     http://www.quantum-espresso.org/quote

     Parallel version (MPI), running on     5 processors

     MPI processes distributed on     1 nodes
     R & G space division:  proc/nbgrp/npool/nimage =       5
     Waiting for input...
     Reading input from standard input

     Current dimensions of program PWSCF are:
     Max number of different atomic species (ntypx) = 10
     Max number of k-points (npk) =  40000
     Max angular momentum in pseudopotentials (lmaxx) =  3
               file Cu.pbe-dn-kjpaw_psl.1.0.0.UPF: wavefunction(s)  4S 3D renormalized

     Subspace diagonalization in iterative solution of the eigenvalue problem:
     a serial algorithm will be used


     Parallelization info
     --------------------
     sticks:   dense  smooth     PW     G-vecs:    dense   smooth      PW
     Min          18      18      7                  121      121      33
     Max          19      19      8                  123      123      35
     Sum          91      91     37                  609      609     169



     bravais-lattice index     =            2
     lattice parameter (alat)  =       6.8300  a.u.
     unit-cell volume          =      79.6530 (a.u.)^3
     number of atoms/cell      =            1
     number of atomic types    =            1
     number of electrons       =        11.00
     number of Kohn-Sham states=           10
     kinetic-energy cutoff     =      15.0000  Ry
     charge density cutoff     =      60.0000  Ry
     convergence threshold     =      1.0E-08
     mixing beta               =       0.7000
     number of iterations used =            8  plain     mixing
     Exchange-correlation      = SLA PW PBX PBC ( 1  4  3  4 0 0)

     celldm(1)=   6.830000  celldm(2)=   0.000000  celldm(3)=   0.000000
     celldm(4)=   0.000000  celldm(5)=   0.000000  celldm(6)=   0.000000

     crystal axes: (cart. coord. in units of alat)
               a(1) = (  -0.500000   0.000000   0.500000 )  
               a(2) = (   0.000000   0.500000   0.500000 )  
               a(3) = (  -0.500000   0.500000   0.000000 )  

     reciprocal axes: (cart. coord. in units 2 pi/alat)
               b(1) = ( -1.000000 -1.000000  1.000000 )  
               b(2) = (  1.000000  1.000000  1.000000 )  
               b(3) = ( -1.000000  1.000000 -1.000000 )  


     PseudoPot. # 1 for Cu read from file:
     /home/lorenzo/pseudos/Cu/Cu.pbe-dn-kjpaw_psl.1.0.0.UPF
     MD5 check sum: cfffd1f38ee05704b3e17f46f1730a6f
     Pseudo is Projector augmented-wave + core cor, Zval = 11.0
     Generated using "atomic" code by A. Dal Corso v.6.3
     Shape of augmentation charge: PSQ
     Using radial grid of 1199 points,  6 beta functions with: 
                l(1) =   0
                l(2) =   0
                l(3) =   1
                l(4) =   1
                l(5) =   2
                l(6) =   2
     Q(r) pseudized with 0 coefficients 


     atomic species   valence    mass     pseudopotential
        Cu            11.00    63.54600     Cu( 1.00)

     48 Sym. Ops., with inversion, found



   Cartesian axes

     site n.     atom                  positions (alat units)
         1           Cu  tau(   1) = (   0.0000000   0.0000000   0.0000000  )

     number of k points=    56  gaussian smearing, width (Ry)=  0.0100
                       cart. coord. in units 2pi/alat
        k(    1) = (   0.0000000   0.0000000   0.0000000), wk =   0.0015026
        k(    2) = (  -0.0909091   0.0909091  -0.0909091), wk =   0.0120210
        k(    3) = (  -0.1818182   0.1818182  -0.1818182), wk =   0.0120210
        k(    4) = (  -0.2727273   0.2727273  -0.2727273), wk =   0.0120210
        k(    5) = (  -0.3636364   0.3636364  -0.3636364), wk =   0.0120210
        k(    6) = (  -0.4545455   0.4545455  -0.4545455), wk =   0.0120210
        k(    7) = (   0.0000000   0.1818182   0.0000000), wk =   0.0090158
        k(    8) = (  -0.0909091   0.2727273  -0.0909091), wk =   0.0360631
        k(    9) = (  -0.1818182   0.3636364  -0.1818182), wk =   0.0360631
        k(   10) = (  -0.2727273   0.4545455  -0.2727273), wk =   0.0360631
        k(   11) = (  -0.3636364   0.5454545  -0.3636364), wk =   0.0360631
        k(   12) = (   0.5454545  -0.3636364   0.5454545), wk =   0.0360631
        k(   13) = (   0.4545455  -0.2727273   0.4545455), wk =   0.0360631
        k(   14) = (   0.3636364  -0.1818182   0.3636364), wk =   0.0360631
        k(   15) = (   0.2727273  -0.0909091   0.2727273), wk =   0.0360631
        k(   16) = (   0.1818182  -0.0000000   0.1818182), wk =   0.0180316
        k(   17) = (   0.0000000   0.3636364   0.0000000), wk =   0.0090158
        k(   18) = (  -0.0909091   0.4545455  -0.0909091), wk =   0.0360631
        k(   19) = (  -0.1818182   0.5454545  -0.1818182), wk =   0.0360631
        k(   20) = (  -0.2727273   0.6363636  -0.2727273), wk =   0.0360631
        k(   21) = (   0.6363636  -0.2727273   0.6363636), wk =   0.0360631
        k(   22) = (   0.5454545  -0.1818182   0.5454545), wk =   0.0360631
        k(   23) = (   0.4545455  -0.0909091   0.4545455), wk =   0.0360631
        k(   24) = (   0.3636364   0.0000000   0.3636364), wk =   0.0180316
        k(   25) = (   0.0000000   0.5454545   0.0000000), wk =   0.0090158
        k(   26) = (  -0.0909091   0.6363636  -0.0909091), wk =   0.0360631
        k(   27) = (  -0.1818182   0.7272727  -0.1818182), wk =   0.0360631
        k(   28) = (   0.7272727  -0.1818182   0.7272727), wk =   0.0360631
        k(   29) = (   0.6363636  -0.0909091   0.6363636), wk =   0.0360631
        k(   30) = (   0.5454545   0.0000000   0.5454545), wk =   0.0180316
        k(   31) = (   0.0000000   0.7272727   0.0000000), wk =   0.0090158
        k(   32) = (  -0.0909091   0.8181818  -0.0909091), wk =   0.0360631
        k(   33) = (   0.8181818  -0.0909091   0.8181818), wk =   0.0360631
        k(   34) = (   0.7272727   0.0000000   0.7272727), wk =   0.0180316
        k(   35) = (   0.0000000   0.9090909   0.0000000), wk =   0.0090158
        k(   36) = (   0.9090909  -0.0000000   0.9090909), wk =   0.0180316
        k(   37) = (  -0.1818182   0.3636364   0.0000000), wk =   0.0360631
        k(   38) = (  -0.2727273   0.4545455  -0.0909091), wk =   0.0721262
        k(   39) = (  -0.3636364   0.5454545  -0.1818182), wk =   0.0721262
        k(   40) = (   0.5454545  -0.3636364   0.7272727), wk =   0.0721262
        k(   41) = (  -0.1818182   0.5454545   0.0000000), wk =   0.0360631
        k(   42) = (  -0.2727273   0.6363636  -0.0909091), wk =   0.0721262
        k(   43) = (   0.6363636  -0.2727273   0.8181818), wk =   0.0721262
        k(   44) = (   0.5454545  -0.1818182   0.7272727), wk =   0.0721262
        k(   45) = (   0.4545455  -0.0909091   0.6363636), wk =   0.0721262
        k(   46) = (   0.3636364   0.0000000   0.5454545), wk =   0.0360631
        k(   47) = (  -0.1818182   0.7272727   0.0000000), wk =   0.0360631
        k(   48) = (   0.7272727  -0.1818182   0.9090909), wk =   0.0721262
        k(   49) = (   0.6363636  -0.0909091   0.8181818), wk =   0.0721262
        k(   50) = (   0.5454545   0.0000000   0.7272727), wk =   0.0360631
        k(   51) = (   0.8181818  -0.0909091   1.0000000), wk =   0.0360631
        k(   52) = (   0.7272727   0.0000000   0.9090909), wk =   0.0360631
        k(   53) = (   0.6363636  -0.2727273   1.0000000), wk =   0.0360631
        k(   54) = (   0.5454545  -0.1818182   0.9090909), wk =   0.0721262
        k(   55) = (   0.6363636  -0.0909091   1.0000000), wk =   0.0360631
        k(   56) = (   0.5454545   0.0000000   0.9090909), wk =   0.0360631

     Dense  grid:      609 G-vectors     FFT dimensions: (  12,  12,  12)

     Estimated max dynamical RAM per process >       1.27 MB

     Estimated total dynamical RAM >       6.35 MB

     Check: negative/imaginary core charge=   -0.001143    0.000000

     Initial potential from superposition of free atoms

     starting charge   10.99977, renormalised to   11.00000
     Starting wfcs are    9 randomized atomic wfcs +    1 random wfcs
     Checking if some PAW data can be deallocated... 

     total cpu time spent up to now is        1.1 secs

     Self-consistent Calculation

     iteration #  1     ecut=    15.00 Ry     beta= 0.70
     Davidson diagonalization with overlap
     ethr =  1.00E-02,  avg # of iterations =  3.7

     total cpu time spent up to now is        1.5 secs

     total energy              =    -208.13940046 Ry
     Harris-Foulkes estimate   =    -211.05281888 Ry
     estimated scf accuracy    <       3.58060371 Ry

     iteration #  2     ecut=    15.00 Ry     beta= 0.70
     Davidson diagonalization with overlap
     ethr =  1.00E-02,  avg # of iterations =  2.1

     total cpu time spent up to now is        1.8 secs

     total energy              =    -209.84242116 Ry
     Harris-Foulkes estimate   =    -210.68487259 Ry
     estimated scf accuracy    <       1.43607964 Ry

     iteration #  3     ecut=    15.00 Ry     beta= 0.70
     Davidson diagonalization with overlap
     ethr =  1.00E-02,  avg # of iterations =  1.6

     total cpu time spent up to now is        2.0 secs

     total energy              =    -209.91808090 Ry
     Harris-Foulkes estimate   =    -209.99524147 Ry
     estimated scf accuracy    <       0.10927479 Ry

     iteration #  4     ecut=    15.00 Ry     beta= 0.70
     Davidson diagonalization with overlap
     ethr =  9.93E-04,  avg # of iterations =  2.2

     total cpu time spent up to now is        2.3 secs

     total energy              =    -209.93380151 Ry
     Harris-Foulkes estimate   =    -209.99970430 Ry
     estimated scf accuracy    <       0.11342083 Ry

     iteration #  5     ecut=    15.00 Ry     beta= 0.70
     Davidson diagonalization with overlap
     ethr =  9.93E-04,  avg # of iterations =  1.9

     total cpu time spent up to now is        2.5 secs

     total energy              =    -209.95894662 Ry
     Harris-Foulkes estimate   =    -209.95895212 Ry
     estimated scf accuracy    <       0.00004387 Ry

     iteration #  6     ecut=    15.00 Ry     beta= 0.70
     Davidson diagonalization with overlap
     ethr =  3.99E-07,  avg # of iterations =  3.1

     total cpu time spent up to now is        2.8 secs

     total energy              =    -209.95896513 Ry
     Harris-Foulkes estimate   =    -209.95917742 Ry
     estimated scf accuracy    <       0.00034491 Ry

     iteration #  7     ecut=    15.00 Ry     beta= 0.70
     Davidson diagonalization with overlap
     ethr =  3.99E-07,  avg # of iterations =  2.1

     total cpu time spent up to now is        3.0 secs

     total energy              =    -209.95903911 Ry
     Harris-Foulkes estimate   =    -209.95903904 Ry
     estimated scf accuracy    <       0.00000006 Ry

     iteration #  8     ecut=    15.00 Ry     beta= 0.70
     Davidson diagonalization with overlap
     ethr =  5.68E-10,  avg # of iterations =  1.6

     total cpu time spent up to now is        3.3 secs

     total energy              =    -209.95903910 Ry
     Harris-Foulkes estimate   =    -209.95903911 Ry
     estimated scf accuracy    <       0.00000002 Ry

     iteration #  9     ecut=    15.00 Ry     beta= 0.70
     Davidson diagonalization with overlap
     ethr =  2.13E-10,  avg # of iterations =  2.0

     total cpu time spent up to now is        3.5 secs

     End of self-consistent calculation

          k = 0.0000 0.0000 0.0000 (    65 PWs)   bands (ev):

     3.7333   7.8908   7.8908   9.0022   9.0022   9.0022  37.2266  37.3751
    37.3751  37.3751

          k =-0.0909 0.0909-0.0909 (    65 PWs)   bands (ev):

     4.0267   7.9215   7.9215   8.9838   9.1397   9.1397  34.7723  37.2351
    37.2351  37.4791

          k =-0.1818 0.1818-0.1818 (    71 PWs)   bands (ev):

     4.8172   7.2365   7.2365   7.3165   8.2827   8.2827  29.7422  36.5972
    36.5972  37.5749

          k =-0.2727 0.2727-0.2727 (    74 PWs)   bands (ev):

     5.4922   6.1785   6.1785   7.5441   8.1580   8.1580  24.7862  35.5453
    35.5453  36.8865

          k =-0.3636 0.3636-0.3636 (    74 PWs)   bands (ev):

     5.7084   6.2857   6.2857   7.9773   7.9773   9.4000  20.4934  34.6135
    34.6135  35.9780

          k =-0.4545 0.4545-0.4545 (    76 PWs)   bands (ev):

     5.3106   5.8667   5.8667   7.8702   7.8702  11.5988  16.8633  34.0460
    34.0460  35.4047

          k = 0.0000 0.1818 0.0000 (    65 PWs)   bands (ev):

     4.1221   7.8593   8.0275   8.9068   9.2113   9.2113  35.9762  35.9762
    36.4062  37.1744

          k =-0.0909 0.2727-0.0909 (    71 PWs)   bands (ev):

     4.7245   6.7658   6.9687   7.4770   8.3486   8.7229  31.5042  34.4741
    36.3628  38.3847

          k =-0.1818 0.3636-0.1818 (    73 PWs)   bands (ev):

     5.4734   5.6696   7.1244   7.4764   8.2426   8.5747  26.6093  33.4055
    35.8726  37.2490

          k =-0.2727 0.4545-0.2727 (    76 PWs)   bands (ev):

     5.5646   6.0078   6.3063   7.0593   7.9797   8.9234  21.9513  32.6601
    34.4094  35.6547

          k =-0.3636 0.5455-0.3636 (    77 PWs)   bands (ev):

     5.1165   5.9242   6.4067   7.1860   7.6477  11.1862  17.9786  32.6967
    32.7737  35.1057

          k = 0.5455-0.3636 0.5455 (    78 PWs)   bands (ev):

     5.0516   5.7449   5.8701   7.1542   7.5514  12.5596  16.2044  31.6632
    33.2951  35.1609

          k = 0.4545-0.2727 0.4545 (    76 PWs)   bands (ev):

     5.5065   6.2301   6.2696   7.2678   7.6146  10.5017  19.3151  31.2456
    34.5983  35.8050

          k = 0.3636-0.1818 0.3636 (    76 PWs)   bands (ev):

     5.4610   6.0229   6.0999   7.4349   7.7440   8.3777  23.4188  31.3816
    36.3678  37.0343

          k = 0.2727-0.0909 0.2727 (    75 PWs)   bands (ev):

     5.1887   6.0618   6.3811   6.8998   7.8290   8.0923  28.1382  32.0009
    38.0803  38.5655

          k = 0.1818-0.0000 0.1818 (    71 PWs)   bands (ev):

     4.4864   6.6747   7.4506   7.4732   7.9805   8.7369  32.9660  33.3826
    38.2740  38.3755

          k = 0.0000 0.3636 0.0000 (    76 PWs)   bands (ev):

     5.0869   6.0192   6.0192   6.9608   6.9952   7.9612  32.3088  32.3088
    34.8864  36.9262

          k =-0.0909 0.4545-0.0909 (    79 PWs)   bands (ev):

     5.4753   5.4853   5.5414   6.2973   7.2835   7.5253  28.3962  30.9321
    33.9325  35.4729

          k =-0.1818 0.5455-0.1818 (    77 PWs)   bands (ev):

     5.4212   6.0158   6.0570   7.2333   7.4012   9.1290  23.9377  30.2671
    31.5076  35.2294

          k =-0.2727 0.6364-0.2727 (    79 PWs)   bands (ev):

     5.0523   5.5567   6.3344   6.8125   7.0366  11.2444  19.6825  29.3619
    30.3372  34.8661

          k = 0.6364-0.2727 0.6364 (    80 PWs)   bands (ev):

     5.0321   5.4486   5.9617   6.5272   6.9689  13.7938  16.4615  27.8201
    31.0802  34.9590

          k = 0.5455-0.1818 0.5455 (    80 PWs)   bands (ev):

     4.6001   5.7579   5.9552   6.5896   7.0691  12.2023  18.3988  26.9441
    32.5532  35.5056

          k = 0.4545-0.0909 0.4545 (    77 PWs)   bands (ev):

     5.5727   5.9797   6.1933   7.1026   7.3168   9.9608  22.6099  26.7431
    34.7347  36.5703

          k = 0.3636 0.0000 0.3636 (    75 PWs)   bands (ev):

     5.7135   5.7848   6.3705   7.4886   8.1997   8.3140  27.1245  27.1753
    37.1467  38.0952

          k = 0.0000 0.5455 0.0000 (    76 PWs)   bands (ev):

     5.5617   6.2424   6.2424   7.1464   7.5547   8.1987  29.3277  29.3277
    30.8666  34.2265

          k =-0.0909 0.6364-0.0909 (    79 PWs)   bands (ev):

     5.2566   5.7307   5.9514   6.4851   6.9858   9.6548  26.1072  28.1742
    28.3431  34.6895

          k =-0.1818 0.7273-0.1818 (    78 PWs)   bands (ev):

     5.1633   5.7636   6.3799   7.0692   7.2307  11.7820  22.1265  26.0050
    28.1973  34.8095

          k = 0.7273-0.1818 0.7273 (    78 PWs)   bands (ev):

     5.7842   6.1049   6.4265   6.5696   6.8339  14.7225  18.5387  24.2507
    28.8217  35.0200

          k = 0.6364-0.0909 0.6364 (    82 PWs)   bands (ev):

     4.5761   5.3777   5.7188   6.4649   6.5879  14.6789  18.1854  22.9768
    30.1936  35.0622

          k = 0.5455 0.0000 0.5455 (    79 PWs)   bands (ev):

     5.6068   5.8362   6.0192   6.2812   7.0873  12.0578  21.8571  23.0030
    32.3411  35.7593

          k = 0.0000 0.7273 0.0000 (    80 PWs)   bands (ev):

     5.1342   5.1506   6.1435   6.1435   7.2448  10.7727  25.2630  27.0550
    27.0550  33.6570

          k =-0.0909 0.8182-0.0909 (    80 PWs)   bands (ev):

     5.0908   5.6411   5.9053   6.7569   6.8420  12.6310  22.8715  24.6943
    26.6398  34.3733

          k = 0.8182-0.0909 0.8182 (    78 PWs)   bands (ev):

     5.4761   5.6875   6.7305   6.8073   7.2318  15.2329  21.0454  21.6091
    27.0654  35.0085

          k = 0.7273 0.0000 0.7273 (    77 PWs)   bands (ev):

     5.9937   6.2556   6.5134   6.9442   6.9980  17.5848  18.1225  21.0025
    28.3282  35.1080

          k = 0.0000 0.9091 0.0000 (    84 PWs)   bands (ev):

     4.8359   5.1312   5.2614   5.2614   6.6690  13.8237  20.6815  25.8573
    25.8573  33.4858

          k = 0.9091-0.0000 0.9091 (    77 PWs)   bands (ev):

     6.0140   6.1298   6.6297   6.9495   7.5285  14.9714  20.4025  24.1831
    26.0371  34.7966

          k =-0.1818 0.3636 0.0000 (    76 PWs)   bands (ev):

     5.2732   5.7739   6.0894   7.0916   7.4186   7.9704  29.9648  30.2112
    37.1081  38.0070

          k =-0.2727 0.4545-0.0909 (    75 PWs)   bands (ev):

     5.4794   6.0492   6.7693   7.5050   7.7250   8.5704  25.3719  29.3167
    34.6919  37.4485

          k =-0.3636 0.5455-0.1818 (    78 PWs)   bands (ev):

     5.5268   5.7506   6.2237   6.6246   7.3223  10.3278  20.9169  29.0181
    32.3375  36.5755

          k = 0.5455-0.3636 0.7273 (    79 PWs)   bands (ev):

     5.1706   5.6103   6.2600   6.4553   7.1920  12.7621  17.2679  29.3101
    30.7205  36.0604

          k =-0.1818 0.5455 0.0000 (    78 PWs)   bands (ev):

     5.5739   5.7241   5.9196   6.8863   7.2060   8.6361  27.2374  27.5733
    31.2732  36.5831

          k =-0.2727 0.6364-0.0909 (    79 PWs)   bands (ev):

     5.4089   5.6132   5.9611   6.7091   6.9687  10.6070  23.1031  26.9887
    28.8873  36.7557

          k = 0.6364-0.2727 0.8182 (    78 PWs)   bands (ev):

     5.5300   6.0735   6.3275   6.7231   7.1239  13.1966  19.2942  26.6292
    27.7077  36.6209

          k = 0.5455-0.1818 0.7273 (    82 PWs)   bands (ev):

     4.9214   5.3746   5.8913   5.9384   6.4513  14.8498  16.9885  25.3633
    28.4393  36.7870

          k = 0.4545-0.0909 0.6364 (    81 PWs)   bands (ev):

     4.9397   5.6139   5.9119   6.1415   6.7649  12.2103  20.3619  24.7158
    30.0046  37.4418

          k = 0.3636 0.0000 0.5455 (    78 PWs)   bands (ev):

     5.6843   5.7928   5.9410   6.9943   7.0329  10.0465  24.5534  24.8166
    32.1097  38.3357

          k =-0.1818 0.7273 0.0000 (    80 PWs)   bands (ev):

     4.9496   5.9651   6.1347   6.4512   6.4781  11.3399  25.0390  25.5661
    26.0157  35.9191

          k = 0.7273-0.1818 0.9091 (    81 PWs)   bands (ev):

     4.9744   5.3008   5.7556   6.5657   6.8646  13.6304  21.6625  23.5306
    25.6816  36.4470

          k = 0.6364-0.0909 0.8182 (    79 PWs)   bands (ev):

     5.4400   5.7833   6.4034   6.5207   7.0129  16.8156  18.2760  22.1304
    26.5833  36.8138

          k = 0.5455 0.0000 0.7273 (    80 PWs)   bands (ev):

     5.5303   5.6227   5.6989   6.5709   7.0408  14.9943  19.7229  21.6896
    27.9845  37.2258

          k = 0.8182-0.0909 1.0000 (    82 PWs)   bands (ev):

     4.6785   5.4282   5.9988   6.3716   6.4361  14.4264  20.9226  24.4337
    24.5536  35.6771

          k = 0.7273 0.0000 0.9091 (    78 PWs)   bands (ev):

     5.2503   6.4307   6.5873   6.8335   7.2247  16.3687  20.1441  21.4603
    25.2313  36.4469

          k = 0.6364-0.2727 1.0000 (    80 PWs)   bands (ev):

     5.0754   5.3979   5.6703   7.0202   7.1891  12.6736  22.6484  23.1485
    26.6730  39.1347

          k = 0.5455-0.1818 0.9091 (    81 PWs)   bands (ev):

     5.1933   5.5182   5.8593   6.2194   6.8824  15.6645  18.9924  23.3203
    25.0465  39.2580

          k = 0.6364-0.0909 1.0000 (    78 PWs)   bands (ev):

     5.2426   6.3958   6.6324   6.7238   6.9900  16.4040  21.5161  21.8087
    22.8851  39.8584

          k = 0.5455 0.0000 0.9091 (    80 PWs)   bands (ev):

     5.1634   5.7074   5.9048   6.6593   7.1154  18.6551  18.7235  20.8528
    23.3794  40.2593

     the Fermi energy is    12.1304 ev

!    total energy              =    -209.95903911 Ry
     Harris-Foulkes estimate   =    -209.95903911 Ry
     estimated scf accuracy    <          5.5E-09 Ry

     total all-electron energy =     -3306.838805 Ry

     The total energy is the sum of the following terms:

     one-electron contribution =     -21.01454282 Ry
     hartree contribution      =      24.82597832 Ry
     xc contribution           =     -42.86049496 Ry
     ewald contribution        =     -81.22523186 Ry
     one-center paw contrib.   =     -89.68448835 Ry
     smearing contrib. (-TS)   =      -0.00025944 Ry

     convergence has been achieved in   9 iterations

     Forces acting on atoms (cartesian axes, Ry/au):

     atom    1 type  1   force =     0.00000000    0.00000000    0.00000000

     Total force =     0.000000     Total SCF correction =     0.000000


     Computing stress (Cartesian axis) and pressure

          total   stress  (Ry/bohr**3)                   (kbar)     P=********
  -0.11784673   0.00000000  -0.00000000     -17335.85      0.00     -0.00
   0.00000000  -0.11784673  -0.00000000          0.00 -17335.85     -0.00
  -0.00000000  -0.00000000  -0.11784673         -0.00     -0.00 -17335.85


     Writing output data file Cu.save/

     init_run     :      0.20s CPU      0.23s WALL (       1 calls)
     electrons    :      2.08s CPU      2.40s WALL (       1 calls)
     forces       :      0.02s CPU      0.02s WALL (       1 calls)
     stress       :      0.03s CPU      0.03s WALL (       1 calls)

     Called by init_run:
     wfcinit      :      0.04s CPU      0.04s WALL (       1 calls)
     potinit      :      0.09s CPU      0.11s WALL (       1 calls)
     hinit0       :      0.06s CPU      0.06s WALL (       1 calls)

     Called by electrons:
     c_bands      :      1.09s CPU      1.26s WALL (       9 calls)
     sum_band     :      0.15s CPU      0.17s WALL (       9 calls)
     v_of_rho     :      0.01s CPU      0.01s WALL (      10 calls)
     newd         :      0.01s CPU      0.01s WALL (      10 calls)
     PAW_pot      :      0.90s CPU      1.05s WALL (      10 calls)
     mix_rho      :      0.00s CPU      0.00s WALL (       9 calls)

     Called by c_bands:
     init_us_2    :      0.02s CPU      0.02s WALL (    1176 calls)
     cegterg      :      1.06s CPU      1.22s WALL (     504 calls)

     Called by sum_band:
     sum_band:bec :      0.00s CPU      0.00s WALL (     504 calls)
     addusdens    :      0.01s CPU      0.01s WALL (       9 calls)

     Called by *egterg:
     h_psi        :      0.62s CPU      0.72s WALL (    1698 calls)
     s_psi        :      0.02s CPU      0.02s WALL (    1698 calls)
     g_psi        :      0.00s CPU      0.00s WALL (    1138 calls)
     cdiaghg      :      0.31s CPU      0.35s WALL (    1642 calls)

     Called by h_psi:
     h_psi:pot    :      0.62s CPU      0.71s WALL (    1698 calls)
     h_psi:calbec :      0.04s CPU      0.05s WALL (    1698 calls)
     vloc_psi     :      0.55s CPU      0.63s WALL (    1698 calls)
     add_vuspsi   :      0.02s CPU      0.02s WALL (    1698 calls)

     General routines
     calbec       :      0.06s CPU      0.06s WALL (    2482 calls)
     fft          :      0.00s CPU      0.00s WALL (     136 calls)
     ffts         :      0.00s CPU      0.00s WALL (       9 calls)
     fftw         :      0.58s CPU      0.67s WALL (   32026 calls)

     Parallel routines
     fft_scatt_xy :      0.07s CPU      0.08s WALL (   32171 calls)
     fft_scatt_yz :      0.27s CPU      0.30s WALL (   32171 calls)

     PWSCF        :     3.26s CPU         3.69s WALL


   This run was terminated on:  23:10:28  25Mar2024            

=------------------------------------------------------------------------------=
   JOB DONE.
=------------------------------------------------------------------------------=
