
     Program PWSCF v.6.3MaX starts on 25Mar2024 at 23:23:40 

     This program is part of the open-source Quantum ESPRESSO suite
     for quantum simulation of materials; please cite
         "P. Giannozzi et al., J. Phys.:Condens. Matter 21 395502 (2009);
         "P. Giannozzi et al., J. Phys.:Condens. Matter 29 465901 (2017);
          URL http://www.quantum-espresso.org", 
     in publications or presentations arising from this work. More details at
     http://www.quantum-espresso.org/quote

     Parallel version (MPI), running on     5 processors

     MPI processes distributed on     1 nodes
     R & G space division:  proc/nbgrp/npool/nimage =       5
     Waiting for input...
     Reading input from standard input

     Current dimensions of program PWSCF are:
     Max number of different atomic species (ntypx) = 10
     Max number of k-points (npk) =  40000
     Max angular momentum in pseudopotentials (lmaxx) =  3
               file Cu.pbesol-dn-kjpaw_psl.1.0.0.UPF: wavefunction(s)  4S 3D renormalized

     Subspace diagonalization in iterative solution of the eigenvalue problem:
     a serial algorithm will be used


     Parallelization info
     --------------------
     sticks:   dense  smooth     PW     G-vecs:    dense   smooth      PW
     Min          62      62     21                  765      765     148
     Max          63      63     22                  770      770     151
     Sum         313     313    109                 3839     3839     749



     bravais-lattice index     =            2
     lattice parameter (alat)  =       6.8300  a.u.
     unit-cell volume          =      79.6530 (a.u.)^3
     number of atoms/cell      =            1
     number of atomic types    =            1
     number of electrons       =        11.00
     number of Kohn-Sham states=           10
     kinetic-energy cutoff     =      50.0000  Ry
     charge density cutoff     =     200.0000  Ry
     convergence threshold     =      1.0E-08
     mixing beta               =       0.7000
     number of iterations used =            8  plain     mixing
     Exchange-correlation      = SLA PW PSX PSC ( 1  4 10  8 0 0)

     celldm(1)=   6.830000  celldm(2)=   0.000000  celldm(3)=   0.000000
     celldm(4)=   0.000000  celldm(5)=   0.000000  celldm(6)=   0.000000

     crystal axes: (cart. coord. in units of alat)
               a(1) = (  -0.500000   0.000000   0.500000 )  
               a(2) = (   0.000000   0.500000   0.500000 )  
               a(3) = (  -0.500000   0.500000   0.000000 )  

     reciprocal axes: (cart. coord. in units 2 pi/alat)
               b(1) = ( -1.000000 -1.000000  1.000000 )  
               b(2) = (  1.000000  1.000000  1.000000 )  
               b(3) = ( -1.000000  1.000000 -1.000000 )  


     PseudoPot. # 1 for Cu read from file:
     /home/lorenzo/pseudos/Cu/Cu.pbesol-dn-kjpaw_psl.1.0.0.UPF
     MD5 check sum: 1e9735a74797514c934643dbd229f231
     Pseudo is Projector augmented-wave + core cor, Zval = 11.0
     Generated using "atomic" code by A. Dal Corso v.6.3
     Shape of augmentation charge: PSQ
     Using radial grid of 1199 points,  6 beta functions with: 
                l(1) =   0
                l(2) =   0
                l(3) =   1
                l(4) =   1
                l(5) =   2
                l(6) =   2
     Q(r) pseudized with 0 coefficients 


     atomic species   valence    mass     pseudopotential
        Cu            11.00    63.54600     Cu( 1.00)

     48 Sym. Ops., with inversion, found



   Cartesian axes

     site n.     atom                  positions (alat units)
         1           Cu  tau(   1) = (   0.0000000   0.0000000   0.0000000  )

     number of k points=    56  gaussian smearing, width (Ry)=  0.0100
                       cart. coord. in units 2pi/alat
        k(    1) = (   0.0000000   0.0000000   0.0000000), wk =   0.0015026
        k(    2) = (  -0.0909091   0.0909091  -0.0909091), wk =   0.0120210
        k(    3) = (  -0.1818182   0.1818182  -0.1818182), wk =   0.0120210
        k(    4) = (  -0.2727273   0.2727273  -0.2727273), wk =   0.0120210
        k(    5) = (  -0.3636364   0.3636364  -0.3636364), wk =   0.0120210
        k(    6) = (  -0.4545455   0.4545455  -0.4545455), wk =   0.0120210
        k(    7) = (   0.0000000   0.1818182   0.0000000), wk =   0.0090158
        k(    8) = (  -0.0909091   0.2727273  -0.0909091), wk =   0.0360631
        k(    9) = (  -0.1818182   0.3636364  -0.1818182), wk =   0.0360631
        k(   10) = (  -0.2727273   0.4545455  -0.2727273), wk =   0.0360631
        k(   11) = (  -0.3636364   0.5454545  -0.3636364), wk =   0.0360631
        k(   12) = (   0.5454545  -0.3636364   0.5454545), wk =   0.0360631
        k(   13) = (   0.4545455  -0.2727273   0.4545455), wk =   0.0360631
        k(   14) = (   0.3636364  -0.1818182   0.3636364), wk =   0.0360631
        k(   15) = (   0.2727273  -0.0909091   0.2727273), wk =   0.0360631
        k(   16) = (   0.1818182  -0.0000000   0.1818182), wk =   0.0180316
        k(   17) = (   0.0000000   0.3636364   0.0000000), wk =   0.0090158
        k(   18) = (  -0.0909091   0.4545455  -0.0909091), wk =   0.0360631
        k(   19) = (  -0.1818182   0.5454545  -0.1818182), wk =   0.0360631
        k(   20) = (  -0.2727273   0.6363636  -0.2727273), wk =   0.0360631
        k(   21) = (   0.6363636  -0.2727273   0.6363636), wk =   0.0360631
        k(   22) = (   0.5454545  -0.1818182   0.5454545), wk =   0.0360631
        k(   23) = (   0.4545455  -0.0909091   0.4545455), wk =   0.0360631
        k(   24) = (   0.3636364   0.0000000   0.3636364), wk =   0.0180316
        k(   25) = (   0.0000000   0.5454545   0.0000000), wk =   0.0090158
        k(   26) = (  -0.0909091   0.6363636  -0.0909091), wk =   0.0360631
        k(   27) = (  -0.1818182   0.7272727  -0.1818182), wk =   0.0360631
        k(   28) = (   0.7272727  -0.1818182   0.7272727), wk =   0.0360631
        k(   29) = (   0.6363636  -0.0909091   0.6363636), wk =   0.0360631
        k(   30) = (   0.5454545   0.0000000   0.5454545), wk =   0.0180316
        k(   31) = (   0.0000000   0.7272727   0.0000000), wk =   0.0090158
        k(   32) = (  -0.0909091   0.8181818  -0.0909091), wk =   0.0360631
        k(   33) = (   0.8181818  -0.0909091   0.8181818), wk =   0.0360631
        k(   34) = (   0.7272727   0.0000000   0.7272727), wk =   0.0180316
        k(   35) = (   0.0000000   0.9090909   0.0000000), wk =   0.0090158
        k(   36) = (   0.9090909  -0.0000000   0.9090909), wk =   0.0180316
        k(   37) = (  -0.1818182   0.3636364   0.0000000), wk =   0.0360631
        k(   38) = (  -0.2727273   0.4545455  -0.0909091), wk =   0.0721262
        k(   39) = (  -0.3636364   0.5454545  -0.1818182), wk =   0.0721262
        k(   40) = (   0.5454545  -0.3636364   0.7272727), wk =   0.0721262
        k(   41) = (  -0.1818182   0.5454545   0.0000000), wk =   0.0360631
        k(   42) = (  -0.2727273   0.6363636  -0.0909091), wk =   0.0721262
        k(   43) = (   0.6363636  -0.2727273   0.8181818), wk =   0.0721262
        k(   44) = (   0.5454545  -0.1818182   0.7272727), wk =   0.0721262
        k(   45) = (   0.4545455  -0.0909091   0.6363636), wk =   0.0721262
        k(   46) = (   0.3636364   0.0000000   0.5454545), wk =   0.0360631
        k(   47) = (  -0.1818182   0.7272727   0.0000000), wk =   0.0360631
        k(   48) = (   0.7272727  -0.1818182   0.9090909), wk =   0.0721262
        k(   49) = (   0.6363636  -0.0909091   0.8181818), wk =   0.0721262
        k(   50) = (   0.5454545   0.0000000   0.7272727), wk =   0.0360631
        k(   51) = (   0.8181818  -0.0909091   1.0000000), wk =   0.0360631
        k(   52) = (   0.7272727   0.0000000   0.9090909), wk =   0.0360631
        k(   53) = (   0.6363636  -0.2727273   1.0000000), wk =   0.0360631
        k(   54) = (   0.5454545  -0.1818182   0.9090909), wk =   0.0721262
        k(   55) = (   0.6363636  -0.0909091   1.0000000), wk =   0.0360631
        k(   56) = (   0.5454545   0.0000000   0.9090909), wk =   0.0360631

     Dense  grid:     3839 G-vectors     FFT dimensions: (  24,  24,  24)

     Estimated max dynamical RAM per process >       4.97 MB

     Estimated total dynamical RAM >      24.83 MB

     Check: negative/imaginary core charge=   -0.000002    0.000000

     Initial potential from superposition of free atoms

     starting charge   10.99979, renormalised to   11.00000
     Starting wfcs are    9 randomized atomic wfcs +    1 random wfcs
     Checking if some PAW data can be deallocated... 

     total cpu time spent up to now is        1.1 secs

     Self-consistent Calculation

     iteration #  1     ecut=    50.00 Ry     beta= 0.70
     Davidson diagonalization with overlap
     ethr =  1.00E-02,  avg # of iterations =  3.8

     Threshold (ethr) on eigenvalues was too large:
     Diagonalizing with lowered threshold

     Davidson diagonalization with overlap
     ethr =  6.83E-04,  avg # of iterations =  1.2

     total cpu time spent up to now is        2.0 secs

     total energy              =    -210.37512901 Ry
     Harris-Foulkes estimate   =    -210.43491574 Ry
     estimated scf accuracy    <       0.07477531 Ry

     iteration #  2     ecut=    50.00 Ry     beta= 0.70
     Davidson diagonalization with overlap
     ethr =  6.80E-04,  avg # of iterations =  2.0

     total cpu time spent up to now is        2.5 secs

     total energy              =    -210.37722551 Ry
     Harris-Foulkes estimate   =    -210.48249141 Ry
     estimated scf accuracy    <       0.27369926 Ry

     iteration #  3     ecut=    50.00 Ry     beta= 0.70
     Davidson diagonalization with overlap
     ethr =  6.80E-04,  avg # of iterations =  2.1

     total cpu time spent up to now is        2.9 secs

     total energy              =    -210.42005247 Ry
     Harris-Foulkes estimate   =    -210.42012174 Ry
     estimated scf accuracy    <       0.00013963 Ry

     iteration #  4     ecut=    50.00 Ry     beta= 0.70
     Davidson diagonalization with overlap
     ethr =  1.27E-06,  avg # of iterations =  2.4

     total cpu time spent up to now is        3.4 secs

     total energy              =    -210.42011919 Ry
     Harris-Foulkes estimate   =    -210.42012889 Ry
     estimated scf accuracy    <       0.00002524 Ry

     iteration #  5     ecut=    50.00 Ry     beta= 0.70
     Davidson diagonalization with overlap
     ethr =  2.29E-07,  avg # of iterations =  1.1

     total cpu time spent up to now is        3.8 secs

     total energy              =    -210.42012393 Ry
     Harris-Foulkes estimate   =    -210.42012416 Ry
     estimated scf accuracy    <       0.00000062 Ry

     iteration #  6     ecut=    50.00 Ry     beta= 0.70
     Davidson diagonalization with overlap
     ethr =  5.60E-09,  avg # of iterations =  2.1

     total cpu time spent up to now is        4.2 secs

     End of self-consistent calculation

          k = 0.0000 0.0000 0.0000 (   531 PWs)   bands (ev):

     3.0434   9.4680   9.4680   9.4680  10.3097  10.3097  35.3787  37.7507
    37.7507  37.7507

          k =-0.0909 0.0909-0.0909 (   495 PWs)   bands (ev):

     3.3432   9.4059   9.5238   9.5238  10.2903  10.2903  33.0558  36.0705
    36.9101  36.9101

          k =-0.1818 0.1818-0.1818 (   489 PWs)   bands (ev):

     4.2129   9.2670   9.6221   9.6221  10.2922  10.2922  28.3219  35.6370
    35.8321  35.8321

          k =-0.2727 0.2727-0.2727 (   483 PWs)   bands (ev):

     5.5187   9.2192   9.6139   9.6139  10.4470  10.4470  23.8013  34.9808
    35.0764  35.0764

          k =-0.3636 0.3636-0.3636 (   477 PWs)   bands (ev):

     6.7899   9.5201   9.5201   9.7071  10.6918  10.6918  19.7878  34.2771
    34.6628  34.6628

          k =-0.4545 0.4545-0.4545 (   470 PWs)   bands (ev):

     7.3246   9.4485   9.4485  10.8612  10.8612  11.0464  16.7650  33.8450
    34.5185  34.5185

          k = 0.0000 0.1818 0.0000 (   495 PWs)   bands (ev):

     3.4426   9.3505   9.5646   9.5646  10.2044  10.3539  34.1531  34.9739
    34.9739  36.3825

          k =-0.0909 0.2727-0.0909 (   489 PWs)   bands (ev):

     4.1217   9.2096   9.6681   9.6775  10.1300  10.4003  30.0985  33.4981
    34.2724  37.4668

          k =-0.1818 0.3636-0.1818 (   482 PWs)   bands (ev):

     5.2918   9.0856   9.6302   9.7224  10.3015  10.5314  25.4689  32.5322
    33.6333  36.4591

          k =-0.2727 0.4545-0.2727 (   474 PWs)   bands (ev):

     6.6328   9.2136   9.4850   9.6551  10.7404  10.7634  21.2515  32.1164
    32.9767  34.4574

          k =-0.3636 0.5455-0.3636 (   474 PWs)   bands (ev):

     7.4008   9.3537   9.5675   9.8609  10.8810  11.6561  17.7379  31.9134
    32.3065  33.6455

          k = 0.5455-0.3636 0.5455 (   477 PWs)   bands (ev):

     7.5294   9.3364   9.5307  10.1539  10.8528  12.3802  16.3582  30.8738
    33.1517  33.7989

          k = 0.4545-0.2727 0.4545 (   473 PWs)   bands (ev):

     7.2450   9.4124   9.5710   9.6827  10.6505  11.4146  18.8013  30.3308
    34.5507  34.6544

          k = 0.3636-0.1818 0.3636 (   483 PWs)   bands (ev):

     6.2115   9.1571   9.5410   9.6703  10.3549  10.8534  22.6054  30.3365
    35.8133  36.7346

          k = 0.2727-0.0909 0.2727 (   485 PWs)   bands (ev):

     4.8592   9.1483   9.6372   9.7246  10.1425  10.5281  26.9807  30.8599
    37.2551  38.6177

          k = 0.1818-0.0000 0.1818 (   493 PWs)   bands (ev):

     3.8335   9.2963   9.6076   9.6099  10.1848  10.3616  31.3808  32.1991
    37.3186  38.8536

          k = 0.0000 0.3636 0.0000 (   488 PWs)   bands (ev):

     4.5918   9.0385   9.8404   9.8404   9.9541  10.4711  31.6830  31.6830
    32.4653  33.9179

          k =-0.0909 0.4545-0.0909 (   480 PWs)   bands (ev):

     5.5557   8.8616   9.6939   9.9695  10.2362  10.5832  27.5320  30.4331
    32.0946  33.3377

          k =-0.1818 0.5455-0.1818 (   479 PWs)   bands (ev):

     6.7831   8.7843   9.4673   9.9526  10.7750  10.9054  23.1922  29.8070
    30.2061  32.7774

          k =-0.2727 0.6364-0.2727 (   474 PWs)   bands (ev):

     7.6788   8.9181   9.3924   9.8658  10.9050  12.1522  19.3380  28.3651
    29.8664  32.6331

          k = 0.6364-0.2727 0.6364 (   473 PWs)   bands (ev):

     7.9347   9.0090   9.5581   9.7956  10.8613  13.8257  16.6272  26.9761
    30.6442  32.8953

          k = 0.5455-0.1818 0.5455 (   469 PWs)   bands (ev):

     7.8644   9.1199   9.3993   9.7870  10.6380  12.8692  18.2539  26.1424
    32.1139  33.6316

          k = 0.4545-0.0909 0.4545 (   481 PWs)   bands (ev):

     7.2149   9.0179   9.3242   9.8532  10.3071  11.6201  21.8764  25.9044
    34.1923  34.9011

          k = 0.3636 0.0000 0.3636 (   477 PWs)   bands (ev):

     5.9693   8.9992   9.5294   9.9691   9.9859  10.9459  25.7985  26.5382
    36.6534  36.7635

          k = 0.0000 0.5455 0.0000 (   480 PWs)   bands (ev):

     6.2336   8.6411   9.8690  10.2497  10.2497  10.6265  28.8868  28.8868
    29.5594  31.2209

          k =-0.0909 0.6364-0.0909 (   475 PWs)   bands (ev):

     7.0984   8.4896   9.8175  10.3415  10.7812  10.9159  25.4677  27.1421
    27.9900  31.7220

          k =-0.1818 0.7273-0.1818 (   468 PWs)   bands (ev):

     7.7939   8.4718   9.6542  10.2737  10.9250  12.4279  21.5302  25.0705
    27.8315  31.8359

          k = 0.7273-0.1818 0.7273 (   473 PWs)   bands (ev):

     8.1784   8.5705   9.5028  10.1783  10.8878  14.6895  18.0907  23.4999
    28.4484  32.0693

          k = 0.6364-0.0909 0.6364 (   473 PWs)   bands (ev):

     8.3568   8.7284   9.2776  10.0990  10.6765  14.8844  18.0133  22.5043
    29.7936  32.6332

          k = 0.5455 0.0000 0.5455 (   477 PWs)   bands (ev):

     8.1124   9.0020   9.0137  10.0221  10.4140  12.8995  21.0438  22.5330
    31.7546  33.5996

          k = 0.0000 0.7273 0.0000 (   472 PWs)   bands (ev):

     7.3934   8.2872  10.6877  10.6877  10.7710  10.9507  24.4590  26.8046
    26.8046  30.4485

          k =-0.0909 0.8182-0.0909 (   468 PWs)   bands (ev):

     7.6535   8.2116  10.4619  10.6697  10.9370  12.6427  22.3207  24.0923
    26.3791  31.0808

          k = 0.8182-0.0909 0.8182 (   474 PWs)   bands (ev):

     7.9350   8.2841  10.0664  10.5634  10.9344  14.9126  20.5189  20.9048
    26.7804  31.4614

          k = 0.7273 0.0000 0.7273 (   474 PWs)   bands (ev):

     8.2582   8.4546   9.6008  10.3866  10.7914  17.1824  17.4692  20.4286
    27.9627  31.9092

          k = 0.0000 0.9091 0.0000 (   468 PWs)   bands (ev):

     7.5839   8.0812  10.8578  10.9850  10.9850  13.3074  20.3664  25.6693
    25.6693  30.0841

          k = 0.9091-0.0000 0.9091 (   466 PWs)   bands (ev):

     7.6807   8.1096  10.7133  10.8001  11.0002  14.4239  19.6424  23.5866
    25.8096  30.8819

          k =-0.1818 0.3636 0.0000 (   484 PWs)   bands (ev):

     4.9541   9.0459   9.6671   9.8515  10.0810  10.5521  28.6520  29.2889
    35.5694  36.0454

          k =-0.2727 0.4545-0.0909 (   478 PWs)   bands (ev):

     6.1875   8.9353   9.4962   9.8969  10.2885  10.9129  24.4200  28.3170
    33.3027  36.1911

          k =-0.3636 0.5455-0.1818 (   477 PWs)   bands (ev):

     7.3463   9.0807   9.3269   9.8048  10.6345  11.6242  20.3748  28.1574
    31.2613  35.6403

          k = 0.5455-0.3636 0.7273 (   469 PWs)   bands (ev):

     7.7896   9.1321   9.5925   9.7326  10.8246  13.0225  17.1380  28.5622
    29.7112  35.2782

          k =-0.1818 0.5455 0.0000 (   476 PWs)   bands (ev):

     6.5376   8.6963   9.5468  10.2500  10.3401  10.9042  26.3669  26.9176
    30.0375  34.3060

          k =-0.2727 0.6364-0.0909 (   470 PWs)   bands (ev):

     7.5557   8.6501   9.3472  10.2062  10.6730  11.7921  22.4486  26.3323
    27.8121  34.7476

          k = 0.6364-0.2727 0.8182 (   479 PWs)   bands (ev):

     8.1136   8.7342   9.2919  10.0864  10.8453  13.5362  18.7854  25.9722
    26.6815  34.8787

          k = 0.5455-0.1818 0.7273 (   471 PWs)   bands (ev):

     8.2701   8.7766   9.3150  10.0084  10.8007  14.9192  16.9769  24.7622
    27.5591  35.3932

          k = 0.4545-0.0909 0.6364 (   478 PWs)   bands (ev):

     8.1121   8.9152   9.0728  10.0480  10.5840  13.0190  19.9399  24.1144
    29.0292  36.4225

          k = 0.3636 0.0000 0.5455 (   480 PWs)   bands (ev):

     7.3175   8.8403   9.2516  10.1174  10.2784  11.6704  23.4703  24.4105
    30.9854  37.8917

          k =-0.1818 0.7273 0.0000 (   471 PWs)   bands (ev):

     7.6264   8.3785   9.8565  10.6632  10.6855  11.9610  24.6343  24.7069
    25.2776  33.1545

          k = 0.7273-0.1818 0.9091 (   476 PWs)   bands (ev):

     8.0100   8.4114   9.6737  10.4898  10.8945  13.8869  21.1423  22.8918
    25.0789  33.9499

          k = 0.6364-0.0909 0.8182 (   472 PWs)   bands (ev):

     8.3173   8.5238   9.4174  10.3147  10.8701  16.4144  17.8996  21.5922
    25.8377  34.4819

          k = 0.5455 0.0000 0.7273 (   478 PWs)   bands (ev):

     8.5429   8.6427   9.0946  10.2001  10.7016  15.0546  19.2027  21.3552
    27.1924  35.3588

          k = 0.8182-0.0909 1.0000 (   467 PWs)   bands (ev):

     7.7715   8.1927  10.3502  10.7392  10.9847  14.2206  20.5757  23.6682
    24.2738  32.5997

          k = 0.7273 0.0000 0.9091 (   475 PWs)   bands (ev):

     8.0030   8.3273   9.9232  10.5546  10.9823  15.9452  19.9277  20.7199
    24.6231  33.6956

          k = 0.6364-0.2727 1.0000 (   479 PWs)   bands (ev):

     8.1796   8.6533   9.1316  10.3699  10.6837  13.3077  21.7404  22.9623
    25.7015  37.6717

          k = 0.5455-0.1818 0.9091 (   478 PWs)   bands (ev):

     8.4534   8.6978   9.0620  10.2439  10.8577  15.5538  18.6601  23.0195
    24.0965  38.1393

          k = 0.6364-0.0909 1.0000 (   472 PWs)   bands (ev):

     8.1926   8.5343   9.4511  10.4140  10.9838  15.9908  20.7813  21.2664
    22.2553  37.0434

          k = 0.5455 0.0000 0.9091 (   472 PWs)   bands (ev):

     8.3553   8.7591   9.1195  10.2798  10.9823  18.1219  18.1529  20.7841
    22.6749  38.3850

     the Fermi energy is    12.5488 ev

!    total energy              =    -210.42012406 Ry
     Harris-Foulkes estimate   =    -210.42012406 Ry
     estimated scf accuracy    <          3.2E-10 Ry

     total all-electron energy =     -3307.299185 Ry

     The total energy is the sum of the following terms:

     one-electron contribution =     -28.00920055 Ry
     hartree contribution      =      30.52689211 Ry
     xc contribution           =     -44.11155524 Ry
     ewald contribution        =     -81.22522859 Ry
     one-center paw contrib.   =     -87.60090004 Ry
     smearing contrib. (-TS)   =      -0.00013175 Ry

     convergence has been achieved in   6 iterations

     Forces acting on atoms (cartesian axes, Ry/au):

     atom    1 type  1   force =     0.00000000    0.00000000    0.00000000

     Total force =     0.000000     Total SCF correction =     0.000000


     Computing stress (Cartesian axis) and pressure

          total   stress  (Ry/bohr**3)                   (kbar)     P=  -79.87
  -0.00054292   0.00000000   0.00000000        -79.87      0.00      0.00
   0.00000000  -0.00054292   0.00000000          0.00    -79.87      0.00
   0.00000000   0.00000000  -0.00054292          0.00      0.00    -79.87


     Writing output data file Cu.save/

     init_run     :      0.36s CPU      0.38s WALL (       1 calls)
     electrons    :      2.87s CPU      3.09s WALL (       1 calls)
     forces       :      0.03s CPU      0.04s WALL (       1 calls)
     stress       :      0.10s CPU      0.10s WALL (       1 calls)

     Called by init_run:
     wfcinit      :      0.10s CPU      0.11s WALL (       1 calls)
     potinit      :      0.11s CPU      0.13s WALL (       1 calls)
     hinit0       :      0.13s CPU      0.13s WALL (       1 calls)

     Called by electrons:
     c_bands      :      1.93s CPU      2.06s WALL (       7 calls)
     sum_band     :      0.36s CPU      0.38s WALL (       7 calls)
     v_of_rho     :      0.02s CPU      0.02s WALL (       7 calls)
     newd         :      0.03s CPU      0.03s WALL (       7 calls)
     PAW_pot      :      0.64s CPU      0.72s WALL (       7 calls)
     mix_rho      :      0.00s CPU      0.00s WALL (       7 calls)

     Called by c_bands:
     init_us_2    :      0.06s CPU      0.06s WALL (     952 calls)
     cegterg      :      1.84s CPU      1.96s WALL (     392 calls)

     Called by sum_band:
     sum_band:bec :      0.00s CPU      0.00s WALL (     392 calls)
     addusdens    :      0.03s CPU      0.03s WALL (       7 calls)

     Called by *egterg:
     h_psi        :      1.45s CPU      1.55s WALL (    1268 calls)
     s_psi        :      0.04s CPU      0.04s WALL (    1268 calls)
     g_psi        :      0.00s CPU      0.00s WALL (     820 calls)
     cdiaghg      :      0.22s CPU      0.23s WALL (    1156 calls)

     Called by h_psi:
     h_psi:pot    :      1.44s CPU      1.54s WALL (    1268 calls)
     h_psi:calbec :      0.07s CPU      0.07s WALL (    1268 calls)
     vloc_psi     :      1.33s CPU      1.42s WALL (    1268 calls)
     add_vuspsi   :      0.04s CPU      0.04s WALL (    1268 calls)

     General routines
     calbec       :      0.11s CPU      0.12s WALL (    1940 calls)
     fft          :      0.01s CPU      0.01s WALL (     104 calls)
     ffts         :      0.00s CPU      0.00s WALL (       7 calls)
     fftw         :      1.48s CPU      1.58s WALL (   23784 calls)

     Parallel routines
     fft_scatt_xy :      0.13s CPU      0.14s WALL (   23895 calls)
     fft_scatt_yz :      0.47s CPU      0.50s WALL (   23895 calls)

     PWSCF        :     4.14s CPU         4.44s WALL


   This run was terminated on:  23:23:44  25Mar2024            

=------------------------------------------------------------------------------=
   JOB DONE.
=------------------------------------------------------------------------------=
