
     Program PWSCF v.6.3MaX starts on 25Mar2024 at 23:24:16 

     This program is part of the open-source Quantum ESPRESSO suite
     for quantum simulation of materials; please cite
         "P. Giannozzi et al., J. Phys.:Condens. Matter 21 395502 (2009);
         "P. Giannozzi et al., J. Phys.:Condens. Matter 29 465901 (2017);
          URL http://www.quantum-espresso.org", 
     in publications or presentations arising from this work. More details at
     http://www.quantum-espresso.org/quote

     Parallel version (MPI), running on     5 processors

     MPI processes distributed on     1 nodes
     R & G space division:  proc/nbgrp/npool/nimage =       5
     Waiting for input...
     Reading input from standard input

     Current dimensions of program PWSCF are:
     Max number of different atomic species (ntypx) = 10
     Max number of k-points (npk) =  40000
     Max angular momentum in pseudopotentials (lmaxx) =  3
               file Cu.pbe-dn-kjpaw_psl.1.0.0.UPF: wavefunction(s)  4S 3D renormalized

     Subspace diagonalization in iterative solution of the eigenvalue problem:
     a serial algorithm will be used


     Parallelization info
     --------------------
     sticks:   dense  smooth     PW     G-vecs:    dense   smooth      PW
     Min          62      62     21                  765      765     144
     Max          63      63     22                  770      770     146
     Sum         313     313    109                 3839     3839     725



     bravais-lattice index     =            2
     lattice parameter (alat)  =       6.8300  a.u.
     unit-cell volume          =      79.6530 (a.u.)^3
     number of atoms/cell      =            1
     number of atomic types    =            1
     number of electrons       =        11.00
     number of Kohn-Sham states=           10
     kinetic-energy cutoff     =      50.0000  Ry
     charge density cutoff     =     200.0000  Ry
     convergence threshold     =      1.0E-08
     mixing beta               =       0.7000
     number of iterations used =            8  plain     mixing
     Exchange-correlation      = SLA PW PBX PBC ( 1  4  3  4 0 0)

     celldm(1)=   6.830000  celldm(2)=   0.000000  celldm(3)=   0.000000
     celldm(4)=   0.000000  celldm(5)=   0.000000  celldm(6)=   0.000000

     crystal axes: (cart. coord. in units of alat)
               a(1) = (  -0.500000   0.000000   0.500000 )  
               a(2) = (   0.000000   0.500000   0.500000 )  
               a(3) = (  -0.500000   0.500000   0.000000 )  

     reciprocal axes: (cart. coord. in units 2 pi/alat)
               b(1) = ( -1.000000 -1.000000  1.000000 )  
               b(2) = (  1.000000  1.000000  1.000000 )  
               b(3) = ( -1.000000  1.000000 -1.000000 )  


     PseudoPot. # 1 for Cu read from file:
     /home/lorenzo/pseudos/Cu/Cu.pbe-dn-kjpaw_psl.1.0.0.UPF
     MD5 check sum: cfffd1f38ee05704b3e17f46f1730a6f
     Pseudo is Projector augmented-wave + core cor, Zval = 11.0
     Generated using "atomic" code by A. Dal Corso v.6.3
     Shape of augmentation charge: PSQ
     Using radial grid of 1199 points,  6 beta functions with: 
                l(1) =   0
                l(2) =   0
                l(3) =   1
                l(4) =   1
                l(5) =   2
                l(6) =   2
     Q(r) pseudized with 0 coefficients 


     atomic species   valence    mass     pseudopotential
        Cu            11.00    63.54600     Cu( 1.00)

     48 Sym. Ops., with inversion, found



   Cartesian axes

     site n.     atom                  positions (alat units)
         1           Cu  tau(   1) = (   0.0000000   0.0000000   0.0000000  )

     number of k points=     8  gaussian smearing, width (Ry)=  0.0100
                       cart. coord. in units 2pi/alat
        k(    1) = (   0.0000000   0.0000000   0.0000000), wk =   0.0312500
        k(    2) = (  -0.2500000   0.2500000  -0.2500000), wk =   0.2500000
        k(    3) = (   0.5000000  -0.5000000   0.5000000), wk =   0.1250000
        k(    4) = (   0.0000000   0.5000000   0.0000000), wk =   0.1875000
        k(    5) = (   0.7500000  -0.2500000   0.7500000), wk =   0.7500000
        k(    6) = (   0.5000000   0.0000000   0.5000000), wk =   0.3750000
        k(    7) = (   0.0000000  -1.0000000   0.0000000), wk =   0.0937500
        k(    8) = (  -0.5000000  -1.0000000   0.0000000), wk =   0.1875000

     Dense  grid:     3839 G-vectors     FFT dimensions: (  24,  24,  24)

     Estimated max dynamical RAM per process >       4.27 MB

     Estimated total dynamical RAM >      21.35 MB

     Check: negative/imaginary core charge=   -0.000002    0.000000

     Initial potential from superposition of free atoms

     starting charge   10.99977, renormalised to   11.00000
     Starting wfcs are    9 randomized atomic wfcs +    1 random wfcs
     Checking if some PAW data can be deallocated... 

     total cpu time spent up to now is        1.0 secs

     Self-consistent Calculation

     iteration #  1     ecut=    50.00 Ry     beta= 0.70
     Davidson diagonalization with overlap
     ethr =  1.00E-02,  avg # of iterations =  3.4

     Threshold (ethr) on eigenvalues was too large:
     Diagonalizing with lowered threshold

     Davidson diagonalization with overlap
     ethr =  5.51E-04,  avg # of iterations =  1.1

     total cpu time spent up to now is        1.2 secs

     total energy              =    -213.04849839 Ry
     Harris-Foulkes estimate   =    -213.09614464 Ry
     estimated scf accuracy    <       0.06052760 Ry

     iteration #  2     ecut=    50.00 Ry     beta= 0.70
     Davidson diagonalization with overlap
     ethr =  5.50E-04,  avg # of iterations =  2.2

     total cpu time spent up to now is        1.4 secs

     total energy              =    -213.05054745 Ry
     Harris-Foulkes estimate   =    -213.13129193 Ry
     estimated scf accuracy    <       0.20628478 Ry

     iteration #  3     ecut=    50.00 Ry     beta= 0.70
     Davidson diagonalization with overlap
     ethr =  5.50E-04,  avg # of iterations =  2.2

     total cpu time spent up to now is        1.6 secs

     total energy              =    -213.08394640 Ry
     Harris-Foulkes estimate   =    -213.08396145 Ry
     estimated scf accuracy    <       0.00005466 Ry

     iteration #  4     ecut=    50.00 Ry     beta= 0.70
     Davidson diagonalization with overlap
     ethr =  4.97E-07,  avg # of iterations =  2.5

     total cpu time spent up to now is        1.8 secs

     total energy              =    -213.08398330 Ry
     Harris-Foulkes estimate   =    -213.08398837 Ry
     estimated scf accuracy    <       0.00001419 Ry

     iteration #  5     ecut=    50.00 Ry     beta= 0.70
     Davidson diagonalization with overlap
     ethr =  1.29E-07,  avg # of iterations =  1.2

     total cpu time spent up to now is        1.9 secs

     total energy              =    -213.08398599 Ry
     Harris-Foulkes estimate   =    -213.08398619 Ry
     estimated scf accuracy    <       0.00000055 Ry

     iteration #  6     ecut=    50.00 Ry     beta= 0.70
     Davidson diagonalization with overlap
     ethr =  5.00E-09,  avg # of iterations =  1.4

     total cpu time spent up to now is        2.1 secs

     End of self-consistent calculation

          k = 0.0000 0.0000 0.0000 (   531 PWs)   bands (ev):

     3.2658   9.6448   9.6448   9.6448  10.4769  10.4769  35.5873  37.9851
    37.9851  37.9851

          k =-0.2500 0.2500-0.2500 (   483 PWs)   bands (ev):

     5.3887   9.3875   9.8035   9.8035  10.5614  10.5614  25.1102  35.3703
    35.4684  35.4684

          k = 0.5000-0.5000 0.5000 (   476 PWs)   bands (ev):

     7.5683   9.6127   9.6127  11.0513  11.0513  11.6267  16.4150  33.9937
    34.7507  34.7507

          k = 0.0000 0.5000 0.0000 (   480 PWs)   bands (ev):

     6.0316   8.9221  10.0121  10.3131  10.3131  10.7523  29.7617  29.7617
    31.0494  31.6957

          k = 0.7500-0.2500 0.7500 (   472 PWs)   bands (ev):

     8.2188   8.7963   9.6628  10.2909  11.0920  13.5987  19.3661  25.2314
    28.7645  32.3084

          k = 0.5000 0.0000 0.5000 (   481 PWs)   bands (ev):

     7.9369   9.1350   9.3450  10.1496  10.4758  12.3637  22.3661  23.5716
    33.1384  34.4445

          k = 0.0000-1.0000 0.0000 (   468 PWs)   bands (ev):

     7.7736   8.2382  11.0333  11.1950  11.1950  14.1318  19.7698  25.7596
    25.7596  30.2462

          k =-0.5000-1.0000 0.0000 (   464 PWs)   bands (ev):

     8.5195   9.1301   9.1301  10.4359  11.1959  18.8565  18.8565  20.9701
    21.4524  41.0696

     the Fermi energy is    13.4321 ev

!    total energy              =    -213.08398608 Ry
     Harris-Foulkes estimate   =    -213.08398608 Ry
     estimated scf accuracy    <          1.1E-09 Ry

     total all-electron energy =     -3309.963752 Ry

     The total energy is the sum of the following terms:

     one-electron contribution =     -27.98572333 Ry
     hartree contribution      =      30.60193451 Ry
     xc contribution           =     -44.62657479 Ry
     ewald contribution        =     -81.22522859 Ry
     one-center paw contrib.   =     -89.84792149 Ry
     smearing contrib. (-TS)   =      -0.00047239 Ry

     convergence has been achieved in   6 iterations

     Forces acting on atoms (cartesian axes, Ry/au):

     atom    1 type  1   force =     0.00000000    0.00000000    0.00000000

     Total force =     0.000000     Total SCF correction =     0.000000


     Computing stress (Cartesian axis) and pressure

          total   stress  (Ry/bohr**3)                   (kbar)     P=   23.00
   0.00015637  -0.00000000  -0.00000000         23.00     -0.00     -0.00
  -0.00000000   0.00015637   0.00000000         -0.00     23.00      0.00
  -0.00000000   0.00000000   0.00015637         -0.00      0.00     23.00


     Writing output data file Cu.save/

     init_run     :      0.26s CPU      0.28s WALL (       1 calls)
     electrons    :      0.98s CPU      1.07s WALL (       1 calls)
     forces       :      0.02s CPU      0.02s WALL (       1 calls)
     stress       :      0.05s CPU      0.05s WALL (       1 calls)

     Called by init_run:
     wfcinit      :      0.02s CPU      0.02s WALL (       1 calls)
     potinit      :      0.09s CPU      0.11s WALL (       1 calls)
     hinit0       :      0.13s CPU      0.13s WALL (       1 calls)

     Called by electrons:
     c_bands      :      0.27s CPU      0.29s WALL (       7 calls)
     sum_band     :      0.09s CPU      0.09s WALL (       7 calls)
     v_of_rho     :      0.02s CPU      0.02s WALL (       7 calls)
     newd         :      0.03s CPU      0.03s WALL (       7 calls)
     PAW_pot      :      0.66s CPU      0.75s WALL (       7 calls)
     mix_rho      :      0.00s CPU      0.00s WALL (       7 calls)

     Called by c_bands:
     init_us_2    :      0.01s CPU      0.01s WALL (     136 calls)
     cegterg      :      0.25s CPU      0.28s WALL (      56 calls)

     Called by sum_band:
     sum_band:bec :      0.00s CPU      0.00s WALL (      56 calls)
     addusdens    :      0.03s CPU      0.03s WALL (       7 calls)

     Called by *egterg:
     h_psi        :      0.21s CPU      0.22s WALL (     177 calls)
     s_psi        :      0.01s CPU      0.01s WALL (     177 calls)
     g_psi        :      0.00s CPU      0.00s WALL (     113 calls)
     cdiaghg      :      0.03s CPU      0.03s WALL (     161 calls)

     Called by h_psi:
     h_psi:pot    :      0.20s CPU      0.22s WALL (     177 calls)
     h_psi:calbec :      0.01s CPU      0.01s WALL (     177 calls)
     vloc_psi     :      0.19s CPU      0.20s WALL (     177 calls)
     add_vuspsi   :      0.01s CPU      0.01s WALL (     177 calls)

     General routines
     calbec       :      0.02s CPU      0.02s WALL (     273 calls)
     fft          :      0.02s CPU      0.02s WALL (     104 calls)
     ffts         :      0.00s CPU      0.00s WALL (       7 calls)
     fftw         :      0.21s CPU      0.23s WALL (    3380 calls)

     Parallel routines
     fft_scatt_xy :      0.02s CPU      0.02s WALL (    3491 calls)
     fft_scatt_yz :      0.08s CPU      0.09s WALL (    3491 calls)

     PWSCF        :     2.05s CPU         2.20s WALL


   This run was terminated on:  23:24:18  25Mar2024            

=------------------------------------------------------------------------------=
   JOB DONE.
=------------------------------------------------------------------------------=
