
     Program PWSCF v.6.3MaX starts on 25Mar2024 at 23:28:50 

     This program is part of the open-source Quantum ESPRESSO suite
     for quantum simulation of materials; please cite
         "P. Giannozzi et al., J. Phys.:Condens. Matter 21 395502 (2009);
         "P. Giannozzi et al., J. Phys.:Condens. Matter 29 465901 (2017);
          URL http://www.quantum-espresso.org", 
     in publications or presentations arising from this work. More details at
     http://www.quantum-espresso.org/quote

     Parallel version (MPI), running on     5 processors

     MPI processes distributed on     1 nodes
     R & G space division:  proc/nbgrp/npool/nimage =       5
     Waiting for input...
     Reading input from standard input

     Current dimensions of program PWSCF are:
     Max number of different atomic species (ntypx) = 10
     Max number of k-points (npk) =  40000
     Max angular momentum in pseudopotentials (lmaxx) =  3
               file Cu.pbe-dn-kjpaw_psl.1.0.0.UPF: wavefunction(s)  4S 3D renormalized

     Subspace diagonalization in iterative solution of the eigenvalue problem:
     a serial algorithm will be used


     Parallelization info
     --------------------
     sticks:   dense  smooth     PW     G-vecs:    dense   smooth      PW
     Min          75      75     24                 1003     1003     187
     Max          76      76     25                 1007     1007     191
     Sum         379     379    121                 5029     5029     941



     bravais-lattice index     =            2
     lattice parameter (alat)  =       6.8300  a.u.
     unit-cell volume          =      79.6530 (a.u.)^3
     number of atoms/cell      =            1
     number of atomic types    =            1
     number of electrons       =        11.00
     number of Kohn-Sham states=           10
     kinetic-energy cutoff     =      60.0000  Ry
     charge density cutoff     =     240.0000  Ry
     convergence threshold     =      1.0E-08
     mixing beta               =       0.7000
     number of iterations used =            8  plain     mixing
     Exchange-correlation      = SLA PW PBX PBC ( 1  4  3  4 0 0)

     celldm(1)=   6.830000  celldm(2)=   0.000000  celldm(3)=   0.000000
     celldm(4)=   0.000000  celldm(5)=   0.000000  celldm(6)=   0.000000

     crystal axes: (cart. coord. in units of alat)
               a(1) = (  -0.500000   0.000000   0.500000 )  
               a(2) = (   0.000000   0.500000   0.500000 )  
               a(3) = (  -0.500000   0.500000   0.000000 )  

     reciprocal axes: (cart. coord. in units 2 pi/alat)
               b(1) = ( -1.000000 -1.000000  1.000000 )  
               b(2) = (  1.000000  1.000000  1.000000 )  
               b(3) = ( -1.000000  1.000000 -1.000000 )  


     PseudoPot. # 1 for Cu read from file:
     /home/lorenzo/pseudos/Cu/Cu.pbe-dn-kjpaw_psl.1.0.0.UPF
     MD5 check sum: cfffd1f38ee05704b3e17f46f1730a6f
     Pseudo is Projector augmented-wave + core cor, Zval = 11.0
     Generated using "atomic" code by A. Dal Corso v.6.3
     Shape of augmentation charge: PSQ
     Using radial grid of 1199 points,  6 beta functions with: 
                l(1) =   0
                l(2) =   0
                l(3) =   1
                l(4) =   1
                l(5) =   2
                l(6) =   2
     Q(r) pseudized with 0 coefficients 


     atomic species   valence    mass     pseudopotential
        Cu            11.00    63.54600     Cu( 1.00)

     48 Sym. Ops., with inversion, found



   Cartesian axes

     site n.     atom                  positions (alat units)
         1           Cu  tau(   1) = (   0.0000000   0.0000000   0.0000000  )

     number of k points=    10  gaussian smearing, width (Ry)=  0.0100
                       cart. coord. in units 2pi/alat
        k(    1) = (   0.0000000   0.0000000   0.0000000), wk =   0.0160000
        k(    2) = (  -0.2000000   0.2000000  -0.2000000), wk =   0.1280000
        k(    3) = (  -0.4000000   0.4000000  -0.4000000), wk =   0.1280000
        k(    4) = (   0.0000000   0.4000000   0.0000000), wk =   0.0960000
        k(    5) = (  -0.2000000   0.6000000  -0.2000000), wk =   0.3840000
        k(    6) = (   0.6000000  -0.2000000   0.6000000), wk =   0.3840000
        k(    7) = (   0.4000000   0.0000000   0.4000000), wk =   0.1920000
        k(    8) = (   0.0000000   0.8000000   0.0000000), wk =   0.0960000
        k(    9) = (   0.8000000   0.0000000   0.8000000), wk =   0.1920000
        k(   10) = (   0.6000000  -0.2000000   1.0000000), wk =   0.3840000

     Dense  grid:     5029 G-vectors     FFT dimensions: (  24,  24,  24)

     Estimated max dynamical RAM per process >       5.30 MB

     Estimated total dynamical RAM >      26.51 MB

     Initial potential from superposition of free atoms

     starting charge   10.99977, renormalised to   11.00000
     Starting wfcs are    9 randomized atomic wfcs +    1 random wfcs
     Checking if some PAW data can be deallocated... 

     total cpu time spent up to now is        1.1 secs

     Self-consistent Calculation

     iteration #  1     ecut=    60.00 Ry     beta= 0.70
     Davidson diagonalization with overlap
     ethr =  1.00E-02,  avg # of iterations =  3.5

     Threshold (ethr) on eigenvalues was too large:
     Diagonalizing with lowered threshold

     Davidson diagonalization with overlap
     ethr =  5.46E-04,  avg # of iterations =  1.8

     total cpu time spent up to now is        1.4 secs

     total energy              =    -213.06801893 Ry
     Harris-Foulkes estimate   =    -213.11496172 Ry
     estimated scf accuracy    <       0.05965499 Ry

     iteration #  2     ecut=    60.00 Ry     beta= 0.70
     Davidson diagonalization with overlap
     ethr =  5.42E-04,  avg # of iterations =  2.0

     total cpu time spent up to now is        1.5 secs

     total energy              =    -213.07086095 Ry
     Harris-Foulkes estimate   =    -213.15395689 Ry
     estimated scf accuracy    <       0.21586429 Ry

     iteration #  3     ecut=    60.00 Ry     beta= 0.70
     Davidson diagonalization with overlap
     ethr =  5.42E-04,  avg # of iterations =  2.0

     total cpu time spent up to now is        1.7 secs

     total energy              =    -213.10405524 Ry
     Harris-Foulkes estimate   =    -213.10416586 Ry
     estimated scf accuracy    <       0.00022768 Ry

     iteration #  4     ecut=    60.00 Ry     beta= 0.70
     Davidson diagonalization with overlap
     ethr =  2.07E-06,  avg # of iterations =  2.2

     total cpu time spent up to now is        1.9 secs

     total energy              =    -213.10413874 Ry
     Harris-Foulkes estimate   =    -213.10415038 Ry
     estimated scf accuracy    <       0.00003269 Ry

     iteration #  5     ecut=    60.00 Ry     beta= 0.70
     Davidson diagonalization with overlap
     ethr =  2.97E-07,  avg # of iterations =  1.2

     total cpu time spent up to now is        2.1 secs

     total energy              =    -213.10414461 Ry
     Harris-Foulkes estimate   =    -213.10414473 Ry
     estimated scf accuracy    <       0.00000031 Ry

     iteration #  6     ecut=    60.00 Ry     beta= 0.70
     Davidson diagonalization with overlap
     ethr =  2.80E-09,  avg # of iterations =  2.7

     total cpu time spent up to now is        2.3 secs

     End of self-consistent calculation

          k = 0.0000 0.0000 0.0000 (   609 PWs)   bands (ev):

     3.2725   9.7169   9.7169   9.7169  10.5505  10.5505  35.5888  37.9939
    37.9939  37.9939

          k =-0.2000 0.2000-0.2000 (   628 PWs)   bands (ev):

     4.6765   9.4884   9.8791   9.8791  10.5497  10.5497  27.6247  35.7371
    35.9034  35.9034

          k =-0.4000 0.4000-0.4000 (   619 PWs)   bands (ev):

     7.3384   9.7282   9.7282  10.4232  11.0189  11.0189  18.6388  34.2651
    34.8366  34.8366

          k = 0.0000 0.4000 0.0000 (   613 PWs)   bands (ev):

     5.1263   9.2091  10.1455  10.1614  10.1614  10.7404  31.3257  31.3257
    32.4040  33.4715

          k =-0.2000 0.6000-0.2000 (   623 PWs)   bands (ev):

     7.5043   8.9742   9.6692  10.2397  11.0898  11.5897  22.2422  28.9993
    29.5703  32.7110

          k = 0.6000-0.2000 0.6000 (   624 PWs)   bands (ev):

     8.2778   9.2205   9.7030  10.0867  10.9928  14.1522  17.3205  25.8753
    31.2117  33.3040

          k = 0.4000 0.0000 0.4000 (   630 PWs)   bands (ev):

     6.7100   9.2089   9.6943  10.2062  10.3041  11.4207  25.0169  25.8238
    35.9288  36.1587

          k = 0.0000 0.8000 0.0000 (   628 PWs)   bands (ev):

     7.7678   8.4285  11.0539  11.0807  11.0807  12.0925  22.8499  26.4710
    26.4710  30.4887

          k = 0.8000 0.0000 0.8000 (   632 PWs)   bands (ev):

     8.2319   8.5436  10.2595  10.8128  11.1451  16.1505  19.8995  20.4097
    27.1207  31.7344

          k = 0.6000-0.2000 1.0000 (   635 PWs)   bands (ev):

     8.5606   8.9265   9.3555  10.5891  11.0755  14.8908  20.9441  22.4496
    24.2801  38.5814

     the Fermi energy is    12.1127 ev

!    total energy              =    -213.10414473 Ry
     Harris-Foulkes estimate   =    -213.10414473 Ry
     estimated scf accuracy    <          6.2E-10 Ry

     total all-electron energy =     -3309.983911 Ry

     The total energy is the sum of the following terms:

     one-electron contribution =     -28.04853730 Ry
     hartree contribution      =      30.64960280 Ry
     xc contribution           =     -44.63521965 Ry
     ewald contribution        =     -81.22522856 Ry
     one-center paw contrib.   =     -89.84449715 Ry
     smearing contrib. (-TS)   =      -0.00026488 Ry

     convergence has been achieved in   6 iterations

     Forces acting on atoms (cartesian axes, Ry/au):

     atom    1 type  1   force =     0.00000000    0.00000000    0.00000000

     Total force =     0.000000     Total SCF correction =     0.000000


     Computing stress (Cartesian axis) and pressure

          total   stress  (Ry/bohr**3)                   (kbar)     P=   11.66
   0.00007926   0.00000000   0.00000000         11.66      0.00      0.00
   0.00000000   0.00007926  -0.00000000          0.00     11.66     -0.00
   0.00000000  -0.00000000   0.00007926          0.00     -0.00     11.66


     Writing output data file Cu.save/

     init_run     :      0.29s CPU      0.32s WALL (       1 calls)
     electrons    :      1.07s CPU      1.18s WALL (       1 calls)
     forces       :      0.02s CPU      0.02s WALL (       1 calls)
     stress       :      0.06s CPU      0.06s WALL (       1 calls)

     Called by init_run:
     wfcinit      :      0.02s CPU      0.02s WALL (       1 calls)
     potinit      :      0.10s CPU      0.12s WALL (       1 calls)
     hinit0       :      0.15s CPU      0.15s WALL (       1 calls)

     Called by electrons:
     c_bands      :      0.34s CPU      0.37s WALL (       7 calls)
     sum_band     :      0.10s CPU      0.11s WALL (       7 calls)
     v_of_rho     :      0.03s CPU      0.03s WALL (       7 calls)
     newd         :      0.04s CPU      0.04s WALL (       7 calls)
     PAW_pot      :      0.66s CPU      0.75s WALL (       7 calls)
     mix_rho      :      0.00s CPU      0.00s WALL (       7 calls)

     Called by c_bands:
     init_us_2    :      0.01s CPU      0.02s WALL (     170 calls)
     cegterg      :      0.33s CPU      0.35s WALL (      70 calls)

     Called by sum_band:
     sum_band:bec :      0.00s CPU      0.00s WALL (      70 calls)
     addusdens    :      0.03s CPU      0.03s WALL (       7 calls)

     Called by *egterg:
     h_psi        :      0.25s CPU      0.27s WALL (     234 calls)
     s_psi        :      0.01s CPU      0.01s WALL (     234 calls)
     g_psi        :      0.00s CPU      0.00s WALL (     154 calls)
     cdiaghg      :      0.04s CPU      0.04s WALL (     214 calls)

     Called by h_psi:
     h_psi:pot    :      0.25s CPU      0.27s WALL (     234 calls)
     h_psi:calbec :      0.01s CPU      0.01s WALL (     234 calls)
     vloc_psi     :      0.23s CPU      0.24s WALL (     234 calls)
     add_vuspsi   :      0.01s CPU      0.01s WALL (     234 calls)

     General routines
     calbec       :      0.02s CPU      0.02s WALL (     354 calls)
     fft          :      0.02s CPU      0.02s WALL (     104 calls)
     ffts         :      0.00s CPU      0.00s WALL (       7 calls)
     fftw         :      0.25s CPU      0.27s WALL (    4292 calls)

     Parallel routines
     fft_scatt_xy :      0.02s CPU      0.03s WALL (    4403 calls)
     fft_scatt_yz :      0.08s CPU      0.09s WALL (    4403 calls)

     PWSCF        :     2.22s CPU         2.39s WALL


   This run was terminated on:  23:28:52  25Mar2024            

=------------------------------------------------------------------------------=
   JOB DONE.
=------------------------------------------------------------------------------=
