
     Program PWSCF v.6.3MaX starts on 25Mar2024 at 23:40:33 

     This program is part of the open-source Quantum ESPRESSO suite
     for quantum simulation of materials; please cite
         "P. Giannozzi et al., J. Phys.:Condens. Matter 21 395502 (2009);
         "P. Giannozzi et al., J. Phys.:Condens. Matter 29 465901 (2017);
          URL http://www.quantum-espresso.org", 
     in publications or presentations arising from this work. More details at
     http://www.quantum-espresso.org/quote

     Parallel version (MPI), running on     5 processors

     MPI processes distributed on     1 nodes
     R & G space division:  proc/nbgrp/npool/nimage =       5
     Waiting for input...
     Reading input from standard input

     Current dimensions of program PWSCF are:
     Max number of different atomic species (ntypx) = 10
     Max number of k-points (npk) =  40000
     Max angular momentum in pseudopotentials (lmaxx) =  3
               file Cu.pbe-dn-kjpaw_psl.1.0.0.UPF: wavefunction(s)  4S 3D renormalized

     Subspace diagonalization in iterative solution of the eigenvalue problem:
     a serial algorithm will be used


     Parallelization info
     --------------------
     sticks:   dense  smooth     PW     G-vecs:    dense   smooth      PW
     Min         109     109     33                 1677     1677     294
     Max         110     110     35                 1680     1680     295
     Sum         547     547    169                 8393     8393    1471



     bravais-lattice index     =            2
     lattice parameter (alat)  =       6.8300  a.u.
     unit-cell volume          =      79.6530 (a.u.)^3
     number of atoms/cell      =            1
     number of atomic types    =            1
     number of electrons       =        11.00
     number of Kohn-Sham states=           10
     kinetic-energy cutoff     =      85.0000  Ry
     charge density cutoff     =     340.0000  Ry
     convergence threshold     =      1.0E-08
     mixing beta               =       0.7000
     number of iterations used =            8  plain     mixing
     Exchange-correlation      = SLA PW PBX PBC ( 1  4  3  4 0 0)

     celldm(1)=   6.830000  celldm(2)=   0.000000  celldm(3)=   0.000000
     celldm(4)=   0.000000  celldm(5)=   0.000000  celldm(6)=   0.000000

     crystal axes: (cart. coord. in units of alat)
               a(1) = (  -0.500000   0.000000   0.500000 )  
               a(2) = (   0.000000   0.500000   0.500000 )  
               a(3) = (  -0.500000   0.500000   0.000000 )  

     reciprocal axes: (cart. coord. in units 2 pi/alat)
               b(1) = ( -1.000000 -1.000000  1.000000 )  
               b(2) = (  1.000000  1.000000  1.000000 )  
               b(3) = ( -1.000000  1.000000 -1.000000 )  


     PseudoPot. # 1 for Cu read from file:
     /home/lorenzo/pseudos/Cu/Cu.pbe-dn-kjpaw_psl.1.0.0.UPF
     MD5 check sum: cfffd1f38ee05704b3e17f46f1730a6f
     Pseudo is Projector augmented-wave + core cor, Zval = 11.0
     Generated using "atomic" code by A. Dal Corso v.6.3
     Shape of augmentation charge: PSQ
     Using radial grid of 1199 points,  6 beta functions with: 
                l(1) =   0
                l(2) =   0
                l(3) =   1
                l(4) =   1
                l(5) =   2
                l(6) =   2
     Q(r) pseudized with 0 coefficients 


     atomic species   valence    mass     pseudopotential
        Cu            11.00    63.54600     Cu( 1.00)

     48 Sym. Ops., with inversion, found



   Cartesian axes

     site n.     atom                  positions (alat units)
         1           Cu  tau(   1) = (   0.0000000   0.0000000   0.0000000  )

     number of k points=    56  gaussian smearing, width (Ry)=  0.0100
                       cart. coord. in units 2pi/alat
        k(    1) = (   0.0000000   0.0000000   0.0000000), wk =   0.0015026
        k(    2) = (  -0.0909091   0.0909091  -0.0909091), wk =   0.0120210
        k(    3) = (  -0.1818182   0.1818182  -0.1818182), wk =   0.0120210
        k(    4) = (  -0.2727273   0.2727273  -0.2727273), wk =   0.0120210
        k(    5) = (  -0.3636364   0.3636364  -0.3636364), wk =   0.0120210
        k(    6) = (  -0.4545455   0.4545455  -0.4545455), wk =   0.0120210
        k(    7) = (   0.0000000   0.1818182   0.0000000), wk =   0.0090158
        k(    8) = (  -0.0909091   0.2727273  -0.0909091), wk =   0.0360631
        k(    9) = (  -0.1818182   0.3636364  -0.1818182), wk =   0.0360631
        k(   10) = (  -0.2727273   0.4545455  -0.2727273), wk =   0.0360631
        k(   11) = (  -0.3636364   0.5454545  -0.3636364), wk =   0.0360631
        k(   12) = (   0.5454545  -0.3636364   0.5454545), wk =   0.0360631
        k(   13) = (   0.4545455  -0.2727273   0.4545455), wk =   0.0360631
        k(   14) = (   0.3636364  -0.1818182   0.3636364), wk =   0.0360631
        k(   15) = (   0.2727273  -0.0909091   0.2727273), wk =   0.0360631
        k(   16) = (   0.1818182  -0.0000000   0.1818182), wk =   0.0180316
        k(   17) = (   0.0000000   0.3636364   0.0000000), wk =   0.0090158
        k(   18) = (  -0.0909091   0.4545455  -0.0909091), wk =   0.0360631
        k(   19) = (  -0.1818182   0.5454545  -0.1818182), wk =   0.0360631
        k(   20) = (  -0.2727273   0.6363636  -0.2727273), wk =   0.0360631
        k(   21) = (   0.6363636  -0.2727273   0.6363636), wk =   0.0360631
        k(   22) = (   0.5454545  -0.1818182   0.5454545), wk =   0.0360631
        k(   23) = (   0.4545455  -0.0909091   0.4545455), wk =   0.0360631
        k(   24) = (   0.3636364   0.0000000   0.3636364), wk =   0.0180316
        k(   25) = (   0.0000000   0.5454545   0.0000000), wk =   0.0090158
        k(   26) = (  -0.0909091   0.6363636  -0.0909091), wk =   0.0360631
        k(   27) = (  -0.1818182   0.7272727  -0.1818182), wk =   0.0360631
        k(   28) = (   0.7272727  -0.1818182   0.7272727), wk =   0.0360631
        k(   29) = (   0.6363636  -0.0909091   0.6363636), wk =   0.0360631
        k(   30) = (   0.5454545   0.0000000   0.5454545), wk =   0.0180316
        k(   31) = (   0.0000000   0.7272727   0.0000000), wk =   0.0090158
        k(   32) = (  -0.0909091   0.8181818  -0.0909091), wk =   0.0360631
        k(   33) = (   0.8181818  -0.0909091   0.8181818), wk =   0.0360631
        k(   34) = (   0.7272727   0.0000000   0.7272727), wk =   0.0180316
        k(   35) = (   0.0000000   0.9090909   0.0000000), wk =   0.0090158
        k(   36) = (   0.9090909  -0.0000000   0.9090909), wk =   0.0180316
        k(   37) = (  -0.1818182   0.3636364   0.0000000), wk =   0.0360631
        k(   38) = (  -0.2727273   0.4545455  -0.0909091), wk =   0.0721262
        k(   39) = (  -0.3636364   0.5454545  -0.1818182), wk =   0.0721262
        k(   40) = (   0.5454545  -0.3636364   0.7272727), wk =   0.0721262
        k(   41) = (  -0.1818182   0.5454545   0.0000000), wk =   0.0360631
        k(   42) = (  -0.2727273   0.6363636  -0.0909091), wk =   0.0721262
        k(   43) = (   0.6363636  -0.2727273   0.8181818), wk =   0.0721262
        k(   44) = (   0.5454545  -0.1818182   0.7272727), wk =   0.0721262
        k(   45) = (   0.4545455  -0.0909091   0.6363636), wk =   0.0721262
        k(   46) = (   0.3636364   0.0000000   0.5454545), wk =   0.0360631
        k(   47) = (  -0.1818182   0.7272727   0.0000000), wk =   0.0360631
        k(   48) = (   0.7272727  -0.1818182   0.9090909), wk =   0.0721262
        k(   49) = (   0.6363636  -0.0909091   0.8181818), wk =   0.0721262
        k(   50) = (   0.5454545   0.0000000   0.7272727), wk =   0.0360631
        k(   51) = (   0.8181818  -0.0909091   1.0000000), wk =   0.0360631
        k(   52) = (   0.7272727   0.0000000   0.9090909), wk =   0.0360631
        k(   53) = (   0.6363636  -0.2727273   1.0000000), wk =   0.0360631
        k(   54) = (   0.5454545  -0.1818182   0.9090909), wk =   0.0721262
        k(   55) = (   0.6363636  -0.0909091   1.0000000), wk =   0.0360631
        k(   56) = (   0.5454545   0.0000000   0.9090909), wk =   0.0360631

     Dense  grid:     8393 G-vectors     FFT dimensions: (  30,  30,  30)

     Estimated max dynamical RAM per process >       9.71 MB

     Estimated total dynamical RAM >      48.57 MB

     Initial potential from superposition of free atoms

     starting charge   10.99977, renormalised to   11.00000
     Starting wfcs are    9 randomized atomic wfcs +    1 random wfcs
     Checking if some PAW data can be deallocated... 

     total cpu time spent up to now is        1.3 secs

     Self-consistent Calculation

     iteration #  1     ecut=    85.00 Ry     beta= 0.70
     Davidson diagonalization with overlap
     ethr =  1.00E-02,  avg # of iterations =  3.8

     Threshold (ethr) on eigenvalues was too large:
     Diagonalizing with lowered threshold

     Davidson diagonalization with overlap
     ethr =  5.68E-04,  avg # of iterations =  1.1

     total cpu time spent up to now is        3.3 secs

     total energy              =    -213.06064116 Ry
     Harris-Foulkes estimate   =    -213.10962272 Ry
     estimated scf accuracy    <       0.06218272 Ry

     iteration #  2     ecut=    85.00 Ry     beta= 0.70
     Davidson diagonalization with overlap
     ethr =  5.65E-04,  avg # of iterations =  2.0

     total cpu time spent up to now is        4.2 secs

     total energy              =    -213.06185304 Ry
     Harris-Foulkes estimate   =    -213.14837616 Ry
     estimated scf accuracy    <       0.22469566 Ry

     iteration #  3     ecut=    85.00 Ry     beta= 0.70
     Davidson diagonalization with overlap
     ethr =  5.65E-04,  avg # of iterations =  2.0

     total cpu time spent up to now is        5.0 secs

     total energy              =    -213.09749962 Ry
     Harris-Foulkes estimate   =    -213.09752905 Ry
     estimated scf accuracy    <       0.00007616 Ry

     iteration #  4     ecut=    85.00 Ry     beta= 0.70
     Davidson diagonalization with overlap
     ethr =  6.92E-07,  avg # of iterations =  2.4

     total cpu time spent up to now is        5.9 secs

     total energy              =    -213.09754314 Ry
     Harris-Foulkes estimate   =    -213.09755073 Ry
     estimated scf accuracy    <       0.00002108 Ry

     iteration #  5     ecut=    85.00 Ry     beta= 0.70
     Davidson diagonalization with overlap
     ethr =  1.92E-07,  avg # of iterations =  1.2

     total cpu time spent up to now is        6.6 secs

     total energy              =    -213.09754712 Ry
     Harris-Foulkes estimate   =    -213.09754736 Ry
     estimated scf accuracy    <       0.00000066 Ry

     iteration #  6     ecut=    85.00 Ry     beta= 0.70
     Davidson diagonalization with overlap
     ethr =  5.99E-09,  avg # of iterations =  1.4

     total cpu time spent up to now is        7.3 secs

     End of self-consistent calculation

          k = 0.0000 0.0000 0.0000 (  1067 PWs)   bands (ev):

     3.2679   9.6629   9.6629   9.6629  10.4944  10.4944  35.5878  37.9877
    37.9877  37.9877

          k =-0.0909 0.0909-0.0909 (  1040 PWs)   bands (ev):

     3.5677   9.6005   9.7177   9.7177  10.4745  10.4745  33.2791  36.2881
    37.1470  37.1470

          k =-0.1818 0.1818-0.1818 (  1043 PWs)   bands (ev):

     4.4374   9.4623   9.8151   9.8151  10.4769  10.4769  28.5456  35.8470
    36.0697  36.0697

          k =-0.2727 0.2727-0.2727 (  1053 PWs)   bands (ev):

     5.7422   9.4173   9.8052   9.8052  10.6324  10.6324  24.0221  35.1881
    35.3161  35.3161

          k =-0.3636 0.3636-0.3636 (  1053 PWs)   bands (ev):

     7.0072   9.7108   9.7108   9.9144  10.8768  10.8768  20.0049  34.4840
    34.9062  34.9062

          k =-0.4545 0.4545-0.4545 (  1056 PWs)   bands (ev):

     7.5335   9.6390   9.6390  11.0454  11.0454  11.2673  16.9762  34.0520
    34.7661  34.7661

          k = 0.0000 0.1818 0.0000 (  1038 PWs)   bands (ev):

     3.6671   9.5451   9.7584   9.7584  10.3889  10.5376  34.3656  35.2106
    35.2106  36.6055

          k =-0.0909 0.2727-0.0909 (  1031 PWs)   bands (ev):

     4.3462   9.4049   9.8610   9.8705  10.3154  10.5841  30.3235  33.7349
    34.4879  37.6894

          k =-0.1818 0.3636-0.1818 (  1046 PWs)   bands (ev):

     5.5157   9.2822   9.8210   9.9137  10.4892  10.7157  25.6914  32.7697
    33.8452  36.6942

          k =-0.2727 0.4545-0.2727 (  1055 PWs)   bands (ev):

     6.8525   9.4137   9.6757   9.8455  10.9246  10.9529  21.4706  32.3552
    33.1864  34.6964

          k =-0.3636 0.5455-0.3636 (  1046 PWs)   bands (ev):

     7.6109   9.5445   9.7579  10.0625  11.0652  11.8567  17.9523  32.1330
    32.5469  33.8748

          k = 0.5455-0.3636 0.5455 (  1054 PWs)   bands (ev):

     7.7368   9.5275   9.7210  10.3524  11.0375  12.5899  16.5686  31.0994
    33.3935  34.0220

          k = 0.4545-0.2727 0.4545 (  1053 PWs)   bands (ev):

     7.4581   9.6032   9.7610   9.8864  10.8360  11.6077  19.0174  30.5578
    34.7716  34.8976

          k = 0.3636-0.1818 0.3636 (  1057 PWs)   bands (ev):

     6.4335   9.3559   9.7322   9.8605  10.5417  11.0396  22.8255  30.5634
    36.0329  36.9801

          k = 0.2727-0.0909 0.2727 (  1045 PWs)   bands (ev):

     5.0835   9.3441   9.8291   9.9167  10.3281  10.7131  27.2039  31.0865
    37.4745  38.8595

          k = 0.1818-0.0000 0.1818 (  1041 PWs)   bands (ev):

     4.0581   9.4913   9.8012   9.8032  10.3694  10.5457  31.6041  32.4278
    37.5414  39.0900

          k = 0.0000 0.3636 0.0000 (  1042 PWs)   bands (ev):

     4.8161   9.2343  10.0329  10.0329  10.1405  10.6543  31.9197  31.9197
    32.6781  34.1273

          k =-0.0909 0.4545-0.0909 (  1048 PWs)   bands (ev):

     5.7791   9.0581   9.8836  10.1605  10.4266  10.7665  27.7578  30.6701
    32.3058  33.5640

          k =-0.1818 0.5455-0.1818 (  1048 PWs)   bands (ev):

     7.0027   8.9820   9.6589  10.1421  10.9589  11.0977  23.4144  30.0447
    30.4252  32.9984

          k =-0.2727 0.6364-0.2727 (  1056 PWs)   bands (ev):

     7.8885   9.1150   9.5884  10.0547  11.0891  12.3524  19.5564  28.5872
    30.1048  32.8514

          k = 0.6364-0.2727 0.6364 (  1065 PWs)   bands (ev):

     8.1396   9.2023   9.7565   9.9842  11.0461  14.0355  16.8404  27.1995
    30.8830  33.1132

          k = 0.5455-0.1818 0.5455 (  1059 PWs)   bands (ev):

     8.0724   9.3123   9.5987   9.9751  10.8242  13.0718  18.4700  26.3663
    32.3528  33.8498

          k = 0.4545-0.0909 0.4545 (  1056 PWs)   bands (ev):

     7.4333   9.2163   9.5158  10.0409  10.4958  11.8112  22.0965  26.1284
    34.4312  35.1201

          k = 0.3636 0.0000 0.3636 (  1061 PWs)   bands (ev):

     6.1926   9.1955   9.7206  10.1608  10.1714  11.1323  26.0210  26.7628
    36.8732  37.0027

          k = 0.0000 0.5455 0.0000 (  1046 PWs)   bands (ev):

     6.4548   8.8384  10.0614  10.4403  10.4403  10.8088  29.1241  29.1241
    29.7761  31.4324

          k =-0.0909 0.6364-0.0909 (  1047 PWs)   bands (ev):

     7.3130   8.6874  10.0131  10.5298  10.9646  11.1101  25.6948  27.3622
    28.2280  31.9371

          k =-0.1818 0.7273-0.1818 (  1052 PWs)   bands (ev):

     7.9988   8.6701   9.8513  10.4606  11.1090  12.6312  21.7531  25.2901
    28.0699  32.0500

          k = 0.7273-0.1818 0.7273 (  1051 PWs)   bands (ev):

     8.3785   8.7680   9.7003  10.3647  11.0731  14.9003  18.3094  23.7195
    28.6867  32.2835

          k = 0.6364-0.0909 0.6364 (  1056 PWs)   bands (ev):

     8.5593   8.9232   9.4754  10.2847  10.8639  15.0947  18.2308  22.7242
    30.0316  32.8484

          k = 0.5455 0.0000 0.5455 (  1061 PWs)   bands (ev):

     8.3232   9.1998   9.2064  10.2074  10.6036  13.0999  21.2640  22.7537
    31.9925  33.8166

          k = 0.0000 0.7273 0.0000 (  1042 PWs)   bands (ev):

     7.6001   8.4853  10.8761  10.8761  10.9526  11.1615  24.6760  27.0432
    27.0432  30.6586

          k =-0.0909 0.8182-0.0909 (  1052 PWs)   bands (ev):

     7.8543   8.4103  10.6556  10.8539  11.1216  12.8558  22.5356  24.3230
    26.6182  31.2935

          k = 0.8182-0.0909 0.8182 (  1052 PWs)   bands (ev):

     8.1326   8.4833  10.2620  10.7469  11.1204  15.1297  20.7348  21.1268
    27.0194  31.6735

          k = 0.7273 0.0000 0.7273 (  1059 PWs)   bands (ev):

     8.4544   8.6540   9.7978  10.5703  10.9790  17.4022  17.6858  20.6439
    28.2010  32.1223

          k = 0.0000 0.9091 0.0000 (  1054 PWs)   bands (ev):

     7.7830   8.2802  11.0388  11.1715  11.1715  13.5331  20.5772  25.9092
    25.9092  30.2935

          k = 0.9091-0.0000 0.9091 (  1051 PWs)   bands (ev):

     7.8788   8.3086  10.9037  10.9813  11.1866  14.6492  19.8507  23.8180
    26.0494  31.0940

          k =-0.1818 0.3636 0.0000 (  1042 PWs)   bands (ev):

     5.1783   9.2417   9.8582  10.0439  10.2677  10.7365  28.8763  29.5161
    35.7904  36.2700

          k =-0.2727 0.4545-0.0909 (  1045 PWs)   bands (ev):

     6.4101   9.1323   9.6867  10.0867  10.4765  11.0995  24.6423  28.5433
    33.5279  36.4205

          k =-0.3636 0.5455-0.1818 (  1054 PWs)   bands (ev):

     7.5614   9.2795   9.5193   9.9942  10.8209  11.8176  20.5937  28.3838
    31.4887  35.8704

          k = 0.5455-0.3636 0.7273 (  1055 PWs)   bands (ev):

     7.9962   9.3240   9.7909   9.9226  11.0096  13.2289  17.3519  28.7866
    29.9419  35.5084

          k =-0.1818 0.5455 0.0000 (  1048 PWs)   bands (ev):

     6.7582   8.8934   9.7382  10.4405  10.5273  11.0913  26.5927  27.1449
    30.2612  34.5291

          k =-0.2727 0.6364-0.0909 (  1053 PWs)   bands (ev):

     7.7685   8.8479   9.5411  10.3940  10.8591  11.9878  22.6710  26.5585
    28.0368  34.9720

          k = 0.6364-0.2727 0.8182 (  1058 PWs)   bands (ev):

     8.3176   8.9309   9.4892  10.2740  11.0308  13.7425  19.0040  26.1919
    26.9127  35.1039

          k = 0.5455-0.1818 0.7273 (  1058 PWs)   bands (ev):

     8.4731   8.9706   9.5130  10.1955  10.9868  15.1302  17.1923  24.9844
    27.7874  35.6200

          k = 0.4545-0.0909 0.6364 (  1057 PWs)   bands (ev):

     8.3206   9.1107   9.2690  10.2349  10.7717  13.2210  20.1590  24.3372
    29.2564  36.6512

          k = 0.3636 0.0000 0.5455 (  1053 PWs)   bands (ev):

     7.5357   9.0379   9.4431  10.3034  10.4688  11.8621  23.6922  24.6339
    31.2121  38.1233

          k =-0.1818 0.7273 0.0000 (  1048 PWs)   bands (ev):

     7.8321   8.5769  10.0531  10.8466  10.8739  12.1629  24.8621  24.9220
    25.5121  33.3757

          k = 0.7273-0.1818 0.9091 (  1062 PWs)   bands (ev):

     8.2094   8.6103   9.8707  10.6745  11.0806  14.0976  21.3653  23.1098
    25.3090  34.1717

          k = 0.6364-0.0909 0.8182 (  1062 PWs)   bands (ev):

     8.5136   8.7231   9.6147  10.4992  11.0569  16.6298  18.1185  21.8100
    26.0666  34.7048

          k = 0.5455 0.0000 0.7273 (  1058 PWs)   bands (ev):

     8.7457   8.8367   9.2927  10.3848  10.8899  15.2654  19.4228  21.5736
    27.4201  35.5840

          k = 0.8182-0.0909 1.0000 (  1052 PWs)   bands (ev):

     7.9697   8.3916  10.5432  10.9213  11.1712  14.4398  20.7876  23.8977
    24.5062  32.8198

          k = 0.7273 0.0000 0.9091 (  1059 PWs)   bands (ev):

     8.1998   8.5266  10.1188  10.7376  11.1689  16.1663  20.1362  20.9463
    24.8533  33.9165

          k = 0.6364-0.2727 1.0000 (  1056 PWs)   bands (ev):

     8.3829   8.8518   9.3283  10.5546  10.8721  13.5125  21.9630  23.1850
    25.9246  37.8990

          k = 0.5455-0.1818 0.9091 (  1061 PWs)   bands (ev):

     8.6501   8.8969   9.2602  10.4291  11.0448  15.7664  18.8795  23.2405
    24.3204  38.3690

          k = 0.6364-0.0909 1.0000 (  1061 PWs)   bands (ev):

     8.3887   8.7333   9.6484  10.5978  11.1703  16.2075  21.0048  21.4795
    22.4820  37.2704

          k = 0.5455 0.0000 0.9091 (  1057 PWs)   bands (ev):

     8.5503   8.9581   9.3173  10.4644  11.1689  18.3400  18.3739  20.9999
    22.8986  38.6134

     the Fermi energy is    12.7579 ev

!    total energy              =    -213.09754723 Ry
     Harris-Foulkes estimate   =    -213.09754723 Ry
     estimated scf accuracy    <          5.1E-10 Ry

     total all-electron energy =     -3309.977313 Ry

     The total energy is the sum of the following terms:

     one-electron contribution =     -28.01175523 Ry
     hartree contribution      =      30.61355985 Ry
     xc contribution           =     -44.62762604 Ry
     ewald contribution        =     -81.22522855 Ry
     one-center paw contrib.   =     -89.84637117 Ry
     smearing contrib. (-TS)   =      -0.00012611 Ry

     convergence has been achieved in   6 iterations

     Forces acting on atoms (cartesian axes, Ry/au):

     atom    1 type  1   force =     0.00000000    0.00000000    0.00000000

     Total force =     0.000000     Total SCF correction =     0.000000


     Computing stress (Cartesian axis) and pressure

          total   stress  (Ry/bohr**3)                   (kbar)     P=   16.46
   0.00011189   0.00000000   0.00000000         16.46      0.00      0.00
   0.00000000   0.00011189  -0.00000000          0.00     16.46     -0.00
   0.00000000  -0.00000000   0.00011189          0.00     -0.00     16.46


     Writing output data file Cu.save/

     init_run     :      0.49s CPU      0.52s WALL (       1 calls)
     electrons    :      5.67s CPU      5.94s WALL (       1 calls)
     forces       :      0.07s CPU      0.07s WALL (       1 calls)
     stress       :      0.26s CPU      0.26s WALL (       1 calls)

     Called by init_run:
     wfcinit      :      0.18s CPU      0.19s WALL (       1 calls)
     potinit      :      0.11s CPU      0.11s WALL (       1 calls)
     hinit0       :      0.18s CPU      0.19s WALL (       1 calls)

     Called by electrons:
     c_bands      :      3.99s CPU      4.14s WALL (       7 calls)
     sum_band     :      0.91s CPU      0.94s WALL (       7 calls)
     v_of_rho     :      0.04s CPU      0.04s WALL (       7 calls)
     newd         :      0.06s CPU      0.07s WALL (       7 calls)
     PAW_pot      :      0.76s CPU      0.85s WALL (       7 calls)
     mix_rho      :      0.00s CPU      0.00s WALL (       7 calls)

     Called by c_bands:
     init_us_2    :      0.13s CPU      0.13s WALL (     952 calls)
     cegterg      :      3.80s CPU      3.95s WALL (     392 calls)

     Called by sum_band:
     sum_band:bec :      0.00s CPU      0.00s WALL (     392 calls)
     addusdens    :      0.06s CPU      0.06s WALL (       7 calls)

     Called by *egterg:
     h_psi        :      3.10s CPU      3.22s WALL (    1232 calls)
     s_psi        :      0.08s CPU      0.09s WALL (    1232 calls)
     g_psi        :      0.01s CPU      0.01s WALL (     784 calls)
     cdiaghg      :      0.25s CPU      0.26s WALL (    1120 calls)

     Called by h_psi:
     h_psi:pot    :      3.09s CPU      3.21s WALL (    1232 calls)
     h_psi:calbec :      0.15s CPU      0.16s WALL (    1232 calls)
     vloc_psi     :      2.84s CPU      2.96s WALL (    1232 calls)
     add_vuspsi   :      0.09s CPU      0.09s WALL (    1232 calls)

     General routines
     calbec       :      0.28s CPU      0.29s WALL (    1904 calls)
     fft          :      0.03s CPU      0.03s WALL (     104 calls)
     ffts         :      0.00s CPU      0.00s WALL (       7 calls)
     fftw         :      3.33s CPU      3.46s WALL (   23668 calls)

     Parallel routines
     fft_scatt_xy :      0.25s CPU      0.26s WALL (   23779 calls)
     fft_scatt_yz :      1.19s CPU      1.23s WALL (   23779 calls)

     PWSCF        :     7.39s CPU         7.79s WALL


   This run was terminated on:  23:40:41  25Mar2024            

=------------------------------------------------------------------------------=
   JOB DONE.
=------------------------------------------------------------------------------=
