
     Program PWSCF v.6.3MaX starts on 25Mar2024 at 23:25: 3 

     This program is part of the open-source Quantum ESPRESSO suite
     for quantum simulation of materials; please cite
         "P. Giannozzi et al., J. Phys.:Condens. Matter 21 395502 (2009);
         "P. Giannozzi et al., J. Phys.:Condens. Matter 29 465901 (2017);
          URL http://www.quantum-espresso.org", 
     in publications or presentations arising from this work. More details at
     http://www.quantum-espresso.org/quote

     Parallel version (MPI), running on     5 processors

     MPI processes distributed on     1 nodes
     R & G space division:  proc/nbgrp/npool/nimage =       5
     Waiting for input...
     Reading input from standard input

     Current dimensions of program PWSCF are:
     Max number of different atomic species (ntypx) = 10
     Max number of k-points (npk) =  40000
     Max angular momentum in pseudopotentials (lmaxx) =  3
               file Cu.pbesol-dn-kjpaw_psl.1.0.0.UPF: wavefunction(s)  4S 3D renormalized

     Subspace diagonalization in iterative solution of the eigenvalue problem:
     a serial algorithm will be used


     Parallelization info
     --------------------
     sticks:   dense  smooth     PW     G-vecs:    dense   smooth      PW
     Min          62      62     21                  765      765     148
     Max          63      63     22                  770      770     151
     Sum         313     313    109                 3839     3839     749



     bravais-lattice index     =            2
     lattice parameter (alat)  =       6.8300  a.u.
     unit-cell volume          =      79.6530 (a.u.)^3
     number of atoms/cell      =            1
     number of atomic types    =            1
     number of electrons       =        11.00
     number of Kohn-Sham states=           10
     kinetic-energy cutoff     =      50.0000  Ry
     charge density cutoff     =     200.0000  Ry
     convergence threshold     =      1.0E-08
     mixing beta               =       0.7000
     number of iterations used =            8  plain     mixing
     Exchange-correlation      = SLA PW PSX PSC ( 1  4 10  8 0 0)

     celldm(1)=   6.830000  celldm(2)=   0.000000  celldm(3)=   0.000000
     celldm(4)=   0.000000  celldm(5)=   0.000000  celldm(6)=   0.000000

     crystal axes: (cart. coord. in units of alat)
               a(1) = (  -0.500000   0.000000   0.500000 )  
               a(2) = (   0.000000   0.500000   0.500000 )  
               a(3) = (  -0.500000   0.500000   0.000000 )  

     reciprocal axes: (cart. coord. in units 2 pi/alat)
               b(1) = ( -1.000000 -1.000000  1.000000 )  
               b(2) = (  1.000000  1.000000  1.000000 )  
               b(3) = ( -1.000000  1.000000 -1.000000 )  


     PseudoPot. # 1 for Cu read from file:
     /home/lorenzo/pseudos/Cu/Cu.pbesol-dn-kjpaw_psl.1.0.0.UPF
     MD5 check sum: 1e9735a74797514c934643dbd229f231
     Pseudo is Projector augmented-wave + core cor, Zval = 11.0
     Generated using "atomic" code by A. Dal Corso v.6.3
     Shape of augmentation charge: PSQ
     Using radial grid of 1199 points,  6 beta functions with: 
                l(1) =   0
                l(2) =   0
                l(3) =   1
                l(4) =   1
                l(5) =   2
                l(6) =   2
     Q(r) pseudized with 0 coefficients 


     atomic species   valence    mass     pseudopotential
        Cu            11.00    63.54600     Cu( 1.00)

     48 Sym. Ops., with inversion, found



   Cartesian axes

     site n.     atom                  positions (alat units)
         1           Cu  tau(   1) = (   0.0000000   0.0000000   0.0000000  )

     number of k points=    29  gaussian smearing, width (Ry)=  0.0100
                       cart. coord. in units 2pi/alat
        k(    1) = (   0.0000000   0.0000000   0.0000000), wk =   0.0039062
        k(    2) = (  -0.1250000   0.1250000  -0.1250000), wk =   0.0312500
        k(    3) = (  -0.2500000   0.2500000  -0.2500000), wk =   0.0312500
        k(    4) = (  -0.3750000   0.3750000  -0.3750000), wk =   0.0312500
        k(    5) = (   0.5000000  -0.5000000   0.5000000), wk =   0.0156250
        k(    6) = (   0.0000000   0.2500000   0.0000000), wk =   0.0234375
        k(    7) = (  -0.1250000   0.3750000  -0.1250000), wk =   0.0937500
        k(    8) = (  -0.2500000   0.5000000  -0.2500000), wk =   0.0937500
        k(    9) = (   0.6250000  -0.3750000   0.6250000), wk =   0.0937500
        k(   10) = (   0.5000000  -0.2500000   0.5000000), wk =   0.0937500
        k(   11) = (   0.3750000  -0.1250000   0.3750000), wk =   0.0937500
        k(   12) = (   0.2500000   0.0000000   0.2500000), wk =   0.0468750
        k(   13) = (   0.0000000   0.5000000   0.0000000), wk =   0.0234375
        k(   14) = (  -0.1250000   0.6250000  -0.1250000), wk =   0.0937500
        k(   15) = (   0.7500000  -0.2500000   0.7500000), wk =   0.0937500
        k(   16) = (   0.6250000  -0.1250000   0.6250000), wk =   0.0937500
        k(   17) = (   0.5000000   0.0000000   0.5000000), wk =   0.0468750
        k(   18) = (   0.0000000   0.7500000   0.0000000), wk =   0.0234375
        k(   19) = (   0.8750000  -0.1250000   0.8750000), wk =   0.0937500
        k(   20) = (   0.7500000   0.0000000   0.7500000), wk =   0.0468750
        k(   21) = (   0.0000000  -1.0000000   0.0000000), wk =   0.0117188
        k(   22) = (  -0.2500000   0.5000000   0.0000000), wk =   0.0937500
        k(   23) = (   0.6250000  -0.3750000   0.8750000), wk =   0.1875000
        k(   24) = (   0.5000000  -0.2500000   0.7500000), wk =   0.0937500
        k(   25) = (   0.7500000  -0.2500000   1.0000000), wk =   0.0937500
        k(   26) = (   0.6250000  -0.1250000   0.8750000), wk =   0.1875000
        k(   27) = (   0.5000000   0.0000000   0.7500000), wk =   0.0937500
        k(   28) = (  -0.2500000  -1.0000000   0.0000000), wk =   0.0468750
        k(   29) = (  -0.5000000  -1.0000000   0.0000000), wk =   0.0234375

     Dense  grid:     3839 G-vectors     FFT dimensions: (  24,  24,  24)

     Estimated max dynamical RAM per process >       4.57 MB

     Estimated total dynamical RAM >      22.87 MB

     Check: negative/imaginary core charge=   -0.000002    0.000000

     Initial potential from superposition of free atoms

     starting charge   10.99979, renormalised to   11.00000
     Starting wfcs are    9 randomized atomic wfcs +    1 random wfcs
     Checking if some PAW data can be deallocated... 

     total cpu time spent up to now is        1.1 secs

     Self-consistent Calculation

     iteration #  1     ecut=    50.00 Ry     beta= 0.70
     Davidson diagonalization with overlap
     ethr =  1.00E-02,  avg # of iterations =  3.6

     Threshold (ethr) on eigenvalues was too large:
     Diagonalizing with lowered threshold

     Davidson diagonalization with overlap
     ethr =  6.88E-04,  avg # of iterations =  1.0

     total cpu time spent up to now is        1.7 secs

     total energy              =    -210.37178231 Ry
     Harris-Foulkes estimate   =    -210.43215504 Ry
     estimated scf accuracy    <       0.07548542 Ry

     iteration #  2     ecut=    50.00 Ry     beta= 0.70
     Davidson diagonalization with overlap
     ethr =  6.86E-04,  avg # of iterations =  2.1

     total cpu time spent up to now is        1.9 secs

     total energy              =    -210.37392946 Ry
     Harris-Foulkes estimate   =    -210.48175428 Ry
     estimated scf accuracy    <       0.28192203 Ry

     iteration #  3     ecut=    50.00 Ry     beta= 0.70
     Davidson diagonalization with overlap
     ethr =  6.86E-04,  avg # of iterations =  2.0

     total cpu time spent up to now is        2.3 secs

     total energy              =    -210.41741802 Ry
     Harris-Foulkes estimate   =    -210.41752370 Ry
     estimated scf accuracy    <       0.00021574 Ry

     iteration #  4     ecut=    50.00 Ry     beta= 0.70
     Davidson diagonalization with overlap
     ethr =  1.96E-06,  avg # of iterations =  2.7

     total cpu time spent up to now is        2.6 secs

     total energy              =    -210.41750116 Ry
     Harris-Foulkes estimate   =    -210.41751271 Ry
     estimated scf accuracy    <       0.00003028 Ry

     iteration #  5     ecut=    50.00 Ry     beta= 0.70
     Davidson diagonalization with overlap
     ethr =  2.75E-07,  avg # of iterations =  1.1

     total cpu time spent up to now is        2.9 secs

     total energy              =    -210.41750681 Ry
     Harris-Foulkes estimate   =    -210.41750706 Ry
     estimated scf accuracy    <       0.00000064 Ry

     iteration #  6     ecut=    50.00 Ry     beta= 0.70
     Davidson diagonalization with overlap
     ethr =  5.84E-09,  avg # of iterations =  2.2

     total cpu time spent up to now is        3.2 secs

     End of self-consistent calculation

          k = 0.0000 0.0000 0.0000 (   531 PWs)   bands (ev):

     3.0442   9.4824   9.4824   9.4824  10.3251  10.3251  35.3784  37.7523
    37.7523  37.7523

          k =-0.1250 0.1250-0.1250 (   495 PWs)   bands (ev):

     3.6072   9.3710   9.5783   9.5783  10.2963  10.2963  31.2996  35.9112
    36.4800  36.4800

          k =-0.2500 0.2500-0.2500 (   483 PWs)   bands (ev):

     5.1686   9.2188   9.6434   9.6434  10.4086  10.4086  24.8964  35.1635
    35.2351  35.2351

          k =-0.3750 0.3750-0.3750 (   477 PWs)   bands (ev):

     6.9077   9.5228   9.5228   9.8474  10.7357  10.7357  19.3423  34.2028
    34.6352  34.6352

          k = 0.5000-0.5000 0.5000 (   476 PWs)   bands (ev):

     7.3808   9.4526   9.4526  10.9005  10.9005  11.4047  16.2237  33.7869
    34.5082  34.5082

          k = 0.0000 0.2500 0.0000 (   495 PWs)   bands (ev):

     3.7929   9.2655   9.6630   9.6630  10.1338  10.4062  33.4867  33.7014
    33.7014  35.5372

          k =-0.1250 0.3750-0.1250 (   482 PWs)   bands (ev):

     5.0232   9.0481   9.6989   9.8118  10.1997  10.5286  27.3465  31.9034
    33.2964  35.7184

          k =-0.2500 0.5000-0.2500 (   471 PWs)   bands (ev):

     6.8092   9.0743   9.4587   9.7540  10.7954  10.9369  21.4313  31.1884
    31.9164  33.5590

          k = 0.6250-0.3750 0.6250 (   473 PWs)   bands (ev):

     7.6413   9.2488   9.6425   9.8087  10.9119  12.5917  16.8996  29.9320
    31.6951  33.2928

          k = 0.5000-0.2500 0.5000 (   477 PWs)   bands (ev):

     7.5302   9.3216   9.6422   9.6577  10.6912  12.0515  18.1515  28.7738
    33.4951  34.1404

          k = 0.3750-0.1250 0.3750 (   481 PWs)   bands (ev):

     6.2389   9.0788   9.5303   9.7720  10.2644  10.9822  23.3192  28.6904
    36.0578  36.4841

          k = 0.2500 0.0000 0.2500 (   481 PWs)   bands (ev):

     4.5100   9.1910   9.6596   9.7382  10.1161  10.4968  29.2096  29.9216
    38.0797  39.0908

          k = 0.0000 0.5000 0.0000 (   480 PWs)   bands (ev):

     5.8133   8.7547   9.8503  10.1545  10.1545  10.6024  29.5301  29.5301
    30.8397  31.4896

          k =-0.1250 0.6250-0.1250 (   474 PWs)   bands (ev):

     7.1391   8.5592   9.6634  10.2511  10.8226  11.0767  24.3810  27.6024
    28.3395  32.0026

          k = 0.7500-0.2500 0.7500 (   472 PWs)   bands (ev):

     8.0374   8.6238   9.4925  10.1353  10.9414  13.4093  19.1564  25.0188
    28.5315  32.0995

          k = 0.6250-0.1250 0.6250 (   473 PWs)   bands (ev):

     8.2862   8.8119   9.3196  10.0377  10.7108  14.5937  17.7039  23.4262
    30.1286  32.7651

          k = 0.5000 0.0000 0.5000 (   481 PWs)   bands (ev):

     7.7333   8.9654   9.1809   9.9947  10.3191  12.1943  22.1547  23.3574
    32.9064  34.2306

          k = 0.0000 0.7500 0.0000 (   472 PWs)   bands (ev):

     7.4598   8.2643  10.7523  10.7523  10.8017  11.2194  23.8686  26.6079
    26.6079  30.3870

          k = 0.8750-0.1250 0.8750 (   472 PWs)   bands (ev):

     7.7689   8.2163  10.3887  10.6792  10.9827  13.7562  21.1977  22.6835
    26.3299  31.2167

          k = 0.7500 0.0000 0.7500 (   470 PWs)   bands (ev):

     8.1877   8.4183   9.7339  10.4607  10.8442  16.7715  18.1811  20.2896
    27.5947  31.7757

          k = 0.0000-1.0000 0.0000 (   468 PWs)   bands (ev):

     7.5973   8.0664  10.8854  11.0433  11.0433  13.9051  19.5761  25.5232
    25.5232  30.0452

          k =-0.2500 0.5000 0.0000 (   478 PWs)   bands (ev):

     6.4069   8.8335   9.4774  10.1638  10.2067  11.0121  25.7611  26.4382
    31.7319  36.3373

          k = 0.6250-0.3750 0.8750 (   479 PWs)   bands (ev):

     7.8249   8.8798   9.2034  10.0417  10.6641  12.3441  20.4459  25.9118
    28.8292  36.4007

          k = 0.5000-0.2500 0.7500 (   476 PWs)   bands (ev):

     8.1602   8.8773   9.4006   9.9397  10.8432  14.5634  16.7119  26.6489
    27.0072  36.1229

          k = 0.7500-0.2500 1.0000 (   471 PWs)   bands (ev):

     7.8669   8.4441   9.6293  10.6007  10.7489  12.7009  23.3630  24.0982
    24.5203  34.6404

          k = 0.6250-0.1250 0.8750 (   477 PWs)   bands (ev):

     8.3030   8.5681   9.3689  10.3500  10.9227  15.7881  18.8235  22.2193
    24.4509  35.7656

          k = 0.5000 0.0000 0.7500 (   479 PWs)   bands (ev):

     8.5369   8.7433   8.9817  10.2363  10.7532  14.9048  19.6237  21.5839
    26.1713  36.9221

          k =-0.2500-1.0000 0.0000 (   478 PWs)   bands (ev):

     7.9231   8.2828  10.0929  10.6339  11.0435  15.5290  19.8670  22.4549
    23.3610  34.0824

          k =-0.5000-1.0000 0.0000 (   464 PWs)   bands (ev):

     8.3486   8.9591   8.9591  10.2820  11.0441  18.6441  18.6441  20.7750
    21.2313  40.8413

     the Fermi energy is    12.4352 ev

!    total energy              =    -210.41750697 Ry
     Harris-Foulkes estimate   =    -210.41750697 Ry
     estimated scf accuracy    <          1.2E-09 Ry

     total all-electron energy =     -3307.296568 Ry

     The total energy is the sum of the following terms:

     one-electron contribution =     -28.01413670 Ry
     hartree contribution      =      30.53691498 Ry
     xc contribution           =     -44.11375914 Ry
     ewald contribution        =     -81.22522859 Ry
     one-center paw contrib.   =     -87.60087771 Ry
     smearing contrib. (-TS)   =      -0.00041981 Ry

     convergence has been achieved in   6 iterations

     Forces acting on atoms (cartesian axes, Ry/au):

     atom    1 type  1   force =     0.00000000    0.00000000    0.00000000

     Total force =     0.000000     Total SCF correction =     0.000000


     Computing stress (Cartesian axis) and pressure

          total   stress  (Ry/bohr**3)                   (kbar)     P=  -69.99
  -0.00047576   0.00000000   0.00000000        -69.99      0.00      0.00
   0.00000000  -0.00047576  -0.00000000          0.00    -69.99     -0.00
   0.00000000  -0.00000000  -0.00047576          0.00     -0.00    -69.99


     Writing output data file Cu.save/

     init_run     :      0.31s CPU      0.32s WALL (       1 calls)
     electrons    :      1.97s CPU      2.15s WALL (       1 calls)
     forces       :      0.03s CPU      0.03s WALL (       1 calls)
     stress       :      0.08s CPU      0.08s WALL (       1 calls)

     Called by init_run:
     wfcinit      :      0.06s CPU      0.06s WALL (       1 calls)
     potinit      :      0.09s CPU      0.11s WALL (       1 calls)
     hinit0       :      0.13s CPU      0.13s WALL (       1 calls)

     Called by electrons:
     c_bands      :      1.11s CPU      1.18s WALL (       7 calls)
     sum_band     :      0.23s CPU      0.24s WALL (       7 calls)
     v_of_rho     :      0.02s CPU      0.02s WALL (       7 calls)
     newd         :      0.03s CPU      0.03s WALL (       7 calls)
     PAW_pot      :      0.66s CPU      0.76s WALL (       7 calls)
     mix_rho      :      0.00s CPU      0.00s WALL (       7 calls)

     Called by c_bands:
     init_us_2    :      0.03s CPU      0.03s WALL (     493 calls)
     cegterg      :      1.06s CPU      1.13s WALL (     203 calls)

     Called by sum_band:
     sum_band:bec :      0.00s CPU      0.00s WALL (     203 calls)
     addusdens    :      0.03s CPU      0.03s WALL (       7 calls)

     Called by *egterg:
     h_psi        :      0.84s CPU      0.89s WALL (     657 calls)
     s_psi        :      0.03s CPU      0.03s WALL (     657 calls)
     g_psi        :      0.00s CPU      0.00s WALL (     425 calls)
     cdiaghg      :      0.13s CPU      0.13s WALL (     599 calls)

     Called by h_psi:
     h_psi:pot    :      0.83s CPU      0.89s WALL (     657 calls)
     h_psi:calbec :      0.04s CPU      0.04s WALL (     657 calls)
     vloc_psi     :      0.76s CPU      0.81s WALL (     657 calls)
     add_vuspsi   :      0.03s CPU      0.03s WALL (     657 calls)

     General routines
     calbec       :      0.07s CPU      0.07s WALL (    1005 calls)
     fft          :      0.01s CPU      0.01s WALL (     104 calls)
     ffts         :      0.00s CPU      0.00s WALL (       7 calls)
     fftw         :      0.85s CPU      0.91s WALL (   12314 calls)

     Parallel routines
     fft_scatt_xy :      0.08s CPU      0.08s WALL (   12425 calls)
     fft_scatt_yz :      0.24s CPU      0.26s WALL (   12425 calls)

     PWSCF        :     3.16s CPU         3.42s WALL


   This run was terminated on:  23:25: 6  25Mar2024            

=------------------------------------------------------------------------------=
   JOB DONE.
=------------------------------------------------------------------------------=
