
     Program PWSCF v.6.3MaX starts on 25Mar2024 at 23:22:24 

     This program is part of the open-source Quantum ESPRESSO suite
     for quantum simulation of materials; please cite
         "P. Giannozzi et al., J. Phys.:Condens. Matter 21 395502 (2009);
         "P. Giannozzi et al., J. Phys.:Condens. Matter 29 465901 (2017);
          URL http://www.quantum-espresso.org", 
     in publications or presentations arising from this work. More details at
     http://www.quantum-espresso.org/quote

     Parallel version (MPI), running on     5 processors

     MPI processes distributed on     1 nodes
     R & G space division:  proc/nbgrp/npool/nimage =       5
     Waiting for input...
     Reading input from standard input

     Current dimensions of program PWSCF are:
     Max number of different atomic species (ntypx) = 10
     Max number of k-points (npk) =  40000
     Max angular momentum in pseudopotentials (lmaxx) =  3
               file Cu.pbesol-dn-rrkjus_psl.1.0.0.UPF: wavefunction(s)  3D renormalized

     Subspace diagonalization in iterative solution of the eigenvalue problem:
     a serial algorithm will be used


     Parallelization info
     --------------------
     sticks:   dense  smooth     PW     G-vecs:    dense   smooth      PW
     Min          59      59     18                  657      657     121
     Max          59      59     19                  658      658     123
     Sum         295     295     91                 3287     3287     609



     bravais-lattice index     =            2
     lattice parameter (alat)  =       6.8300  a.u.
     unit-cell volume          =      79.6530 (a.u.)^3
     number of atoms/cell      =            1
     number of atomic types    =            1
     number of electrons       =        11.00
     number of Kohn-Sham states=           10
     kinetic-energy cutoff     =      45.0000  Ry
     charge density cutoff     =     180.0000  Ry
     convergence threshold     =      1.0E-08
     mixing beta               =       0.7000
     number of iterations used =            8  plain     mixing
     Exchange-correlation      = PBESOL ( 1  4 10  8 0 0)

     celldm(1)=   6.830000  celldm(2)=   0.000000  celldm(3)=   0.000000
     celldm(4)=   0.000000  celldm(5)=   0.000000  celldm(6)=   0.000000

     crystal axes: (cart. coord. in units of alat)
               a(1) = (  -0.500000   0.000000   0.500000 )  
               a(2) = (   0.000000   0.500000   0.500000 )  
               a(3) = (  -0.500000   0.500000   0.000000 )  

     reciprocal axes: (cart. coord. in units 2 pi/alat)
               b(1) = ( -1.000000 -1.000000  1.000000 )  
               b(2) = (  1.000000  1.000000  1.000000 )  
               b(3) = ( -1.000000  1.000000 -1.000000 )  


     PseudoPot. # 1 for Cu read from file:
     /home/lorenzo/pseudos/Cu/Cu.pbesol-dn-rrkjus_psl.1.0.0.UPF
     MD5 check sum: bfa4c7aafbc42e028d5f4ccf7ceed93d
     Pseudo is Ultrasoft + core correction, Zval = 11.0
     Generated using "atomic" code by A. Dal Corso v.6.3
     Using radial grid of 1199 points,  6 beta functions with: 
                l(1) =   0
                l(2) =   0
                l(3) =   1
                l(4) =   1
                l(5) =   2
                l(6) =   2
     Q(r) pseudized with 0 coefficients 


     atomic species   valence    mass     pseudopotential
        Cu            11.00    63.54600     Cu( 1.00)

     48 Sym. Ops., with inversion, found



   Cartesian axes

     site n.     atom                  positions (alat units)
         1           Cu  tau(   1) = (   0.0000000   0.0000000   0.0000000  )

     number of k points=    10  gaussian smearing, width (Ry)=  0.0100
                       cart. coord. in units 2pi/alat
        k(    1) = (   0.0000000   0.0000000   0.0000000), wk =   0.0160000
        k(    2) = (  -0.2000000   0.2000000  -0.2000000), wk =   0.1280000
        k(    3) = (  -0.4000000   0.4000000  -0.4000000), wk =   0.1280000
        k(    4) = (   0.0000000   0.4000000   0.0000000), wk =   0.0960000
        k(    5) = (  -0.2000000   0.6000000  -0.2000000), wk =   0.3840000
        k(    6) = (   0.6000000  -0.2000000   0.6000000), wk =   0.3840000
        k(    7) = (   0.4000000   0.0000000   0.4000000), wk =   0.1920000
        k(    8) = (   0.0000000   0.8000000   0.0000000), wk =   0.0960000
        k(    9) = (   0.8000000   0.0000000   0.8000000), wk =   0.1920000
        k(   10) = (   0.6000000  -0.2000000   1.0000000), wk =   0.3840000

     Dense  grid:     3287 G-vectors     FFT dimensions: (  24,  24,  24)

     Estimated max dynamical RAM per process >       3.82 MB

     Estimated total dynamical RAM >      19.08 MB

     Check: negative/imaginary core charge=   -0.000008    0.000000

     Initial potential from superposition of free atoms

     starting charge   10.99979, renormalised to   11.00000
     Starting wfcs are    9 randomized atomic wfcs +    1 random wfcs

     total cpu time spent up to now is        0.9 secs

     Self-consistent Calculation

     iteration #  1     ecut=    45.00 Ry     beta= 0.70
     Davidson diagonalization with overlap
     ethr =  1.00E-02,  avg # of iterations =  3.5

     Threshold (ethr) on eigenvalues was too large:
     Diagonalizing with lowered threshold

     Davidson diagonalization with overlap
     ethr =  6.71E-04,  avg # of iterations =  1.0

     total cpu time spent up to now is        1.1 secs

     total energy              =    -122.36976562 Ry
     Harris-Foulkes estimate   =    -122.42807726 Ry
     estimated scf accuracy    <       0.07346877 Ry

     iteration #  2     ecut=    45.00 Ry     beta= 0.70
     Davidson diagonalization with overlap
     ethr =  6.68E-04,  avg # of iterations =  2.3

     total cpu time spent up to now is        1.1 secs

     total energy              =    -122.37344558 Ry
     Harris-Foulkes estimate   =    -122.47695395 Ry
     estimated scf accuracy    <       0.26980264 Ry

     iteration #  3     ecut=    45.00 Ry     beta= 0.70
     Davidson diagonalization with overlap
     ethr =  6.68E-04,  avg # of iterations =  2.2

     total cpu time spent up to now is        1.2 secs

     total energy              =    -122.41442875 Ry
     Harris-Foulkes estimate   =    -122.41458969 Ry
     estimated scf accuracy    <       0.00038865 Ry

     iteration #  4     ecut=    45.00 Ry     beta= 0.70
     Davidson diagonalization with overlap
     ethr =  3.53E-06,  avg # of iterations =  2.1

     total cpu time spent up to now is        1.3 secs

     total energy              =    -122.41455267 Ry
     Harris-Foulkes estimate   =    -122.41455828 Ry
     estimated scf accuracy    <       0.00001598 Ry

     iteration #  5     ecut=    45.00 Ry     beta= 0.70
     Davidson diagonalization with overlap
     ethr =  1.45E-07,  avg # of iterations =  1.7

     total cpu time spent up to now is        1.3 secs

     total energy              =    -122.41455617 Ry
     Harris-Foulkes estimate   =    -122.41455624 Ry
     estimated scf accuracy    <       0.00000018 Ry

     iteration #  6     ecut=    45.00 Ry     beta= 0.70
     Davidson diagonalization with overlap
     ethr =  1.64E-09,  avg # of iterations =  2.3

     total cpu time spent up to now is        1.4 secs

     End of self-consistent calculation

          k = 0.0000 0.0000 0.0000 (   411 PWs)   bands (ev):

     3.0544   9.5423   9.5423   9.5423  10.3782  10.3782  35.3899  37.7607
    37.7607  37.7607

          k =-0.2000 0.2000-0.2000 (   402 PWs)   bands (ev):

     4.4586   9.3113   9.7050   9.7050  10.3783  10.3783  27.4089  35.5359
    35.6714  35.6714

          k =-0.4000 0.4000-0.4000 (   407 PWs)   bands (ev):

     7.1374   9.5533   9.5533  10.2208  10.8496  10.8496  18.4323  34.0655
    34.5960  34.5960

          k = 0.0000 0.4000 0.0000 (   407 PWs)   bands (ev):

     4.9086   9.0319   9.9706   9.9885   9.9885  10.5690  31.0950  31.0950
    32.2024  33.2692

          k =-0.2000 0.6000-0.2000 (   404 PWs)   bands (ev):

     7.2978   8.7933   9.4907  10.0669  10.9209  11.4092  22.0280  28.7847
    29.3381  32.5005

          k = 0.6000-0.2000 0.6000 (   404 PWs)   bands (ev):

     8.0885   9.0388   9.5208   9.9131  10.8238  13.9535  17.1151  25.6582
    30.9784  33.0935

          k = 0.4000 0.0000 0.4000 (   409 PWs)   bands (ev):

     6.4952   9.0297   9.5179  10.0325  10.1325  11.2476  24.8037  25.6050
    35.6952  35.9453

          k = 0.0000 0.8000 0.0000 (   404 PWs)   bands (ev):

     7.5761   8.2485  10.8846  10.9121  10.9121  11.8825  22.6405  26.2372
    26.2372  30.2919

          k = 0.8000 0.0000 0.8000 (   405 PWs)   bands (ev):

     8.0469   8.3622  10.0811  10.6415  10.9772  15.9390  19.6956  20.1916
    26.8872  31.5308

          k = 0.6000-0.2000 1.0000 (   408 PWs)   bands (ev):

     8.3734   8.7458   9.1734  10.4162  10.9070  14.6899  20.7306  22.2335
    24.0632  38.3625

     the Fermi energy is    11.9028 ev

!    total energy              =    -122.41455622 Ry
     Harris-Foulkes estimate   =    -122.41455622 Ry
     estimated scf accuracy    <          2.3E-10 Ry

     The total energy is the sum of the following terms:

     one-electron contribution =     -27.63223216 Ry
     hartree contribution      =      30.56280069 Ry
     xc contribution           =     -44.11963124 Ry
     ewald contribution        =     -81.22522862 Ry
     smearing contrib. (-TS)   =      -0.00026488 Ry

     convergence has been achieved in   6 iterations

     Forces acting on atoms (cartesian axes, Ry/au):

     atom    1 type  1   force =     0.00000000    0.00000000    0.00000000

     Total force =     0.000000     Total SCF correction =     0.000000


     Computing stress (Cartesian axis) and pressure

          total   stress  (Ry/bohr**3)                   (kbar)     P=  -82.10
  -0.00055808  -0.00000000  -0.00000000        -82.10     -0.00     -0.00
  -0.00000000  -0.00055808   0.00000000         -0.00    -82.10      0.00
  -0.00000000   0.00000000  -0.00055808         -0.00      0.00    -82.10


     Writing output data file Cu.save/

     init_run     :      0.21s CPU      0.21s WALL (       1 calls)
     electrons    :      0.47s CPU      0.50s WALL (       1 calls)
     forces       :      0.01s CPU      0.02s WALL (       1 calls)
     stress       :      0.04s CPU      0.04s WALL (       1 calls)

     Called by init_run:
     wfcinit      :      0.03s CPU      0.03s WALL (       1 calls)
     potinit      :      0.01s CPU      0.01s WALL (       1 calls)
     hinit0       :      0.17s CPU      0.17s WALL (       1 calls)

     Called by electrons:
     c_bands      :      0.35s CPU      0.36s WALL (       7 calls)
     sum_band     :      0.09s CPU      0.09s WALL (       7 calls)
     v_of_rho     :      0.02s CPU      0.02s WALL (       7 calls)
     newd         :      0.02s CPU      0.03s WALL (       7 calls)
     mix_rho      :      0.00s CPU      0.00s WALL (       7 calls)

     Called by c_bands:
     init_us_2    :      0.01s CPU      0.01s WALL (     170 calls)
     cegterg      :      0.34s CPU      0.35s WALL (      70 calls)

     Called by sum_band:
     sum_band:bec :      0.00s CPU      0.00s WALL (      70 calls)
     addusdens    :      0.02s CPU      0.02s WALL (       7 calls)

     Called by *egterg:
     h_psi        :      0.27s CPU      0.28s WALL (     231 calls)
     s_psi        :      0.01s CPU      0.01s WALL (     231 calls)
     g_psi        :      0.00s CPU      0.00s WALL (     151 calls)
     cdiaghg      :      0.04s CPU      0.04s WALL (     211 calls)

     Called by h_psi:
     h_psi:pot    :      0.27s CPU      0.28s WALL (     231 calls)
     h_psi:calbec :      0.01s CPU      0.01s WALL (     231 calls)
     vloc_psi     :      0.25s CPU      0.26s WALL (     231 calls)
     add_vuspsi   :      0.01s CPU      0.01s WALL (     231 calls)

     General routines
     calbec       :      0.02s CPU      0.02s WALL (     351 calls)
     fft          :      0.01s CPU      0.01s WALL (     104 calls)
     ffts         :      0.00s CPU      0.00s WALL (       7 calls)
     fftw         :      0.27s CPU      0.29s WALL (    4230 calls)

     Parallel routines
     fft_scatt_xy :      0.02s CPU      0.03s WALL (    4341 calls)
     fft_scatt_yz :      0.10s CPU      0.11s WALL (    4341 calls)

     PWSCF        :     1.45s CPU         1.52s WALL


   This run was terminated on:  23:22:26  25Mar2024            

=------------------------------------------------------------------------------=
   JOB DONE.
=------------------------------------------------------------------------------=
