
     Program PWSCF v.6.3MaX starts on 25Mar2024 at 23:34:30 

     This program is part of the open-source Quantum ESPRESSO suite
     for quantum simulation of materials; please cite
         "P. Giannozzi et al., J. Phys.:Condens. Matter 21 395502 (2009);
         "P. Giannozzi et al., J. Phys.:Condens. Matter 29 465901 (2017);
          URL http://www.quantum-espresso.org", 
     in publications or presentations arising from this work. More details at
     http://www.quantum-espresso.org/quote

     Parallel version (MPI), running on     5 processors

     MPI processes distributed on     1 nodes
     R & G space division:  proc/nbgrp/npool/nimage =       5
     Waiting for input...
     Reading input from standard input

     Current dimensions of program PWSCF are:
     Max number of different atomic species (ntypx) = 10
     Max number of k-points (npk) =  40000
     Max angular momentum in pseudopotentials (lmaxx) =  3
               file Cu.pbe-dn-rrkjus_psl.1.0.0.UPF: wavefunction(s)  3D renormalized

     Subspace diagonalization in iterative solution of the eigenvalue problem:
     a serial algorithm will be used


     Parallelization info
     --------------------
     sticks:   dense  smooth     PW     G-vecs:    dense   smooth      PW
     Min          87      87     30                 1245     1245     241
     Max          88      88     31                 1247     1247     244
     Sum         439     439    151                 6231     6231    1211



     bravais-lattice index     =            2
     lattice parameter (alat)  =       6.8300  a.u.
     unit-cell volume          =      79.6530 (a.u.)^3
     number of atoms/cell      =            1
     number of atomic types    =            1
     number of electrons       =        11.00
     number of Kohn-Sham states=           10
     kinetic-energy cutoff     =      70.0000  Ry
     charge density cutoff     =     280.0000  Ry
     convergence threshold     =      1.0E-08
     mixing beta               =       0.7000
     number of iterations used =            8  plain     mixing
     Exchange-correlation      = PBE ( 1  4  3  4 0 0)

     celldm(1)=   6.830000  celldm(2)=   0.000000  celldm(3)=   0.000000
     celldm(4)=   0.000000  celldm(5)=   0.000000  celldm(6)=   0.000000

     crystal axes: (cart. coord. in units of alat)
               a(1) = (  -0.500000   0.000000   0.500000 )  
               a(2) = (   0.000000   0.500000   0.500000 )  
               a(3) = (  -0.500000   0.500000   0.000000 )  

     reciprocal axes: (cart. coord. in units 2 pi/alat)
               b(1) = ( -1.000000 -1.000000  1.000000 )  
               b(2) = (  1.000000  1.000000  1.000000 )  
               b(3) = ( -1.000000  1.000000 -1.000000 )  


     PseudoPot. # 1 for Cu read from file:
     /home/lorenzo/pseudos/Cu/Cu.pbe-dn-rrkjus_psl.1.0.0.UPF
     MD5 check sum: ba3d6c84e19846e79d48cdc68ff7152b
     Pseudo is Ultrasoft + core correction, Zval = 11.0
     Generated using "atomic" code by A. Dal Corso v.6.3
     Using radial grid of 1199 points,  6 beta functions with: 
                l(1) =   0
                l(2) =   0
                l(3) =   1
                l(4) =   1
                l(5) =   2
                l(6) =   2
     Q(r) pseudized with 0 coefficients 


     atomic species   valence    mass     pseudopotential
        Cu            11.00    63.54600     Cu( 1.00)

     48 Sym. Ops., with inversion, found



   Cartesian axes

     site n.     atom                  positions (alat units)
         1           Cu  tau(   1) = (   0.0000000   0.0000000   0.0000000  )

     number of k points=    35  gaussian smearing, width (Ry)=  0.0100
                       cart. coord. in units 2pi/alat
        k(    1) = (   0.0000000   0.0000000   0.0000000), wk =   0.0027435
        k(    2) = (  -0.1111111   0.1111111  -0.1111111), wk =   0.0219479
        k(    3) = (  -0.2222222   0.2222222  -0.2222222), wk =   0.0219479
        k(    4) = (  -0.3333333   0.3333333  -0.3333333), wk =   0.0219479
        k(    5) = (  -0.4444444   0.4444444  -0.4444444), wk =   0.0219479
        k(    6) = (   0.0000000   0.2222222   0.0000000), wk =   0.0164609
        k(    7) = (  -0.1111111   0.3333333  -0.1111111), wk =   0.0658436
        k(    8) = (  -0.2222222   0.4444444  -0.2222222), wk =   0.0658436
        k(    9) = (  -0.3333333   0.5555556  -0.3333333), wk =   0.0658436
        k(   10) = (   0.5555556  -0.3333333   0.5555556), wk =   0.0658436
        k(   11) = (   0.4444444  -0.2222222   0.4444444), wk =   0.0658436
        k(   12) = (   0.3333333  -0.1111111   0.3333333), wk =   0.0658436
        k(   13) = (   0.2222222  -0.0000000   0.2222222), wk =   0.0329218
        k(   14) = (   0.0000000   0.4444444   0.0000000), wk =   0.0164609
        k(   15) = (  -0.1111111   0.5555556  -0.1111111), wk =   0.0658436
        k(   16) = (  -0.2222222   0.6666667  -0.2222222), wk =   0.0658436
        k(   17) = (   0.6666667  -0.2222222   0.6666667), wk =   0.0658436
        k(   18) = (   0.5555556  -0.1111111   0.5555556), wk =   0.0658436
        k(   19) = (   0.4444444   0.0000000   0.4444444), wk =   0.0329218
        k(   20) = (   0.0000000   0.6666667   0.0000000), wk =   0.0164609
        k(   21) = (  -0.1111111   0.7777778  -0.1111111), wk =   0.0658436
        k(   22) = (   0.7777778  -0.1111111   0.7777778), wk =   0.0658436
        k(   23) = (   0.6666667  -0.0000000   0.6666667), wk =   0.0329218
        k(   24) = (   0.0000000   0.8888889   0.0000000), wk =   0.0164609
        k(   25) = (   0.8888889   0.0000000   0.8888889), wk =   0.0329218
        k(   26) = (  -0.2222222   0.4444444   0.0000000), wk =   0.0658436
        k(   27) = (  -0.3333333   0.5555556  -0.1111111), wk =   0.1316872
        k(   28) = (   0.5555556  -0.3333333   0.7777778), wk =   0.1316872
        k(   29) = (  -0.2222222   0.6666667   0.0000000), wk =   0.0658436
        k(   30) = (   0.6666667  -0.2222222   0.8888889), wk =   0.1316872
        k(   31) = (   0.5555556  -0.1111111   0.7777778), wk =   0.1316872
        k(   32) = (   0.4444444   0.0000000   0.6666667), wk =   0.0658436
        k(   33) = (   0.7777778  -0.1111111   1.0000000), wk =   0.0658436
        k(   34) = (   0.6666667  -0.0000000   0.8888889), wk =   0.0658436
        k(   35) = (   0.5555556  -0.1111111   1.0000000), wk =   0.0658436

     Dense  grid:     6231 G-vectors     FFT dimensions: (  25,  25,  25)

     Estimated max dynamical RAM per process >       6.92 MB

     Estimated total dynamical RAM >      34.58 MB

     Initial potential from superposition of free atoms

     starting charge   10.99977, renormalised to   11.00000
     Starting wfcs are    9 randomized atomic wfcs +    1 random wfcs

     total cpu time spent up to now is        1.1 secs

     Self-consistent Calculation

     iteration #  1     ecut=    70.00 Ry     beta= 0.70
     Davidson diagonalization with overlap
     ethr =  1.00E-02,  avg # of iterations =  3.7

     Threshold (ethr) on eigenvalues was too large:
     Diagonalizing with lowered threshold

     Davidson diagonalization with overlap
     ethr =  5.54E-04,  avg # of iterations =  1.0

     total cpu time spent up to now is        1.9 secs

     total energy              =    -122.71200695 Ry
     Harris-Foulkes estimate   =    -122.75952069 Ry
     estimated scf accuracy    <       0.06063234 Ry

     iteration #  2     ecut=    70.00 Ry     beta= 0.70
     Davidson diagonalization with overlap
     ethr =  5.51E-04,  avg # of iterations =  2.1

     total cpu time spent up to now is        2.3 secs

     total energy              =    -122.71337568 Ry
     Harris-Foulkes estimate   =    -122.79685633 Ry
     estimated scf accuracy    <       0.21597161 Ry

     iteration #  3     ecut=    70.00 Ry     beta= 0.70
     Davidson diagonalization with overlap
     ethr =  5.51E-04,  avg # of iterations =  2.0

     total cpu time spent up to now is        2.7 secs

     total energy              =    -122.74772026 Ry
     Harris-Foulkes estimate   =    -122.74773523 Ry
     estimated scf accuracy    <       0.00006552 Ry

     iteration #  4     ecut=    70.00 Ry     beta= 0.70
     Davidson diagonalization with overlap
     ethr =  5.96E-07,  avg # of iterations =  2.6

     total cpu time spent up to now is        3.1 secs

     total energy              =    -122.74776810 Ry
     Harris-Foulkes estimate   =    -122.74777170 Ry
     estimated scf accuracy    <       0.00001238 Ry

     iteration #  5     ecut=    70.00 Ry     beta= 0.70
     Davidson diagonalization with overlap
     ethr =  1.13E-07,  avg # of iterations =  1.1

     total cpu time spent up to now is        3.3 secs

     total energy              =    -122.74777029 Ry
     Harris-Foulkes estimate   =    -122.74777040 Ry
     estimated scf accuracy    <       0.00000030 Ry

     iteration #  6     ecut=    70.00 Ry     beta= 0.70
     Davidson diagonalization with overlap
     ethr =  2.70E-09,  avg # of iterations =  1.8

     total cpu time spent up to now is        3.6 secs

     End of self-consistent calculation

          k = 0.0000 0.0000 0.0000 (   749 PWs)   bands (ev):

     3.2769   9.6908   9.6908   9.6908  10.5176  10.5176  35.5983  37.9946
    37.9946  37.9946

          k =-0.1111 0.1111-0.1111 (   797 PWs)   bands (ev):

     3.7231   9.6002   9.7686   9.7686  10.4915  10.4915  32.2580  36.1946
    36.8969  36.8969

          k =-0.2222 0.2222-0.2222 (   800 PWs)   bands (ev):

     4.9885   9.4405   9.8552   9.8552  10.5489  10.5489  26.4974  35.5923
    35.7000  35.7000

          k =-0.3333 0.3333-0.3333 (   787 PWs)   bands (ev):

     6.6571   9.6645   9.7691   9.7691  10.8228  10.8228  21.2837  34.7113
    35.0163  35.0163

          k =-0.4444 0.4444-0.4444 (   787 PWs)   bands (ev):

     7.5291   9.6684   9.6684  11.0610  11.0610  11.1292  17.2363  34.0897
    34.7803  34.7803

          k = 0.0000 0.2222 0.0000 (   797 PWs)   bands (ev):

     3.8706   9.5172   9.8328   9.8328  10.3636  10.5813  33.9798  34.4598
    34.4598  36.1161

          k =-0.1111 0.3333-0.1111 (   795 PWs)   bands (ev):

     4.8627   9.3293   9.9194   9.9699  10.3399  10.6680  28.6815  32.7713
    33.9190  36.9569

          k =-0.2222 0.4444-0.2222 (   790 PWs)   bands (ev):

     6.4458   9.2631   9.7372   9.9531  10.8101  10.8917  23.2381  31.9002
    33.0453  34.6805

          k =-0.3333 0.5556-0.3333 (   790 PWs)   bands (ev):

     7.6338   9.5161   9.8417   9.8436  11.0893  11.8631  18.6185  31.5225
    31.9383  33.6524

          k = 0.5556-0.3333 0.5556 (   793 PWs)   bands (ev):

     7.8322   9.5015   9.7892  10.2100  11.0498  12.8868  16.6627  30.1299
    32.9744  33.9046

          k = 0.4444-0.2222 0.4444 (   793 PWs)   bands (ev):

     7.3815   9.6183   9.6328   9.8473  10.7602  11.6066  20.0404  29.5272
    35.0085  35.0154

          k = 0.3333-0.1111 0.3333 (   790 PWs)   bands (ev):

     5.8938   9.3026   9.7985   9.9748  10.3930  10.9655  24.9941  29.7552
    36.9162  37.9303

          k = 0.2222-0.0000 0.2222 (   797 PWs)   bands (ev):

     4.4452   9.4489   9.8587   9.8940  10.3431  10.6282  30.3186  31.0652
    37.9671  39.6237

          k = 0.0000 0.4444 0.0000 (   801 PWs)   bands (ev):

     5.5266   9.0880  10.0694  10.2304  10.2304  10.7443  30.6119  30.6119
    32.0766  32.5017

          k =-0.1111 0.5556-0.1111 (   801 PWs)   bands (ev):

     6.7767   8.8896   9.8363  10.3479  10.8508  10.9247  25.8281  29.3480
    29.7754  32.5777

          k =-0.2222 0.6667-0.2222 (   790 PWs)   bands (ev):

     7.9366   8.8968   9.6479  10.2632  11.1184  12.3246  20.8898  27.2724
    29.1141  32.4741

          k = 0.6667-0.2222 0.6667 (   790 PWs)   bands (ev):

     8.3432   9.0344   9.6673  10.1618  11.0666  14.7148  17.1264  25.4600
    29.9856  32.7801

          k = 0.5556-0.1111 0.5556 (   785 PWs)   bands (ev):

     8.2840   9.2309   9.4143  10.1317  10.7609  13.3043  19.4546  24.4871
    31.8942  33.7151

          k = 0.4444 0.0000 0.4444 (   796 PWs)   bands (ev):

     7.3127   9.1635   9.5519  10.1679  10.3854  11.7585  23.8106  24.7571
    34.6510  35.3513

          k = 0.0000 0.6667 0.0000 (   797 PWs)   bands (ev):

     7.3712   8.6171  10.6010  10.7659  10.7659  10.9324  26.3363  27.6520
    27.6520  30.8824

          k =-0.1111 0.7778-0.1111 (   784 PWs)   bands (ev):

     7.8835   8.5082  10.4232  10.7692  11.1335  12.5562  23.5679  23.9147
    27.0326  31.5533

          k = 0.7778-0.1111 0.7778 (   782 PWs)   bands (ev):

     8.2925   8.6041  10.0236  10.6391  11.1168  15.4148  19.5494  21.6891
    27.6164  31.9070

          k = 0.6667-0.0000 0.6667 (   792 PWs)   bands (ev):

     8.6470   8.8095   9.5510  10.4452  10.8981  15.9238  18.5991  21.1623
    29.3176  32.5681

          k = 0.0000 0.8889 0.0000 (   785 PWs)   bands (ev):

     7.7990   8.3191  11.0567  11.1807  11.1807  13.2969  20.9346  25.9895
    25.9895  30.3306

          k = 0.8889 0.0000 0.8889 (   776 PWs)   bands (ev):

     7.9422   8.3608  10.8087  10.9724  11.2029  14.8844  19.8993  23.1560
    26.1976  31.2603

          k =-0.2222 0.4444 0.0000 (   792 PWs)   bands (ev):

     6.0300   9.1292   9.7779  10.2413  10.3438  10.9822  27.1325  27.7699
    33.5654  36.4085

          k =-0.3333 0.5556-0.1111 (   787 PWs)   bands (ev):

     7.5024   9.0982   9.5141  10.1866  10.7290  11.7762  22.1937  27.0111
    30.8209  36.4725

          k = 0.5556-0.3333 0.7778 (   789 PWs)   bands (ev):

     8.1912   9.2045   9.6202  10.0729  11.0132  13.5719  17.8852  27.3847
    28.7449  36.0317

          k =-0.2222 0.6667 0.0000 (   791 PWs)   bands (ev):

     7.7436   8.7377   9.7509  10.7376  10.7634  11.9086  24.7102  25.3656
    26.8652  34.6409

          k = 0.6667-0.2222 0.8889 (   785 PWs)   bands (ev):

     8.3762   8.7836   9.5748  10.5403  11.0603  14.0754  20.3393  24.4830
    25.2727  35.4252

          k = 0.5556-0.1111 0.7778 (   787 PWs)   bands (ev):

     8.7269   8.8058   9.4204  10.3862  11.0289  16.1305  17.7261  22.9690
    26.3296  36.1285

          k = 0.4444 0.0000 0.6667 (   783 PWs)   bands (ev):

     8.4927   9.0858   9.1454  10.3973  10.7782  13.4745  21.3059  22.7571
    28.2321  37.4322

          k = 0.7778-0.1111 1.0000 (   783 PWs)   bands (ev):

     8.0743   8.4841  10.3271  10.8826  11.1800  14.5426  21.2782  23.3222
    24.0934  33.7701

          k = 0.6667-0.0000 0.8889 (   774 PWs)   bands (ev):

     8.3773   8.6742   9.8474  10.6428  11.1772  16.9361  19.5665  20.4973
    24.6268  35.0690

          k = 0.5556-0.1111 1.0000 (   773 PWs)   bands (ev):

     8.5656   8.9929   9.3096  10.5060  11.1780  16.7935  19.8673  21.7391
    22.5091  39.5711

     the Fermi energy is    12.7534 ev

!    total energy              =    -122.74777036 Ry
     Harris-Foulkes estimate   =    -122.74777036 Ry
     estimated scf accuracy    <          4.2E-10 Ry

     The total energy is the sum of the following terms:

     one-electron contribution =     -27.51409428 Ry
     hartree contribution      =      30.62059398 Ry
     xc contribution           =     -44.62894778 Ry
     ewald contribution        =     -81.22522855 Ry
     smearing contrib. (-TS)   =      -0.00009372 Ry

     convergence has been achieved in   6 iterations

     Forces acting on atoms (cartesian axes, Ry/au):

     atom    1 type  1   force =     0.00000000    0.00000000    0.00000000

     Total force =     0.000000     Total SCF correction =     0.000000


     Computing stress (Cartesian axis) and pressure

          total   stress  (Ry/bohr**3)                   (kbar)     P=   26.41
   0.00017956  -0.00000000  -0.00000000         26.41     -0.00     -0.00
  -0.00000000   0.00017956   0.00000000         -0.00     26.41      0.00
  -0.00000000   0.00000000   0.00017956         -0.00      0.00     26.41


     Writing output data file Cu.save/

     init_run     :      0.31s CPU      0.33s WALL (       1 calls)
     electrons    :      2.44s CPU      2.55s WALL (       1 calls)
     forces       :      0.05s CPU      0.05s WALL (       1 calls)
     stress       :      0.12s CPU      0.12s WALL (       1 calls)

     Called by init_run:
     wfcinit      :      0.13s CPU      0.14s WALL (       1 calls)
     potinit      :      0.01s CPU      0.01s WALL (       1 calls)
     hinit0       :      0.16s CPU      0.16s WALL (       1 calls)

     Called by electrons:
     c_bands      :      1.93s CPU      2.01s WALL (       7 calls)
     sum_band     :      0.45s CPU      0.47s WALL (       7 calls)
     v_of_rho     :      0.02s CPU      0.03s WALL (       7 calls)
     newd         :      0.05s CPU      0.06s WALL (       7 calls)
     mix_rho      :      0.00s CPU      0.00s WALL (       7 calls)

     Called by c_bands:
     init_us_2    :      0.07s CPU      0.07s WALL (     595 calls)
     cegterg      :      1.83s CPU      1.91s WALL (     245 calls)

     Called by sum_band:
     sum_band:bec :      0.00s CPU      0.00s WALL (     245 calls)
     addusdens    :      0.04s CPU      0.05s WALL (       7 calls)

     Called by *egterg:
     h_psi        :      1.48s CPU      1.56s WALL (     781 calls)
     s_psi        :      0.04s CPU      0.05s WALL (     781 calls)
     g_psi        :      0.00s CPU      0.00s WALL (     501 calls)
     cdiaghg      :      0.16s CPU      0.17s WALL (     711 calls)

     Called by h_psi:
     h_psi:pot    :      1.47s CPU      1.55s WALL (     781 calls)
     h_psi:calbec :      0.08s CPU      0.09s WALL (     781 calls)
     vloc_psi     :      1.34s CPU      1.41s WALL (     781 calls)
     add_vuspsi   :      0.04s CPU      0.05s WALL (     781 calls)

     General routines
     calbec       :      0.13s CPU      0.14s WALL (    1201 calls)
     fft          :      0.02s CPU      0.02s WALL (     104 calls)
     ffts         :      0.00s CPU      0.00s WALL (       7 calls)
     fftw         :      1.57s CPU      1.65s WALL (   14864 calls)

     Parallel routines
     fft_scatt_xy :      0.11s CPU      0.11s WALL (   14975 calls)
     fft_scatt_yz :      0.63s CPU      0.66s WALL (   14975 calls)

     PWSCF        :     3.73s CPU         3.94s WALL


   This run was terminated on:  23:34:34  25Mar2024            

=------------------------------------------------------------------------------=
   JOB DONE.
=------------------------------------------------------------------------------=
