
     Program PWSCF v.6.3MaX starts on 25Mar2024 at 23:42:59 

     This program is part of the open-source Quantum ESPRESSO suite
     for quantum simulation of materials; please cite
         "P. Giannozzi et al., J. Phys.:Condens. Matter 21 395502 (2009);
         "P. Giannozzi et al., J. Phys.:Condens. Matter 29 465901 (2017);
          URL http://www.quantum-espresso.org", 
     in publications or presentations arising from this work. More details at
     http://www.quantum-espresso.org/quote

     Parallel version (MPI), running on     5 processors

     MPI processes distributed on     1 nodes
     R & G space division:  proc/nbgrp/npool/nimage =       5
     Waiting for input...
     Reading input from standard input

     Current dimensions of program PWSCF are:
     Max number of different atomic species (ntypx) = 10
     Max number of k-points (npk) =  40000
     Max angular momentum in pseudopotentials (lmaxx) =  3
               file Cu.pbe-dn-kjpaw_psl.1.0.0.UPF: wavefunction(s)  4S 3D renormalized

     Subspace diagonalization in iterative solution of the eigenvalue problem:
     a serial algorithm will be used


     Parallelization info
     --------------------
     sticks:   dense  smooth     PW     G-vecs:    dense   smooth      PW
     Min         116     116     37                 1850     1850     327
     Max         117     117     38                 1853     1853     329
     Sum         583     583    187                 9257     9257    1639



     bravais-lattice index     =            2
     lattice parameter (alat)  =       6.8300  a.u.
     unit-cell volume          =      79.6530 (a.u.)^3
     number of atoms/cell      =            1
     number of atomic types    =            1
     number of electrons       =        11.00
     number of Kohn-Sham states=           10
     kinetic-energy cutoff     =      90.0000  Ry
     charge density cutoff     =     360.0000  Ry
     convergence threshold     =      1.0E-08
     mixing beta               =       0.7000
     number of iterations used =            8  plain     mixing
     Exchange-correlation      = SLA PW PBX PBC ( 1  4  3  4 0 0)

     celldm(1)=   6.830000  celldm(2)=   0.000000  celldm(3)=   0.000000
     celldm(4)=   0.000000  celldm(5)=   0.000000  celldm(6)=   0.000000

     crystal axes: (cart. coord. in units of alat)
               a(1) = (  -0.500000   0.000000   0.500000 )  
               a(2) = (   0.000000   0.500000   0.500000 )  
               a(3) = (  -0.500000   0.500000   0.000000 )  

     reciprocal axes: (cart. coord. in units 2 pi/alat)
               b(1) = ( -1.000000 -1.000000  1.000000 )  
               b(2) = (  1.000000  1.000000  1.000000 )  
               b(3) = ( -1.000000  1.000000 -1.000000 )  


     PseudoPot. # 1 for Cu read from file:
     /home/lorenzo/pseudos/Cu/Cu.pbe-dn-kjpaw_psl.1.0.0.UPF
     MD5 check sum: cfffd1f38ee05704b3e17f46f1730a6f
     Pseudo is Projector augmented-wave + core cor, Zval = 11.0
     Generated using "atomic" code by A. Dal Corso v.6.3
     Shape of augmentation charge: PSQ
     Using radial grid of 1199 points,  6 beta functions with: 
                l(1) =   0
                l(2) =   0
                l(3) =   1
                l(4) =   1
                l(5) =   2
                l(6) =   2
     Q(r) pseudized with 0 coefficients 


     atomic species   valence    mass     pseudopotential
        Cu            11.00    63.54600     Cu( 1.00)

     48 Sym. Ops., with inversion, found



   Cartesian axes

     site n.     atom                  positions (alat units)
         1           Cu  tau(   1) = (   0.0000000   0.0000000   0.0000000  )

     number of k points=    47  gaussian smearing, width (Ry)=  0.0100
                       cart. coord. in units 2pi/alat
        k(    1) = (   0.0000000   0.0000000   0.0000000), wk =   0.0020000
        k(    2) = (  -0.1000000   0.1000000  -0.1000000), wk =   0.0160000
        k(    3) = (  -0.2000000   0.2000000  -0.2000000), wk =   0.0160000
        k(    4) = (  -0.3000000   0.3000000  -0.3000000), wk =   0.0160000
        k(    5) = (  -0.4000000   0.4000000  -0.4000000), wk =   0.0160000
        k(    6) = (   0.5000000  -0.5000000   0.5000000), wk =   0.0080000
        k(    7) = (   0.0000000   0.2000000   0.0000000), wk =   0.0120000
        k(    8) = (  -0.1000000   0.3000000  -0.1000000), wk =   0.0480000
        k(    9) = (  -0.2000000   0.4000000  -0.2000000), wk =   0.0480000
        k(   10) = (  -0.3000000   0.5000000  -0.3000000), wk =   0.0480000
        k(   11) = (   0.6000000  -0.4000000   0.6000000), wk =   0.0480000
        k(   12) = (   0.5000000  -0.3000000   0.5000000), wk =   0.0480000
        k(   13) = (   0.4000000  -0.2000000   0.4000000), wk =   0.0480000
        k(   14) = (   0.3000000  -0.1000000   0.3000000), wk =   0.0480000
        k(   15) = (   0.2000000   0.0000000   0.2000000), wk =   0.0240000
        k(   16) = (   0.0000000   0.4000000   0.0000000), wk =   0.0120000
        k(   17) = (  -0.1000000   0.5000000  -0.1000000), wk =   0.0480000
        k(   18) = (  -0.2000000   0.6000000  -0.2000000), wk =   0.0480000
        k(   19) = (   0.7000000  -0.3000000   0.7000000), wk =   0.0480000
        k(   20) = (   0.6000000  -0.2000000   0.6000000), wk =   0.0480000
        k(   21) = (   0.5000000  -0.1000000   0.5000000), wk =   0.0480000
        k(   22) = (   0.4000000   0.0000000   0.4000000), wk =   0.0240000
        k(   23) = (   0.0000000   0.6000000   0.0000000), wk =   0.0120000
        k(   24) = (  -0.1000000   0.7000000  -0.1000000), wk =   0.0480000
        k(   25) = (   0.8000000  -0.2000000   0.8000000), wk =   0.0480000
        k(   26) = (   0.7000000  -0.1000000   0.7000000), wk =   0.0480000
        k(   27) = (   0.6000000  -0.0000000   0.6000000), wk =   0.0240000
        k(   28) = (   0.0000000   0.8000000   0.0000000), wk =   0.0120000
        k(   29) = (   0.9000000  -0.1000000   0.9000000), wk =   0.0480000
        k(   30) = (   0.8000000   0.0000000   0.8000000), wk =   0.0240000
        k(   31) = (   0.0000000  -1.0000000   0.0000000), wk =   0.0060000
        k(   32) = (  -0.2000000   0.4000000   0.0000000), wk =   0.0480000
        k(   33) = (  -0.3000000   0.5000000  -0.1000000), wk =   0.0960000
        k(   34) = (   0.6000000  -0.4000000   0.8000000), wk =   0.0960000
        k(   35) = (   0.5000000  -0.3000000   0.7000000), wk =   0.0480000
        k(   36) = (  -0.2000000   0.6000000   0.0000000), wk =   0.0480000
        k(   37) = (   0.7000000  -0.3000000   0.9000000), wk =   0.0960000
        k(   38) = (   0.6000000  -0.2000000   0.8000000), wk =   0.0960000
        k(   39) = (   0.5000000  -0.1000000   0.7000000), wk =   0.0960000
        k(   40) = (   0.4000000   0.0000000   0.6000000), wk =   0.0480000
        k(   41) = (   0.8000000  -0.2000000   1.0000000), wk =   0.0480000
        k(   42) = (   0.7000000  -0.1000000   0.9000000), wk =   0.0960000
        k(   43) = (   0.6000000   0.0000000   0.8000000), wk =   0.0480000
        k(   44) = (  -0.2000000  -1.0000000   0.0000000), wk =   0.0240000
        k(   45) = (   0.6000000  -0.2000000   1.0000000), wk =   0.0480000
        k(   46) = (   0.5000000  -0.1000000   0.9000000), wk =   0.0480000
        k(   47) = (  -0.4000000  -1.0000000   0.0000000), wk =   0.0240000

     Dense  grid:     9257 G-vectors     FFT dimensions: (  30,  30,  30)

     Estimated max dynamical RAM per process >      10.21 MB

     Estimated total dynamical RAM >      51.06 MB

     Initial potential from superposition of free atoms

     starting charge   10.99977, renormalised to   11.00000
     Starting wfcs are    9 randomized atomic wfcs +    1 random wfcs
     Checking if some PAW data can be deallocated... 

     total cpu time spent up to now is        1.2 secs

     Self-consistent Calculation

     iteration #  1     ecut=    90.00 Ry     beta= 0.70
     Davidson diagonalization with overlap
     ethr =  1.00E-02,  avg # of iterations =  3.7

     Threshold (ethr) on eigenvalues was too large:
     Diagonalizing with lowered threshold

     Davidson diagonalization with overlap
     ethr =  5.75E-04,  avg # of iterations =  1.1

     total cpu time spent up to now is        2.5 secs

     total energy              =    -213.05887360 Ry
     Harris-Foulkes estimate   =    -213.10847306 Ry
     estimated scf accuracy    <       0.06295631 Ry

     iteration #  2     ecut=    90.00 Ry     beta= 0.70
     Davidson diagonalization with overlap
     ethr =  5.72E-04,  avg # of iterations =  2.0

     total cpu time spent up to now is        3.1 secs

     total energy              =    -213.06019680 Ry
     Harris-Foulkes estimate   =    -213.14851897 Ry
     estimated scf accuracy    <       0.23010647 Ry

     iteration #  3     ecut=    90.00 Ry     beta= 0.70
     Davidson diagonalization with overlap
     ethr =  5.72E-04,  avg # of iterations =  2.0

     total cpu time spent up to now is        3.7 secs

     total energy              =    -213.09619136 Ry
     Harris-Foulkes estimate   =    -213.09622426 Ry
     estimated scf accuracy    <       0.00008128 Ry

     iteration #  4     ecut=    90.00 Ry     beta= 0.70
     Davidson diagonalization with overlap
     ethr =  7.39E-07,  avg # of iterations =  2.4

     total cpu time spent up to now is        4.4 secs

     total energy              =    -213.09623957 Ry
     Harris-Foulkes estimate   =    -213.09624816 Ry
     estimated scf accuracy    <       0.00002372 Ry

     iteration #  5     ecut=    90.00 Ry     beta= 0.70
     Davidson diagonalization with overlap
     ethr =  2.16E-07,  avg # of iterations =  1.2

     total cpu time spent up to now is        4.9 secs

     total energy              =    -213.09624411 Ry
     Harris-Foulkes estimate   =    -213.09624445 Ry
     estimated scf accuracy    <       0.00000096 Ry

     iteration #  6     ecut=    90.00 Ry     beta= 0.70
     Davidson diagonalization with overlap
     ethr =  8.75E-09,  avg # of iterations =  1.1

     total cpu time spent up to now is        5.5 secs

     End of self-consistent calculation

          k = 0.0000 0.0000 0.0000 (  1139 PWs)   bands (ev):

     3.2676   9.6617   9.6617   9.6617  10.4936  10.4936  35.5878  37.9874
    37.9874  37.9874

          k =-0.1000 0.1000-0.1000 (  1155 PWs)   bands (ev):

     3.6298   9.5872   9.7267   9.7267  10.4707  10.4707  32.8201  36.2380
    37.0296  37.0296

          k =-0.2000 0.2000-0.2000 (  1167 PWs)   bands (ev):

     4.6710   9.4362   9.8237   9.8237  10.4927  10.4927  27.6105  35.7350
    35.8902  35.8902

          k =-0.3000 0.3000-0.3000 (  1155 PWs)   bands (ev):

     6.1634   9.4759   9.7789   9.7789  10.7037  10.7037  22.7525  34.9648
    35.1585  35.1585

          k =-0.4000 0.4000-0.4000 (  1149 PWs)   bands (ev):

     7.3113   9.6744   9.6744  10.4016  10.9594  10.9594  18.6159  34.2655
    34.8244  34.8244

          k = 0.5000-0.5000 0.5000 (  1158 PWs)   bands (ev):

     7.5788   9.6281   9.6281  11.0677  11.0677  11.6279  16.4239  33.9943
    34.7538  34.7538

          k = 0.0000 0.2000 0.0000 (  1155 PWs)   bands (ev):

     3.7498   9.5201   9.7770   9.7770  10.3673  10.5456  34.1864  34.8671
    34.8671  36.3844

          k =-0.1000 0.3000-0.1000 (  1160 PWs)   bands (ev):

     4.5640   9.3582   9.8815   9.9021  10.3046  10.6078  29.5736  33.2880
    34.2251  37.4871

          k =-0.2000 0.4000-0.2000 (  1137 PWs)   bands (ev):

     5.9275   9.2511   9.7760   9.9213  10.5987  10.7813  24.5593  32.3467
    33.5132  35.7222

          k =-0.3000 0.5000-0.3000 (  1140 PWs)   bands (ev):

     7.2698   9.5135   9.6540   9.8301  10.9991  11.2690  20.1115  32.1029
    32.5500  34.0284

          k = 0.6000-0.4000 0.6000 (  1155 PWs)   bands (ev):

     7.7498   9.5007   9.7504  10.2100  11.0751  12.5458  16.8497  31.1924
    32.6314  33.7722

          k = 0.5000-0.3000 0.5000 (  1148 PWs)   bands (ev):

     7.6804   9.5402   9.7511  10.1102  10.9313  12.1559  17.7047  30.2881
    33.9725  34.3342

          k = 0.4000-0.2000 0.4000 (  1144 PWs)   bands (ev):

     6.9006   9.4343   9.6739   9.8402  10.6250  11.2412  21.5207  30.0513
    35.5716  36.0867

          k = 0.3000-0.1000 0.3000 (  1149 PWs)   bands (ev):

     5.4335   9.3072   9.8097   9.9364  10.3352  10.8031  26.1882  30.4642
    37.2987  38.7601

          k = 0.2000 0.0000 0.2000 (  1159 PWs)   bands (ev):

     4.2196   9.4594   9.8173   9.8278  10.3467  10.5671  31.0181  31.8039
    37.7161  39.3152

          k = 0.0000 0.4000 0.0000 (  1146 PWs)   bands (ev):

     5.1206   9.1567  10.0921  10.1049  10.1049  10.6828  31.3133  31.3133
    32.3892  33.4652

          k =-0.1000 0.5000-0.1000 (  1146 PWs)   bands (ev):

     6.2279   8.9672   9.8400  10.2329  10.5792  10.8242  26.8603  30.0408
    31.2765  32.9850

          k =-0.2000 0.6000-0.2000 (  1156 PWs)   bands (ev):

     7.4853   8.9270   9.6188  10.1838  11.0301  11.5426  22.2257  28.9862
    29.5590  32.6980

          k = 0.7000-0.3000 0.7000 (  1143 PWs)   bands (ev):

     8.1326   9.0710   9.6323  10.0863  11.0952  13.3602  18.2747  27.1108
    29.9433  32.7515

          k = 0.6000-0.2000 0.6000 (  1141 PWs)   bands (ev):

     8.2385   9.1752   9.6571  10.0319  10.9332  14.1258  17.2955  25.8613
    31.1993  33.2947

          k = 0.5000-0.1000 0.5000 (  1147 PWs)   bands (ev):

     7.8946   9.2714   9.3902  10.0590  10.6020  12.3591  20.8463  25.3215
    33.2390  34.4299

          k = 0.4000 0.0000 0.4000 (  1151 PWs)   bands (ev):

     6.7003   9.1585   9.6421  10.1513  10.2466  11.3653  24.9991  25.8119
    35.9145  36.1527

          k = 0.0000 0.6000 0.0000 (  1146 PWs)   bands (ev):

     6.9181   8.7213  10.2009  10.5735  10.5735  10.8545  28.2126  28.4143
    28.4143  31.1533

          k =-0.1000 0.7000-0.1000 (  1149 PWs)   bands (ev):

     7.6537   8.5826  10.1823  10.6328  11.0354  11.6255  24.8000  25.6202
    27.6118  31.7217

          k = 0.8000-0.2000 0.8000 (  1146 PWs)   bands (ev):

     8.1659   8.6109   9.9469  10.5369  11.1234  13.7811  20.6725  23.5358
    27.7461  31.9340

          k = 0.7000-0.1000 0.7000 (  1140 PWs)   bands (ev):

     8.5106   8.7470   9.6562  10.4219  10.9797  16.3947  17.4500  22.1374
    28.8206  32.3490

          k = 0.6000-0.0000 0.6000 (  1145 PWs)   bands (ev):

     8.5776   9.0110   9.3093  10.2863  10.7279  14.2175  20.0089  21.9290
    30.7128  33.1777

          k = 0.0000 0.8000 0.0000 (  1154 PWs)   bands (ev):

     7.7338   8.3800  10.9953  11.0204  11.0204  12.0751  22.8316  26.4626
    26.4626  30.4667

          k = 0.9000-0.1000 0.9000 (  1138 PWs)   bands (ev):

     7.8971   8.3498  10.7724  10.9241  11.1629  14.0179  20.8568  23.6716
    26.2821  31.2262

          k = 0.8000 0.0000 0.8000 (  1144 PWs)   bands (ev):

     8.1905   8.4971  10.2092  10.7555  11.0843  16.1336  19.8795  20.3924
    27.1115  31.7185

          k = 0.0000-1.0000 0.0000 (  1162 PWs)   bands (ev):

     7.7848   8.2520  11.0494  11.2120  11.2120  14.1333  19.7769  25.7616
    25.7616  30.2488

          k =-0.2000 0.4000 0.0000 (  1150 PWs)   bands (ev):

     5.5464   9.1766   9.8193  10.1161  10.2835  10.8214  28.0726  28.7039
    34.8203  36.3115

          k =-0.3000 0.5000-0.1000 (  1144 PWs)   bands (ev):

     6.9214   9.0939   9.5976  10.1193  10.5771  11.3384  23.5003  27.8093
    32.2905  36.4075

          k = 0.6000-0.4000 0.8000 (  1149 PWs)   bands (ev):

     7.9110   9.2785   9.5181  10.0148  10.9141  12.4785  19.2741  27.8625
    30.1975  35.8904

          k = 0.5000-0.3000 0.7000 (  1142 PWs)   bands (ev):

     8.1127   9.2456   9.7862   9.9539  11.0244  13.9712  16.7143  28.4430
    28.9191  35.6715

          k =-0.2000 0.6000 0.0000 (  1144 PWs)   bands (ev):

     7.2554   8.8027   9.7089  10.5724  10.6241  11.3621  25.7027  26.2919
    28.6964  34.5393

          k = 0.7000-0.3000 0.9000 (  1151 PWs)   bands (ev):

     8.1219   8.7984   9.5265  10.4627  10.9514  12.7789  21.5503  25.8486
    26.4204  35.1128

          k = 0.6000-0.2000 0.8000 (  1145 PWs)   bands (ev):

     8.5066   8.8584   9.4880  10.3156  11.0361  15.1540  17.8555  24.6429
    26.5268  35.4722

          k = 0.5000-0.1000 0.7000 (  1150 PWs)   bands (ev):

     8.5693   8.9658   9.3164  10.2825  10.8843  14.4233  18.9381  23.6217
    27.8607  36.3531

          k = 0.4000 0.0000 0.6000 (  1149 PWs)   bands (ev):

     8.0390   9.0279   9.2997  10.3380  10.5955  12.4557  22.5724  23.7096
    29.8206  37.7653

          k = 0.8000-0.2000 1.0000 (  1156 PWs)   bands (ev):

     7.9834   8.5032  10.1919  10.8764  11.0185  13.1377  23.1632  24.0768
    24.7497  33.4887

          k = 0.7000-0.1000 0.9000 (  1149 PWs)   bands (ev):

     8.2819   8.6023   9.9034  10.6705  11.1302  15.5816  20.4441  21.4636
    24.8761  34.4942

          k = 0.6000 0.0000 0.8000 (  1149 PWs)   bands (ev):

     8.6108   8.7638   9.4956  10.4735  11.0217  17.0836  18.2034  20.9596
    26.0477  35.2865

          k =-0.2000-1.0000 0.0000 (  1144 PWs)   bands (ev):

     8.0014   8.3901  10.5309  10.8846  11.2123  15.2471  19.9601  23.4816
    24.1707  33.1483

          k = 0.6000-0.2000 1.0000 (  1139 PWs)   bands (ev):

     8.5216   8.8785   9.3087  10.5335  11.0152  14.8642  20.9265  22.4355
    24.2650  38.5698

          k = 0.5000-0.1000 0.9000 (  1148 PWs)   bands (ev):

     8.6204   8.9873   9.2183  10.4366  11.1202  17.4658  18.0807  22.6583
    22.9014  39.1195

          k =-0.4000-1.0000 0.0000 (  1154 PWs)   bands (ev):

     8.4383   8.8161   9.5475  10.5301  11.2127  17.5121  20.3225  20.5931
    22.0473  38.1843

     the Fermi energy is    12.5812 ev

!    total energy              =    -213.09624427 Ry
     Harris-Foulkes estimate   =    -213.09624427 Ry
     estimated scf accuracy    <          1.9E-10 Ry

     total all-electron energy =     -3309.976010 Ry

     The total energy is the sum of the following terms:

     one-electron contribution =     -28.00927458 Ry
     hartree contribution      =      30.61278756 Ry
     xc contribution           =     -44.62762063 Ry
     ewald contribution        =     -81.22522855 Ry
     one-center paw contrib.   =     -89.84652849 Ry
     smearing contrib. (-TS)   =      -0.00037959 Ry

     convergence has been achieved in   6 iterations

     Forces acting on atoms (cartesian axes, Ry/au):

     atom    1 type  1   force =     0.00000000    0.00000000    0.00000000

     Total force =     0.000000     Total SCF correction =     0.000000


     Computing stress (Cartesian axis) and pressure

          total   stress  (Ry/bohr**3)                   (kbar)     P=   19.96
   0.00013571   0.00000000   0.00000000         19.96      0.00      0.00
   0.00000000   0.00013571  -0.00000000          0.00     19.96     -0.00
   0.00000000  -0.00000000   0.00013571          0.00     -0.00     19.96


     Writing output data file Cu.save/

     init_run     :      0.48s CPU      0.51s WALL (       1 calls)
     electrons    :      4.03s CPU      4.24s WALL (       1 calls)
     forces       :      0.08s CPU      0.09s WALL (       1 calls)
     stress       :      0.26s CPU      0.26s WALL (       1 calls)

     Called by init_run:
     wfcinit      :      0.19s CPU      0.20s WALL (       1 calls)
     potinit      :      0.10s CPU      0.11s WALL (       1 calls)
     hinit0       :      0.16s CPU      0.16s WALL (       1 calls)

     Called by electrons:
     c_bands      :      2.79s CPU      2.90s WALL (       7 calls)
     sum_band     :      0.61s CPU      0.62s WALL (       7 calls)
     v_of_rho     :      0.04s CPU      0.04s WALL (       7 calls)
     newd         :      0.06s CPU      0.08s WALL (       7 calls)
     PAW_pot      :      0.62s CPU      0.70s WALL (       7 calls)
     mix_rho      :      0.00s CPU      0.00s WALL (       7 calls)

     Called by c_bands:
     init_us_2    :      0.11s CPU      0.12s WALL (     799 calls)
     cegterg      :      2.65s CPU      2.75s WALL (     329 calls)

     Called by sum_band:
     sum_band:bec :      0.00s CPU      0.00s WALL (     329 calls)
     addusdens    :      0.06s CPU      0.06s WALL (       7 calls)

     Called by *egterg:
     h_psi        :      2.22s CPU      2.31s WALL (    1015 calls)
     s_psi        :      0.07s CPU      0.08s WALL (    1015 calls)
     g_psi        :      0.01s CPU      0.01s WALL (     639 calls)
     cdiaghg      :      0.19s CPU      0.19s WALL (     921 calls)

     Called by h_psi:
     h_psi:pot    :      2.22s CPU      2.31s WALL (    1015 calls)
     h_psi:calbec :      0.10s CPU      0.10s WALL (    1015 calls)
     vloc_psi     :      2.04s CPU      2.12s WALL (    1015 calls)
     add_vuspsi   :      0.07s CPU      0.08s WALL (    1015 calls)

     General routines
     calbec       :      0.20s CPU      0.20s WALL (    1579 calls)
     fft          :      0.03s CPU      0.03s WALL (     104 calls)
     ffts         :      0.00s CPU      0.00s WALL (       7 calls)
     fftw         :      2.30s CPU      2.39s WALL (   19856 calls)

     Parallel routines
     fft_scatt_xy :      0.20s CPU      0.21s WALL (   19967 calls)
     fft_scatt_yz :      0.55s CPU      0.57s WALL (   19967 calls)

     PWSCF        :     5.64s CPU         5.98s WALL


   This run was terminated on:  23:43: 5  25Mar2024            

=------------------------------------------------------------------------------=
   JOB DONE.
=------------------------------------------------------------------------------=
