
     Program PWSCF v.6.3MaX starts on 25Mar2024 at 23: 9:18 

     This program is part of the open-source Quantum ESPRESSO suite
     for quantum simulation of materials; please cite
         "P. Giannozzi et al., J. Phys.:Condens. Matter 21 395502 (2009);
         "P. Giannozzi et al., J. Phys.:Condens. Matter 29 465901 (2017);
          URL http://www.quantum-espresso.org", 
     in publications or presentations arising from this work. More details at
     http://www.quantum-espresso.org/quote

     Parallel version (MPI), running on     5 processors

     MPI processes distributed on     1 nodes
     R & G space division:  proc/nbgrp/npool/nimage =       5
     Waiting for input...
     Reading input from standard input

     Current dimensions of program PWSCF are:
     Max number of different atomic species (ntypx) = 10
     Max number of k-points (npk) =  40000
     Max angular momentum in pseudopotentials (lmaxx) =  3
               file Cu.pbesol-dn-rrkjus_psl.1.0.0.UPF: wavefunction(s)  3D renormalized

     Subspace diagonalization in iterative solution of the eigenvalue problem:
     a serial algorithm will be used


     Parallelization info
     --------------------
     sticks:   dense  smooth     PW     G-vecs:    dense   smooth      PW
     Min          12      12      6                   66       66      17
     Max          13      13      7                   67       67      18
     Sum          61      61     31                  331      331      89



     bravais-lattice index     =            2
     lattice parameter (alat)  =       6.8300  a.u.
     unit-cell volume          =      79.6530 (a.u.)^3
     number of atoms/cell      =            1
     number of atomic types    =            1
     number of electrons       =        11.00
     number of Kohn-Sham states=           10
     kinetic-energy cutoff     =      10.0000  Ry
     charge density cutoff     =      40.0000  Ry
     convergence threshold     =      1.0E-08
     mixing beta               =       0.7000
     number of iterations used =            8  plain     mixing
     Exchange-correlation      = PBESOL ( 1  4 10  8 0 0)

     celldm(1)=   6.830000  celldm(2)=   0.000000  celldm(3)=   0.000000
     celldm(4)=   0.000000  celldm(5)=   0.000000  celldm(6)=   0.000000

     crystal axes: (cart. coord. in units of alat)
               a(1) = (  -0.500000   0.000000   0.500000 )  
               a(2) = (   0.000000   0.500000   0.500000 )  
               a(3) = (  -0.500000   0.500000   0.000000 )  

     reciprocal axes: (cart. coord. in units 2 pi/alat)
               b(1) = ( -1.000000 -1.000000  1.000000 )  
               b(2) = (  1.000000  1.000000  1.000000 )  
               b(3) = ( -1.000000  1.000000 -1.000000 )  


     PseudoPot. # 1 for Cu read from file:
     /home/lorenzo/pseudos/Cu/Cu.pbesol-dn-rrkjus_psl.1.0.0.UPF
     MD5 check sum: bfa4c7aafbc42e028d5f4ccf7ceed93d
     Pseudo is Ultrasoft + core correction, Zval = 11.0
     Generated using "atomic" code by A. Dal Corso v.6.3
     Using radial grid of 1199 points,  6 beta functions with: 
                l(1) =   0
                l(2) =   0
                l(3) =   1
                l(4) =   1
                l(5) =   2
                l(6) =   2
     Q(r) pseudized with 0 coefficients 


     atomic species   valence    mass     pseudopotential
        Cu            11.00    63.54600     Cu( 1.00)

     48 Sym. Ops., with inversion, found



   Cartesian axes

     site n.     atom                  positions (alat units)
         1           Cu  tau(   1) = (   0.0000000   0.0000000   0.0000000  )

     number of k points=     4  gaussian smearing, width (Ry)=  0.0100
                       cart. coord. in units 2pi/alat
        k(    1) = (   0.0000000   0.0000000   0.0000000), wk =   0.0740741
        k(    2) = (  -0.3333333   0.3333333  -0.3333333), wk =   0.5925926
        k(    3) = (   0.0000000   0.6666667   0.0000000), wk =   0.4444444
        k(    4) = (   0.6666667  -0.0000000   0.6666667), wk =   0.8888889

     Dense  grid:      331 G-vectors     FFT dimensions: (   9,   9,   9)

     Estimated max dynamical RAM per process >       0.80 MB

     Estimated total dynamical RAM >       4.01 MB

     Check: negative/imaginary core charge=   -0.008419    0.000000

     Initial potential from superposition of free atoms

     starting charge   10.99979, renormalised to   11.00000
     Starting wfcs are    9 randomized atomic wfcs +    1 random wfcs

     total cpu time spent up to now is        0.9 secs

     Self-consistent Calculation

     iteration #  1     ecut=    10.00 Ry     beta= 0.70
     Davidson diagonalization with overlap
     ethr =  1.00E-02,  avg # of iterations =  3.8

     total cpu time spent up to now is        0.9 secs

     total energy              =    -103.47646725 Ry
     Harris-Foulkes estimate   =    -117.09457491 Ry
     estimated scf accuracy    <      16.31992442 Ry

     iteration #  2     ecut=    10.00 Ry     beta= 0.70
     Davidson diagonalization with overlap
     ethr =  1.00E-02,  avg # of iterations =  3.0

     total cpu time spent up to now is        0.9 secs

     total energy              =    -108.84190430 Ry
     Harris-Foulkes estimate   =    -109.39935230 Ry
     estimated scf accuracy    <       0.97384724 Ry

     iteration #  3     ecut=    10.00 Ry     beta= 0.70
     Davidson diagonalization with overlap
     ethr =  8.85E-03,  avg # of iterations =  1.0

     total cpu time spent up to now is        0.9 secs

     total energy              =    -108.86737895 Ry
     Harris-Foulkes estimate   =    -108.90868554 Ry
     estimated scf accuracy    <       0.07414604 Ry

     iteration #  4     ecut=    10.00 Ry     beta= 0.70
     Davidson diagonalization with overlap
     ethr =  6.74E-04,  avg # of iterations =  2.0

     total cpu time spent up to now is        0.9 secs

     total energy              =    -108.87760787 Ry
     Harris-Foulkes estimate   =    -108.88113711 Ry
     estimated scf accuracy    <       0.00467501 Ry

     iteration #  5     ecut=    10.00 Ry     beta= 0.70
     Davidson diagonalization with overlap
     ethr =  4.25E-05,  avg # of iterations =  2.2

     total cpu time spent up to now is        0.9 secs

     total energy              =    -108.87843891 Ry
     Harris-Foulkes estimate   =    -108.87844286 Ry
     estimated scf accuracy    <       0.00000707 Ry

     iteration #  6     ecut=    10.00 Ry     beta= 0.70
     Davidson diagonalization with overlap
     ethr =  6.43E-08,  avg # of iterations =  2.0

     total cpu time spent up to now is        0.9 secs

     total energy              =    -108.87844119 Ry
     Harris-Foulkes estimate   =    -108.87844048 Ry
     estimated scf accuracy    <       0.00000004 Ry

     iteration #  7     ecut=    10.00 Ry     beta= 0.70
     Davidson diagonalization with overlap
     ethr =  3.52E-10,  avg # of iterations =  3.0

     total cpu time spent up to now is        1.0 secs

     total energy              =    -108.87844128 Ry
     Harris-Foulkes estimate   =    -108.87844121 Ry
     estimated scf accuracy    <       0.00000002 Ry

     iteration #  8     ecut=    10.00 Ry     beta= 0.70
     Davidson diagonalization with overlap
     ethr =  1.55E-10,  avg # of iterations =  2.2

     total cpu time spent up to now is        1.0 secs

     End of self-consistent calculation

          k = 0.0000 0.0000 0.0000 (    51 PWs)   bands (ev):

    -7.1447  -7.1447  -0.4260  -0.4260  -0.4260   0.5967  29.0643  29.0643
    29.0643  39.8707

          k =-0.3333 0.3333-0.3333 (    43 PWs)   bands (ev):

    -1.2024  -0.2193  -0.2193   4.9042   8.4491   8.4491  17.2522  27.0736
    27.0736  38.0646

          k = 0.0000 0.6667 0.0000 (    44 PWs)   bands (ev):

    -3.1315  -2.4744   3.9796   5.9979   6.3249   6.3249  20.5670  22.7760
    22.7760  34.7222

          k = 0.6667-0.0000 0.6667 (    40 PWs)   bands (ev):

    -0.5556   3.2193   4.3842   7.5098  11.2854  12.9522  16.4595  18.7752
    23.8599  36.4392

     the Fermi energy is    11.3960 ev

!    total energy              =    -108.87844130 Ry
     Harris-Foulkes estimate   =    -108.87844129 Ry
     estimated scf accuracy    <          1.4E-11 Ry

     The total energy is the sum of the following terms:

     one-electron contribution =      -0.82448637 Ry
     hartree contribution      =      11.80433940 Ry
     xc contribution           =     -38.63177190 Ry
     ewald contribution        =     -81.22522857 Ry
     smearing contrib. (-TS)   =      -0.00129387 Ry

     convergence has been achieved in   8 iterations

     Forces acting on atoms (cartesian axes, Ry/au):

     atom    1 type  1   force =     0.00000000    0.00000000    0.00000000

     Total force =     0.000000     Total SCF correction =     0.000000


     Computing stress (Cartesian axis) and pressure

          total   stress  (Ry/bohr**3)                   (kbar)     P=********
  -0.29874581   0.00000000   0.00000000     -43947.02      0.00      0.00
   0.00000000  -0.29874581  -0.00000000          0.00 -43947.02     -0.00
   0.00000000  -0.00000000  -0.29874581          0.00     -0.00 -43947.02


     Writing output data file Cu.save/

     init_run     :      0.05s CPU      0.06s WALL (       1 calls)
     electrons    :      0.08s CPU      0.09s WALL (       1 calls)
     forces       :      0.00s CPU      0.00s WALL (       1 calls)
     stress       :      0.01s CPU      0.01s WALL (       1 calls)

     Called by init_run:
     wfcinit      :      0.00s CPU      0.00s WALL (       1 calls)
     potinit      :      0.00s CPU      0.00s WALL (       1 calls)
     hinit0       :      0.05s CPU      0.05s WALL (       1 calls)

     Called by electrons:
     c_bands      :      0.06s CPU      0.07s WALL (       8 calls)
     sum_band     :      0.01s CPU      0.01s WALL (       8 calls)
     v_of_rho     :      0.00s CPU      0.00s WALL (       9 calls)
     newd         :      0.00s CPU      0.00s WALL (       9 calls)
     mix_rho      :      0.00s CPU      0.00s WALL (       8 calls)

     Called by c_bands:
     init_us_2    :      0.00s CPU      0.00s WALL (      76 calls)
     cegterg      :      0.05s CPU      0.06s WALL (      32 calls)

     Called by sum_band:
     sum_band:bec :      0.00s CPU      0.00s WALL (      32 calls)
     addusdens    :      0.00s CPU      0.00s WALL (       8 calls)

     Called by *egterg:
     h_psi        :      0.03s CPU      0.03s WALL (     113 calls)
     s_psi        :      0.00s CPU      0.00s WALL (     113 calls)
     g_psi        :      0.00s CPU      0.00s WALL (      77 calls)
     cdiaghg      :      0.02s CPU      0.02s WALL (     109 calls)

     Called by h_psi:
     h_psi:pot    :      0.03s CPU      0.03s WALL (     113 calls)
     h_psi:calbec :      0.00s CPU      0.00s WALL (     113 calls)
     vloc_psi     :      0.02s CPU      0.03s WALL (     113 calls)
     add_vuspsi   :      0.00s CPU      0.00s WALL (     113 calls)

     General routines
     calbec       :      0.00s CPU      0.00s WALL (     165 calls)
     fft          :      0.00s CPU      0.00s WALL (     125 calls)
     ffts         :      0.00s CPU      0.00s WALL (       8 calls)
     fftw         :      0.03s CPU      0.03s WALL (    1984 calls)

     Parallel routines
     fft_scatt_xy :      0.00s CPU      0.00s WALL (    2117 calls)
     fft_scatt_yz :      0.01s CPU      0.01s WALL (    2117 calls)

     PWSCF        :     0.96s CPU         1.02s WALL


   This run was terminated on:  23: 9:19  25Mar2024            

=------------------------------------------------------------------------------=
   JOB DONE.
=------------------------------------------------------------------------------=
