
     Program PWSCF v.6.3MaX starts on 25Mar2024 at 23:26:36 

     This program is part of the open-source Quantum ESPRESSO suite
     for quantum simulation of materials; please cite
         "P. Giannozzi et al., J. Phys.:Condens. Matter 21 395502 (2009);
         "P. Giannozzi et al., J. Phys.:Condens. Matter 29 465901 (2017);
          URL http://www.quantum-espresso.org", 
     in publications or presentations arising from this work. More details at
     http://www.quantum-espresso.org/quote

     Parallel version (MPI), running on     5 processors

     MPI processes distributed on     1 nodes
     R & G space division:  proc/nbgrp/npool/nimage =       5
     Waiting for input...
     Reading input from standard input

     Current dimensions of program PWSCF are:
     Max number of different atomic species (ntypx) = 10
     Max number of k-points (npk) =  40000
     Max angular momentum in pseudopotentials (lmaxx) =  3
               file Cu.pbe-dn-kjpaw_psl.1.0.0.UPF: wavefunction(s)  4S 3D renormalized

     Subspace diagonalization in iterative solution of the eigenvalue problem:
     a serial algorithm will be used


     Parallelization info
     --------------------
     sticks:   dense  smooth     PW     G-vecs:    dense   smooth      PW
     Min          72      72     24                  876      876     173
     Max          73      73     25                  877      877     174
     Sum         361     361    121                 4381     4381     869



     bravais-lattice index     =            2
     lattice parameter (alat)  =       6.8300  a.u.
     unit-cell volume          =      79.6530 (a.u.)^3
     number of atoms/cell      =            1
     number of atomic types    =            1
     number of electrons       =        11.00
     number of Kohn-Sham states=           10
     kinetic-energy cutoff     =      55.0000  Ry
     charge density cutoff     =     220.0000  Ry
     convergence threshold     =      1.0E-08
     mixing beta               =       0.7000
     number of iterations used =            8  plain     mixing
     Exchange-correlation      = SLA PW PBX PBC ( 1  4  3  4 0 0)

     celldm(1)=   6.830000  celldm(2)=   0.000000  celldm(3)=   0.000000
     celldm(4)=   0.000000  celldm(5)=   0.000000  celldm(6)=   0.000000

     crystal axes: (cart. coord. in units of alat)
               a(1) = (  -0.500000   0.000000   0.500000 )  
               a(2) = (   0.000000   0.500000   0.500000 )  
               a(3) = (  -0.500000   0.500000   0.000000 )  

     reciprocal axes: (cart. coord. in units 2 pi/alat)
               b(1) = ( -1.000000 -1.000000  1.000000 )  
               b(2) = (  1.000000  1.000000  1.000000 )  
               b(3) = ( -1.000000  1.000000 -1.000000 )  


     PseudoPot. # 1 for Cu read from file:
     /home/lorenzo/pseudos/Cu/Cu.pbe-dn-kjpaw_psl.1.0.0.UPF
     MD5 check sum: cfffd1f38ee05704b3e17f46f1730a6f
     Pseudo is Projector augmented-wave + core cor, Zval = 11.0
     Generated using "atomic" code by A. Dal Corso v.6.3
     Shape of augmentation charge: PSQ
     Using radial grid of 1199 points,  6 beta functions with: 
                l(1) =   0
                l(2) =   0
                l(3) =   1
                l(4) =   1
                l(5) =   2
                l(6) =   2
     Q(r) pseudized with 0 coefficients 


     atomic species   valence    mass     pseudopotential
        Cu            11.00    63.54600     Cu( 1.00)

     48 Sym. Ops., with inversion, found



   Cartesian axes

     site n.     atom                  positions (alat units)
         1           Cu  tau(   1) = (   0.0000000   0.0000000   0.0000000  )

     number of k points=    10  gaussian smearing, width (Ry)=  0.0100
                       cart. coord. in units 2pi/alat
        k(    1) = (   0.0000000   0.0000000   0.0000000), wk =   0.0160000
        k(    2) = (  -0.2000000   0.2000000  -0.2000000), wk =   0.1280000
        k(    3) = (  -0.4000000   0.4000000  -0.4000000), wk =   0.1280000
        k(    4) = (   0.0000000   0.4000000   0.0000000), wk =   0.0960000
        k(    5) = (  -0.2000000   0.6000000  -0.2000000), wk =   0.3840000
        k(    6) = (   0.6000000  -0.2000000   0.6000000), wk =   0.3840000
        k(    7) = (   0.4000000   0.0000000   0.4000000), wk =   0.1920000
        k(    8) = (   0.0000000   0.8000000   0.0000000), wk =   0.0960000
        k(    9) = (   0.8000000   0.0000000   0.8000000), wk =   0.1920000
        k(   10) = (   0.6000000  -0.2000000   1.0000000), wk =   0.3840000

     Dense  grid:     4381 G-vectors     FFT dimensions: (  24,  24,  24)

     Estimated max dynamical RAM per process >       4.76 MB

     Estimated total dynamical RAM >      23.80 MB

     Initial potential from superposition of free atoms

     starting charge   10.99977, renormalised to   11.00000
     Starting wfcs are    9 randomized atomic wfcs +    1 random wfcs
     Checking if some PAW data can be deallocated... 

     total cpu time spent up to now is        1.0 secs

     Self-consistent Calculation

     iteration #  1     ecut=    55.00 Ry     beta= 0.70
     Davidson diagonalization with overlap
     ethr =  1.00E-02,  avg # of iterations =  3.8

     Threshold (ethr) on eigenvalues was too large:
     Diagonalizing with lowered threshold

     Davidson diagonalization with overlap
     ethr =  5.46E-04,  avg # of iterations =  1.4

     total cpu time spent up to now is        1.3 secs

     total energy              =    -213.06784026 Ry
     Harris-Foulkes estimate   =    -213.11481141 Ry
     estimated scf accuracy    <       0.05969525 Ry

     iteration #  2     ecut=    55.00 Ry     beta= 0.70
     Davidson diagonalization with overlap
     ethr =  5.43E-04,  avg # of iterations =  2.0

     total cpu time spent up to now is        1.5 secs

     total energy              =    -213.07068490 Ry
     Harris-Foulkes estimate   =    -213.15383018 Ry
     estimated scf accuracy    <       0.21597951 Ry

     iteration #  3     ecut=    55.00 Ry     beta= 0.70
     Davidson diagonalization with overlap
     ethr =  5.43E-04,  avg # of iterations =  2.0

     total cpu time spent up to now is        1.6 secs

     total energy              =    -213.10390017 Ry
     Harris-Foulkes estimate   =    -213.10401033 Ry
     estimated scf accuracy    <       0.00022704 Ry

     iteration #  4     ecut=    55.00 Ry     beta= 0.70
     Davidson diagonalization with overlap
     ethr =  2.06E-06,  avg # of iterations =  2.1

     total cpu time spent up to now is        1.8 secs

     total energy              =    -213.10398364 Ry
     Harris-Foulkes estimate   =    -213.10399536 Ry
     estimated scf accuracy    <       0.00003280 Ry

     iteration #  5     ecut=    55.00 Ry     beta= 0.70
     Davidson diagonalization with overlap
     ethr =  2.98E-07,  avg # of iterations =  1.2

     total cpu time spent up to now is        2.0 secs

     total energy              =    -213.10398958 Ry
     Harris-Foulkes estimate   =    -213.10398972 Ry
     estimated scf accuracy    <       0.00000035 Ry

     iteration #  6     ecut=    55.00 Ry     beta= 0.70
     Davidson diagonalization with overlap
     ethr =  3.22E-09,  avg # of iterations =  2.7

     total cpu time spent up to now is        2.2 secs

     End of self-consistent calculation

          k = 0.0000 0.0000 0.0000 (   537 PWs)   bands (ev):

     3.2726   9.7166   9.7166   9.7166  10.5503  10.5503  35.5887  37.9941
    37.9941  37.9941

          k =-0.2000 0.2000-0.2000 (   552 PWs)   bands (ev):

     4.6766   9.4881   9.8789   9.8789  10.5494  10.5494  27.6250  35.7371
    35.9039  35.9039

          k =-0.4000 0.4000-0.4000 (   547 PWs)   bands (ev):

     7.3384   9.7279   9.7279  10.4233  11.0189  11.0189  18.6391  34.2652
    34.8369  34.8369

          k = 0.0000 0.4000 0.0000 (   564 PWs)   bands (ev):

     5.1264   9.2087  10.1452  10.1611  10.1611  10.7401  31.3259  31.3259
    32.4040  33.4717

          k =-0.2000 0.6000-0.2000 (   549 PWs)   bands (ev):

     7.5043   8.9740   9.6690  10.2395  11.0897  11.5897  22.2425  28.9996
    29.5706  32.7113

          k = 0.6000-0.2000 0.6000 (   557 PWs)   bands (ev):

     8.2776   9.2203   9.7028  10.0864  10.9926  14.1523  17.3207  25.8755
    31.2120  33.3042

          k = 0.4000 0.0000 0.4000 (   550 PWs)   bands (ev):

     6.7101   9.2087   9.6941  10.2059  10.3039  11.4207  25.0172  25.8241
    35.9292  36.1590

          k = 0.0000 0.8000 0.0000 (   556 PWs)   bands (ev):

     7.7676   8.4281  11.0538  11.0806  11.0806  12.0925  22.8503  26.4712
    26.4712  30.4888

          k = 0.8000 0.0000 0.8000 (   542 PWs)   bands (ev):

     8.2318   8.5435  10.2594  10.8127  11.1450  16.1507  19.8998  20.4099
    27.1209  31.7347

          k = 0.6000-0.2000 1.0000 (   549 PWs)   bands (ev):

     8.5604   8.9263   9.3553  10.5889  11.0755  14.8909  20.9444  22.4498
    24.2804  38.5819

     the Fermi energy is    12.1128 ev

!    total energy              =    -213.10398972 Ry
     Harris-Foulkes estimate   =    -213.10398972 Ry
     estimated scf accuracy    <          7.6E-10 Ry

     total all-electron energy =     -3309.983756 Ry

     The total energy is the sum of the following terms:

     one-electron contribution =     -28.04812882 Ry
     hartree contribution      =      30.64921865 Ry
     xc contribution           =     -44.63513403 Ry
     ewald contribution        =     -81.22522864 Ry
     one-center paw contrib.   =     -89.84445200 Ry
     smearing contrib. (-TS)   =      -0.00026488 Ry

     convergence has been achieved in   6 iterations

     Forces acting on atoms (cartesian axes, Ry/au):

     atom    1 type  1   force =     0.00000000    0.00000000    0.00000000

     Total force =     0.000000     Total SCF correction =     0.000000


     Computing stress (Cartesian axis) and pressure

          total   stress  (Ry/bohr**3)                   (kbar)     P=    7.18
   0.00004883   0.00000000   0.00000000          7.18      0.00      0.00
   0.00000000   0.00004883  -0.00000000          0.00      7.18     -0.00
   0.00000000  -0.00000000   0.00004883          0.00     -0.00      7.18


     Writing output data file Cu.save/

     init_run     :      0.26s CPU      0.28s WALL (       1 calls)
     electrons    :      1.08s CPU      1.20s WALL (       1 calls)
     forces       :      0.03s CPU      0.03s WALL (       1 calls)
     stress       :      0.06s CPU      0.06s WALL (       1 calls)

     Called by init_run:
     wfcinit      :      0.02s CPU      0.02s WALL (       1 calls)
     potinit      :      0.09s CPU      0.11s WALL (       1 calls)
     hinit0       :      0.13s CPU      0.14s WALL (       1 calls)

     Called by electrons:
     c_bands      :      0.35s CPU      0.38s WALL (       7 calls)
     sum_band     :      0.11s CPU      0.11s WALL (       7 calls)
     v_of_rho     :      0.02s CPU      0.02s WALL (       7 calls)
     newd         :      0.03s CPU      0.04s WALL (       7 calls)
     PAW_pot      :      0.66s CPU      0.74s WALL (       7 calls)
     mix_rho      :      0.00s CPU      0.00s WALL (       7 calls)

     Called by c_bands:
     init_us_2    :      0.01s CPU      0.01s WALL (     170 calls)
     cegterg      :      0.33s CPU      0.36s WALL (      70 calls)

     Called by sum_band:
     sum_band:bec :      0.00s CPU      0.00s WALL (      70 calls)
     addusdens    :      0.03s CPU      0.03s WALL (       7 calls)

     Called by *egterg:
     h_psi        :      0.25s CPU      0.27s WALL (     232 calls)
     s_psi        :      0.01s CPU      0.01s WALL (     232 calls)
     g_psi        :      0.00s CPU      0.00s WALL (     152 calls)
     cdiaghg      :      0.04s CPU      0.05s WALL (     212 calls)

     Called by h_psi:
     h_psi:pot    :      0.25s CPU      0.27s WALL (     232 calls)
     h_psi:calbec :      0.01s CPU      0.01s WALL (     232 calls)
     vloc_psi     :      0.23s CPU      0.25s WALL (     232 calls)
     add_vuspsi   :      0.01s CPU      0.01s WALL (     232 calls)

     General routines
     calbec       :      0.02s CPU      0.03s WALL (     352 calls)
     fft          :      0.02s CPU      0.02s WALL (     104 calls)
     ffts         :      0.00s CPU      0.00s WALL (       7 calls)
     fftw         :      0.26s CPU      0.28s WALL (    4276 calls)

     Parallel routines
     fft_scatt_xy :      0.03s CPU      0.03s WALL (    4387 calls)
     fft_scatt_yz :      0.09s CPU      0.09s WALL (    4387 calls)

     PWSCF        :     2.16s CPU         2.34s WALL


   This run was terminated on:  23:26:39  25Mar2024            

=------------------------------------------------------------------------------=
   JOB DONE.
=------------------------------------------------------------------------------=
