
     Program PWSCF v.6.3MaX starts on 25Mar2024 at 23:26:59 

     This program is part of the open-source Quantum ESPRESSO suite
     for quantum simulation of materials; please cite
         "P. Giannozzi et al., J. Phys.:Condens. Matter 21 395502 (2009);
         "P. Giannozzi et al., J. Phys.:Condens. Matter 29 465901 (2017);
          URL http://www.quantum-espresso.org", 
     in publications or presentations arising from this work. More details at
     http://www.quantum-espresso.org/quote

     Parallel version (MPI), running on     5 processors

     MPI processes distributed on     1 nodes
     R & G space division:  proc/nbgrp/npool/nimage =       5
     Waiting for input...
     Reading input from standard input

     Current dimensions of program PWSCF are:
     Max number of different atomic species (ntypx) = 10
     Max number of k-points (npk) =  40000
     Max angular momentum in pseudopotentials (lmaxx) =  3
               file Cu.pbe-dn-kjpaw_psl.1.0.0.UPF: wavefunction(s)  4S 3D renormalized

     Subspace diagonalization in iterative solution of the eigenvalue problem:
     a serial algorithm will be used


     Parallelization info
     --------------------
     sticks:   dense  smooth     PW     G-vecs:    dense   smooth      PW
     Min          72      72     24                  876      876     173
     Max          73      73     25                  877      877     174
     Sum         361     361    121                 4381     4381     869



     bravais-lattice index     =            2
     lattice parameter (alat)  =       6.8300  a.u.
     unit-cell volume          =      79.6530 (a.u.)^3
     number of atoms/cell      =            1
     number of atomic types    =            1
     number of electrons       =        11.00
     number of Kohn-Sham states=           10
     kinetic-energy cutoff     =      55.0000  Ry
     charge density cutoff     =     220.0000  Ry
     convergence threshold     =      1.0E-08
     mixing beta               =       0.7000
     number of iterations used =            8  plain     mixing
     Exchange-correlation      = SLA PW PBX PBC ( 1  4  3  4 0 0)

     celldm(1)=   6.830000  celldm(2)=   0.000000  celldm(3)=   0.000000
     celldm(4)=   0.000000  celldm(5)=   0.000000  celldm(6)=   0.000000

     crystal axes: (cart. coord. in units of alat)
               a(1) = (  -0.500000   0.000000   0.500000 )  
               a(2) = (   0.000000   0.500000   0.500000 )  
               a(3) = (  -0.500000   0.500000   0.000000 )  

     reciprocal axes: (cart. coord. in units 2 pi/alat)
               b(1) = ( -1.000000 -1.000000  1.000000 )  
               b(2) = (  1.000000  1.000000  1.000000 )  
               b(3) = ( -1.000000  1.000000 -1.000000 )  


     PseudoPot. # 1 for Cu read from file:
     /home/lorenzo/pseudos/Cu/Cu.pbe-dn-kjpaw_psl.1.0.0.UPF
     MD5 check sum: cfffd1f38ee05704b3e17f46f1730a6f
     Pseudo is Projector augmented-wave + core cor, Zval = 11.0
     Generated using "atomic" code by A. Dal Corso v.6.3
     Shape of augmentation charge: PSQ
     Using radial grid of 1199 points,  6 beta functions with: 
                l(1) =   0
                l(2) =   0
                l(3) =   1
                l(4) =   1
                l(5) =   2
                l(6) =   2
     Q(r) pseudized with 0 coefficients 


     atomic species   valence    mass     pseudopotential
        Cu            11.00    63.54600     Cu( 1.00)

     48 Sym. Ops., with inversion, found



   Cartesian axes

     site n.     atom                  positions (alat units)
         1           Cu  tau(   1) = (   0.0000000   0.0000000   0.0000000  )

     number of k points=    20  gaussian smearing, width (Ry)=  0.0100
                       cart. coord. in units 2pi/alat
        k(    1) = (   0.0000000   0.0000000   0.0000000), wk =   0.0058309
        k(    2) = (  -0.1428571   0.1428571  -0.1428571), wk =   0.0466472
        k(    3) = (  -0.2857143   0.2857143  -0.2857143), wk =   0.0466472
        k(    4) = (  -0.4285714   0.4285714  -0.4285714), wk =   0.0466472
        k(    5) = (   0.0000000   0.2857143   0.0000000), wk =   0.0349854
        k(    6) = (  -0.1428571   0.4285714  -0.1428571), wk =   0.1399417
        k(    7) = (  -0.2857143   0.5714286  -0.2857143), wk =   0.1399417
        k(    8) = (   0.5714286  -0.2857143   0.5714286), wk =   0.1399417
        k(    9) = (   0.4285714  -0.1428571   0.4285714), wk =   0.1399417
        k(   10) = (   0.2857143  -0.0000000   0.2857143), wk =   0.0699708
        k(   11) = (   0.0000000   0.5714286   0.0000000), wk =   0.0349854
        k(   12) = (  -0.1428571   0.7142857  -0.1428571), wk =   0.1399417
        k(   13) = (   0.7142857  -0.1428571   0.7142857), wk =   0.1399417
        k(   14) = (   0.5714286   0.0000000   0.5714286), wk =   0.0699708
        k(   15) = (   0.0000000   0.8571429   0.0000000), wk =   0.0349854
        k(   16) = (   0.8571429  -0.0000000   0.8571429), wk =   0.0699708
        k(   17) = (  -0.2857143   0.5714286   0.0000000), wk =   0.1399417
        k(   18) = (   0.5714286  -0.2857143   0.8571429), wk =   0.2798834
        k(   19) = (   0.7142857  -0.1428571   1.0000000), wk =   0.1399417
        k(   20) = (   0.5714286   0.0000000   0.8571429), wk =   0.1399417

     Dense  grid:     4381 G-vectors     FFT dimensions: (  24,  24,  24)

     Estimated max dynamical RAM per process >       4.93 MB

     Estimated total dynamical RAM >      24.63 MB

     Initial potential from superposition of free atoms

     starting charge   10.99977, renormalised to   11.00000
     Starting wfcs are    9 randomized atomic wfcs +    1 random wfcs
     Checking if some PAW data can be deallocated... 

     total cpu time spent up to now is        1.1 secs

     Self-consistent Calculation

     iteration #  1     ecut=    55.00 Ry     beta= 0.70
     Davidson diagonalization with overlap
     ethr =  1.00E-02,  avg # of iterations =  3.9

     Threshold (ethr) on eigenvalues was too large:
     Diagonalizing with lowered threshold

     Davidson diagonalization with overlap
     ethr =  5.38E-04,  avg # of iterations =  1.0

     total cpu time spent up to now is        1.4 secs

     total energy              =    -213.06469501 Ry
     Harris-Foulkes estimate   =    -213.11098121 Ry
     estimated scf accuracy    <       0.05882122 Ry

     iteration #  2     ecut=    55.00 Ry     beta= 0.70
     Davidson diagonalization with overlap
     ethr =  5.35E-04,  avg # of iterations =  2.0

     total cpu time spent up to now is        1.7 secs

     total energy              =    -213.06641810 Ry
     Harris-Foulkes estimate   =    -213.14733906 Ry
     estimated scf accuracy    <       0.20921120 Ry

     iteration #  3     ecut=    55.00 Ry     beta= 0.70
     Davidson diagonalization with overlap
     ethr =  5.35E-04,  avg # of iterations =  2.0

     total cpu time spent up to now is        1.9 secs

     total energy              =    -213.09952394 Ry
     Harris-Foulkes estimate   =    -213.09955630 Ry
     estimated scf accuracy    <       0.00008219 Ry

     iteration #  4     ecut=    55.00 Ry     beta= 0.70
     Davidson diagonalization with overlap
     ethr =  7.47E-07,  avg # of iterations =  2.6

     total cpu time spent up to now is        2.1 secs

     total energy              =    -213.09957130 Ry
     Harris-Foulkes estimate   =    -213.09957878 Ry
     estimated scf accuracy    <       0.00002198 Ry

     iteration #  5     ecut=    55.00 Ry     beta= 0.70
     Davidson diagonalization with overlap
     ethr =  2.00E-07,  avg # of iterations =  1.1

     total cpu time spent up to now is        2.3 secs

     total energy              =    -213.09957509 Ry
     Harris-Foulkes estimate   =    -213.09957518 Ry
     estimated scf accuracy    <       0.00000024 Ry

     iteration #  6     ecut=    55.00 Ry     beta= 0.70
     Davidson diagonalization with overlap
     ethr =  2.18E-09,  avg # of iterations =  2.5

     total cpu time spent up to now is        2.6 secs

     End of self-consistent calculation

          k = 0.0000 0.0000 0.0000 (   537 PWs)   bands (ev):

     3.2705   9.6886   9.6886   9.6886  10.5209  10.5209  35.5886  37.9908
    37.9908  37.9908

          k =-0.1429 0.1429-0.1429 (   540 PWs)   bands (ev):

     4.0025   9.5485   9.8042   9.8042  10.4902  10.4902  30.5887  36.0480
    36.5057  36.5057

          k =-0.2857 0.2857-0.2857 (   555 PWs)   bands (ev):

     5.9485   9.4607   9.8193   9.8193  10.6932  10.6932  23.4202  35.0831
    35.2444  35.2444

          k =-0.4286 0.4286-0.4286 (   556 PWs)   bands (ev):

     7.4718   9.6783   9.6783  10.8708  11.0399  11.0399  17.6809  34.1357
    34.7922  34.7922

          k = 0.0000 0.2857 0.0000 (   548 PWs)   bands (ev):

     4.2429   9.4103   9.9213   9.9213  10.2790  10.6239  33.2906  33.2906
    33.3667  35.2843

          k =-0.1429 0.4286-0.1429 (   550 PWs)   bands (ev):

     5.7937   9.1655   9.8390  10.0687  10.5428  10.8024  26.2032  31.4011
    32.9114  34.6040

          k =-0.2857 0.5714-0.2857 (   544 PWs)   bands (ev):

     7.6140   9.3310   9.6328   9.9594  11.0838  11.7951  19.7871  30.5639
    31.0131  33.2908

          k = 0.5714-0.2857 0.5714 (   559 PWs)   bands (ev):

     7.9668   9.4062   9.8735   9.9813  11.0224  13.3352  16.8297  28.5816
    32.3103  33.6883

          k = 0.4286-0.1429 0.4286 (   551 PWs)   bands (ev):

     7.1604   9.3319   9.6240   9.9637  10.5796  11.5524  21.7926  27.9661
    35.2436  35.4317

          k = 0.2857-0.0000 0.2857 (   559 PWs)   bands (ev):

     5.1587   9.3344   9.8494  10.0136  10.2694  10.8012  28.3328  29.0261
    38.5380  38.8038

          k = 0.0000 0.5714 0.0000 (   552 PWs)   bands (ev):

     6.6895   8.8060  10.1330  10.5313  10.5313  10.8583  28.7834  28.7834
    29.0398  31.3043

          k =-0.1429 0.7143-0.1429 (   547 PWs)   bands (ev):

     7.8469   8.6403  10.0195  10.5732  11.1119  12.1464  23.2053  25.4174
    27.8037  31.9231

          k = 0.7143-0.1429 0.7143 (   545 PWs)   bands (ev):

     8.4660   8.7732   9.7127  10.4212  11.0622  15.6875  17.8073  22.9346
    28.7253  32.3094

          k = 0.5714 0.0000 0.5714 (   546 PWs)   bands (ev):

     8.4868   9.1362   9.2680  10.2671  10.6921  13.6156  20.6659  22.3469
    31.3760  33.5025

          k = 0.0000 0.8571 0.0000 (   556 PWs)   bands (ev):

     7.7894   8.3418  11.0496  11.1407  11.1407  12.8712  21.5543  26.1272
    26.1272  30.3712

          k = 0.8571-0.0000 0.8571 (   550 PWs)   bands (ev):

     8.0255   8.4080  10.6021  10.9153  11.1762  15.2855  19.9698  22.0713
    26.4675  31.4444

          k =-0.2857 0.5714 0.0000 (   547 PWs)   bands (ev):

     7.3733   8.9519   9.5465  10.4849  10.5367  11.6449  24.6098  25.3921
    29.9511  36.8686

          k = 0.5714-0.2857 0.8571 (   548 PWs)   bands (ev):

     8.4523   9.0001   9.3912  10.2998  10.9823  14.0188  18.9445  25.2666
    26.9784  37.0038

          k = 0.7143-0.1429 1.0000 (   551 PWs)   bands (ev):

     8.2311   8.6097   9.9421  10.7732  11.1386  14.6666  22.1822  22.4169
    23.4582  35.3674

          k = 0.5714 0.0000 0.8571 (   533 PWs)   bands (ev):

     8.5973   8.8747   9.4343  10.4994  11.1361  17.7357  18.2452  20.9694
    24.3536  37.0132

     the Fermi energy is    12.8509 ev

!    total energy              =    -213.09957515 Ry
     Harris-Foulkes estimate   =    -213.09957515 Ry
     estimated scf accuracy    <          3.4E-10 Ry

     total all-electron energy =     -3309.979341 Ry

     The total energy is the sum of the following terms:

     one-electron contribution =     -28.02810477 Ry
     hartree contribution      =      30.63086989 Ry
     xc contribution           =     -44.63114144 Ry
     ewald contribution        =     -81.22522864 Ry
     one-center paw contrib.   =     -89.84587367 Ry
     smearing contrib. (-TS)   =      -0.00009653 Ry

     convergence has been achieved in   6 iterations

     Forces acting on atoms (cartesian axes, Ry/au):

     atom    1 type  1   force =     0.00000000    0.00000000    0.00000000

     Total force =     0.000000     Total SCF correction =     0.000000


     Computing stress (Cartesian axis) and pressure

          total   stress  (Ry/bohr**3)                   (kbar)     P=   12.77
   0.00008680   0.00000000   0.00000000         12.77      0.00      0.00
   0.00000000   0.00008680  -0.00000000          0.00     12.77     -0.00
   0.00000000  -0.00000000   0.00008680          0.00     -0.00     12.77


     Writing output data file Cu.save/

     init_run     :      0.31s CPU      0.33s WALL (       1 calls)
     electrons    :      1.36s CPU      1.51s WALL (       1 calls)
     forces       :      0.02s CPU      0.02s WALL (       1 calls)
     stress       :      0.07s CPU      0.07s WALL (       1 calls)

     Called by init_run:
     wfcinit      :      0.06s CPU      0.06s WALL (       1 calls)
     potinit      :      0.10s CPU      0.11s WALL (       1 calls)
     hinit0       :      0.13s CPU      0.13s WALL (       1 calls)

     Called by electrons:
     c_bands      :      0.63s CPU      0.69s WALL (       7 calls)
     sum_band     :      0.15s CPU      0.16s WALL (       7 calls)
     v_of_rho     :      0.02s CPU      0.02s WALL (       7 calls)
     newd         :      0.03s CPU      0.03s WALL (       7 calls)
     PAW_pot      :      0.62s CPU      0.71s WALL (       7 calls)
     mix_rho      :      0.00s CPU      0.00s WALL (       7 calls)

     Called by c_bands:
     init_us_2    :      0.02s CPU      0.02s WALL (     340 calls)
     cegterg      :      0.61s CPU      0.66s WALL (     140 calls)

     Called by sum_band:
     sum_band:bec :      0.00s CPU      0.00s WALL (     140 calls)
     addusdens    :      0.03s CPU      0.03s WALL (       7 calls)

     Called by *egterg:
     h_psi        :      0.49s CPU      0.53s WALL (     463 calls)
     s_psi        :      0.02s CPU      0.02s WALL (     463 calls)
     g_psi        :      0.00s CPU      0.00s WALL (     303 calls)
     cdiaghg      :      0.08s CPU      0.08s WALL (     423 calls)

     Called by h_psi:
     h_psi:pot    :      0.48s CPU      0.53s WALL (     463 calls)
     h_psi:calbec :      0.02s CPU      0.03s WALL (     463 calls)
     vloc_psi     :      0.44s CPU      0.48s WALL (     463 calls)
     add_vuspsi   :      0.02s CPU      0.02s WALL (     463 calls)

     General routines
     calbec       :      0.04s CPU      0.04s WALL (     703 calls)
     fft          :      0.01s CPU      0.02s WALL (     104 calls)
     ffts         :      0.00s CPU      0.00s WALL (       7 calls)
     fftw         :      0.49s CPU      0.54s WALL (    8546 calls)

     Parallel routines
     fft_scatt_xy :      0.05s CPU      0.05s WALL (    8657 calls)
     fft_scatt_yz :      0.13s CPU      0.14s WALL (    8657 calls)

     PWSCF        :     2.51s CPU         2.72s WALL


   This run was terminated on:  23:27: 2  25Mar2024            

=------------------------------------------------------------------------------=
   JOB DONE.
=------------------------------------------------------------------------------=
