
     Program PWSCF v.6.3MaX starts on 25Mar2024 at 23:37: 9 

     This program is part of the open-source Quantum ESPRESSO suite
     for quantum simulation of materials; please cite
         "P. Giannozzi et al., J. Phys.:Condens. Matter 21 395502 (2009);
         "P. Giannozzi et al., J. Phys.:Condens. Matter 29 465901 (2017);
          URL http://www.quantum-espresso.org", 
     in publications or presentations arising from this work. More details at
     http://www.quantum-espresso.org/quote

     Parallel version (MPI), running on     5 processors

     MPI processes distributed on     1 nodes
     R & G space division:  proc/nbgrp/npool/nimage =       5
     Waiting for input...
     Reading input from standard input

     Current dimensions of program PWSCF are:
     Max number of different atomic species (ntypx) = 10
     Max number of k-points (npk) =  40000
     Max angular momentum in pseudopotentials (lmaxx) =  3
               file Cu.pbe-dn-rrkjus_psl.1.0.0.UPF: wavefunction(s)  3D renormalized

     Subspace diagonalization in iterative solution of the eigenvalue problem:
     a serial algorithm will be used


     Parallelization info
     --------------------
     sticks:   dense  smooth     PW     G-vecs:    dense   smooth      PW
     Min          95      95     30                 1375     1375     248
     Max          95      95     31                 1376     1376     251
     Sum         475     475    151                 6879     6879    1243



     bravais-lattice index     =            2
     lattice parameter (alat)  =       6.8300  a.u.
     unit-cell volume          =      79.6530 (a.u.)^3
     number of atoms/cell      =            1
     number of atomic types    =            1
     number of electrons       =        11.00
     number of Kohn-Sham states=           10
     kinetic-energy cutoff     =      75.0000  Ry
     charge density cutoff     =     300.0000  Ry
     convergence threshold     =      1.0E-08
     mixing beta               =       0.7000
     number of iterations used =            8  plain     mixing
     Exchange-correlation      = PBE ( 1  4  3  4 0 0)

     celldm(1)=   6.830000  celldm(2)=   0.000000  celldm(3)=   0.000000
     celldm(4)=   0.000000  celldm(5)=   0.000000  celldm(6)=   0.000000

     crystal axes: (cart. coord. in units of alat)
               a(1) = (  -0.500000   0.000000   0.500000 )  
               a(2) = (   0.000000   0.500000   0.500000 )  
               a(3) = (  -0.500000   0.500000   0.000000 )  

     reciprocal axes: (cart. coord. in units 2 pi/alat)
               b(1) = ( -1.000000 -1.000000  1.000000 )  
               b(2) = (  1.000000  1.000000  1.000000 )  
               b(3) = ( -1.000000  1.000000 -1.000000 )  


     PseudoPot. # 1 for Cu read from file:
     /home/lorenzo/pseudos/Cu/Cu.pbe-dn-rrkjus_psl.1.0.0.UPF
     MD5 check sum: ba3d6c84e19846e79d48cdc68ff7152b
     Pseudo is Ultrasoft + core correction, Zval = 11.0
     Generated using "atomic" code by A. Dal Corso v.6.3
     Using radial grid of 1199 points,  6 beta functions with: 
                l(1) =   0
                l(2) =   0
                l(3) =   1
                l(4) =   1
                l(5) =   2
                l(6) =   2
     Q(r) pseudized with 0 coefficients 


     atomic species   valence    mass     pseudopotential
        Cu            11.00    63.54600     Cu( 1.00)

     48 Sym. Ops., with inversion, found



   Cartesian axes

     site n.     atom                  positions (alat units)
         1           Cu  tau(   1) = (   0.0000000   0.0000000   0.0000000  )

     number of k points=    35  gaussian smearing, width (Ry)=  0.0100
                       cart. coord. in units 2pi/alat
        k(    1) = (   0.0000000   0.0000000   0.0000000), wk =   0.0027435
        k(    2) = (  -0.1111111   0.1111111  -0.1111111), wk =   0.0219479
        k(    3) = (  -0.2222222   0.2222222  -0.2222222), wk =   0.0219479
        k(    4) = (  -0.3333333   0.3333333  -0.3333333), wk =   0.0219479
        k(    5) = (  -0.4444444   0.4444444  -0.4444444), wk =   0.0219479
        k(    6) = (   0.0000000   0.2222222   0.0000000), wk =   0.0164609
        k(    7) = (  -0.1111111   0.3333333  -0.1111111), wk =   0.0658436
        k(    8) = (  -0.2222222   0.4444444  -0.2222222), wk =   0.0658436
        k(    9) = (  -0.3333333   0.5555556  -0.3333333), wk =   0.0658436
        k(   10) = (   0.5555556  -0.3333333   0.5555556), wk =   0.0658436
        k(   11) = (   0.4444444  -0.2222222   0.4444444), wk =   0.0658436
        k(   12) = (   0.3333333  -0.1111111   0.3333333), wk =   0.0658436
        k(   13) = (   0.2222222  -0.0000000   0.2222222), wk =   0.0329218
        k(   14) = (   0.0000000   0.4444444   0.0000000), wk =   0.0164609
        k(   15) = (  -0.1111111   0.5555556  -0.1111111), wk =   0.0658436
        k(   16) = (  -0.2222222   0.6666667  -0.2222222), wk =   0.0658436
        k(   17) = (   0.6666667  -0.2222222   0.6666667), wk =   0.0658436
        k(   18) = (   0.5555556  -0.1111111   0.5555556), wk =   0.0658436
        k(   19) = (   0.4444444   0.0000000   0.4444444), wk =   0.0329218
        k(   20) = (   0.0000000   0.6666667   0.0000000), wk =   0.0164609
        k(   21) = (  -0.1111111   0.7777778  -0.1111111), wk =   0.0658436
        k(   22) = (   0.7777778  -0.1111111   0.7777778), wk =   0.0658436
        k(   23) = (   0.6666667  -0.0000000   0.6666667), wk =   0.0329218
        k(   24) = (   0.0000000   0.8888889   0.0000000), wk =   0.0164609
        k(   25) = (   0.8888889   0.0000000   0.8888889), wk =   0.0329218
        k(   26) = (  -0.2222222   0.4444444   0.0000000), wk =   0.0658436
        k(   27) = (  -0.3333333   0.5555556  -0.1111111), wk =   0.1316872
        k(   28) = (   0.5555556  -0.3333333   0.7777778), wk =   0.1316872
        k(   29) = (  -0.2222222   0.6666667   0.0000000), wk =   0.0658436
        k(   30) = (   0.6666667  -0.2222222   0.8888889), wk =   0.1316872
        k(   31) = (   0.5555556  -0.1111111   0.7777778), wk =   0.1316872
        k(   32) = (   0.4444444   0.0000000   0.6666667), wk =   0.0658436
        k(   33) = (   0.7777778  -0.1111111   1.0000000), wk =   0.0658436
        k(   34) = (   0.6666667  -0.0000000   0.8888889), wk =   0.0658436
        k(   35) = (   0.5555556  -0.1111111   1.0000000), wk =   0.0658436

     Dense  grid:     6879 G-vectors     FFT dimensions: (  27,  27,  27)

     Estimated max dynamical RAM per process >       7.61 MB

     Estimated total dynamical RAM >      38.04 MB

     Initial potential from superposition of free atoms

     starting charge   10.99977, renormalised to   11.00000
     Starting wfcs are    9 randomized atomic wfcs +    1 random wfcs

     total cpu time spent up to now is        1.1 secs

     Self-consistent Calculation

     iteration #  1     ecut=    75.00 Ry     beta= 0.70
     Davidson diagonalization with overlap
     ethr =  1.00E-02,  avg # of iterations =  3.7

     Threshold (ethr) on eigenvalues was too large:
     Diagonalizing with lowered threshold

     Davidson diagonalization with overlap
     ethr =  5.54E-04,  avg # of iterations =  1.0

     total cpu time spent up to now is        1.8 secs

     total energy              =    -122.71207509 Ry
     Harris-Foulkes estimate   =    -122.75964669 Ry
     estimated scf accuracy    <       0.06069878 Ry

     iteration #  2     ecut=    75.00 Ry     beta= 0.70
     Davidson diagonalization with overlap
     ethr =  5.52E-04,  avg # of iterations =  2.1

     total cpu time spent up to now is        2.2 secs

     total energy              =    -122.71345087 Ry
     Harris-Foulkes estimate   =    -122.79703427 Ry
     estimated scf accuracy    <       0.21624336 Ry

     iteration #  3     ecut=    75.00 Ry     beta= 0.70
     Davidson diagonalization with overlap
     ethr =  5.52E-04,  avg # of iterations =  2.0

     total cpu time spent up to now is        2.5 secs

     total energy              =    -122.74783307 Ry
     Harris-Foulkes estimate   =    -122.74784830 Ry
     estimated scf accuracy    <       0.00006589 Ry

     iteration #  4     ecut=    75.00 Ry     beta= 0.70
     Davidson diagonalization with overlap
     ethr =  5.99E-07,  avg # of iterations =  2.5

     total cpu time spent up to now is        2.9 secs

     total energy              =    -122.74788109 Ry
     Harris-Foulkes estimate   =    -122.74788472 Ry
     estimated scf accuracy    <       0.00001245 Ry

     iteration #  5     ecut=    75.00 Ry     beta= 0.70
     Davidson diagonalization with overlap
     ethr =  1.13E-07,  avg # of iterations =  1.1

     total cpu time spent up to now is        3.2 secs

     total energy              =    -122.74788331 Ry
     Harris-Foulkes estimate   =    -122.74788342 Ry
     estimated scf accuracy    <       0.00000032 Ry

     iteration #  6     ecut=    75.00 Ry     beta= 0.70
     Davidson diagonalization with overlap
     ethr =  2.87E-09,  avg # of iterations =  1.8

     total cpu time spent up to now is        3.5 secs

     End of self-consistent calculation

          k = 0.0000 0.0000 0.0000 (   893 PWs)   bands (ev):

     3.2768   9.6901   9.6901   9.6901  10.5170  10.5170  35.5983  37.9946
    37.9946  37.9946

          k =-0.1111 0.1111-0.1111 (   893 PWs)   bands (ev):

     3.7230   9.5996   9.7681   9.7681  10.4909  10.4909  32.2578  36.1947
    36.8967  36.8967

          k =-0.2222 0.2222-0.2222 (   887 PWs)   bands (ev):

     4.9884   9.4401   9.8547   9.8547  10.5483  10.5483  26.4973  35.5923
    35.6998  35.6998

          k =-0.3333 0.3333-0.3333 (   878 PWs)   bands (ev):

     6.6569   9.6642   9.7685   9.7685  10.8223  10.8223  21.2835  34.7113
    35.0161  35.0161

          k =-0.4444 0.4444-0.4444 (   874 PWs)   bands (ev):

     7.5287   9.6679   9.6679  11.0605  11.0605  11.1291  17.2362  34.0897
    34.7802  34.7802

          k = 0.0000 0.2222 0.0000 (   889 PWs)   bands (ev):

     3.8706   9.5167   9.8322   9.8322  10.3630  10.5808  33.9795  34.4596
    34.4596  36.1161

          k =-0.1111 0.3333-0.1111 (   880 PWs)   bands (ev):

     4.8626   9.3288   9.9189   9.9694  10.3394  10.6674  28.6813  32.7711
    33.9189  36.9567

          k =-0.2222 0.4444-0.2222 (   868 PWs)   bands (ev):

     6.4457   9.2626   9.7367   9.9526  10.8096  10.8912  23.2380  31.9000
    33.0452  34.6803

          k =-0.3333 0.5556-0.3333 (   878 PWs)   bands (ev):

     7.6335   9.5156   9.8413   9.8430  11.0888  11.8628  18.6184  31.5223
    31.9381  33.6523

          k = 0.5556-0.3333 0.5556 (   872 PWs)   bands (ev):

     7.8318   9.5010   9.7887  10.2096  11.0492  12.8866  16.6625  30.1298
    32.9743  33.9046

          k = 0.4444-0.2222 0.4444 (   874 PWs)   bands (ev):

     7.3812   9.6178   9.6324   9.8468  10.7597  11.6061  20.0403  29.5270
    35.0083  35.0154

          k = 0.3333-0.1111 0.3333 (   877 PWs)   bands (ev):

     5.8938   9.3021   9.7980   9.9743  10.3925  10.9650  24.9939  29.7551
    36.9162  37.9301

          k = 0.2222-0.0000 0.2222 (   895 PWs)   bands (ev):

     4.4452   9.4484   9.8581   9.8934  10.3425  10.6277  30.3183  31.0651
    37.9671  39.6237

          k = 0.0000 0.4444 0.0000 (   877 PWs)   bands (ev):

     5.5266   9.0876  10.0689  10.2299  10.2299  10.7438  30.6117  30.6117
    32.0763  32.5015

          k =-0.1111 0.5556-0.1111 (   865 PWs)   bands (ev):

     6.7766   8.8892   9.8359  10.3474  10.8503  10.9242  25.8279  29.3478
    29.7753  32.5775

          k =-0.2222 0.6667-0.2222 (   876 PWs)   bands (ev):

     7.9363   8.8963   9.6475  10.2627  11.1178  12.3243  20.8896  27.2722
    29.1140  32.4739

          k = 0.6667-0.2222 0.6667 (   862 PWs)   bands (ev):

     8.3428   9.0340   9.6669  10.1613  11.0661  14.7146  17.1262  25.4599
    29.9854  32.7800

          k = 0.5556-0.1111 0.5556 (   863 PWs)   bands (ev):

     8.2837   9.2304   9.4139  10.1312  10.7604  13.3040  19.4545  24.4870
    31.8941  33.7150

          k = 0.4444 0.0000 0.4444 (   873 PWs)   bands (ev):

     7.3126   9.1630   9.5513  10.1674  10.3849  11.7581  23.8104  24.7570
    34.6508  35.3512

          k = 0.0000 0.6667 0.0000 (   866 PWs)   bands (ev):

     7.3710   8.6167  10.6007  10.7654  10.7654  10.9318  26.3361  27.6519
    27.6519  30.8821

          k =-0.1111 0.7778-0.1111 (   863 PWs)   bands (ev):

     7.8831   8.5078  10.4228  10.7687  11.1330  12.5559  23.5677  23.9146
    27.0325  31.5530

          k = 0.7778-0.1111 0.7778 (   871 PWs)   bands (ev):

     8.2920   8.6036  10.0231  10.6385  11.1163  15.4146  19.5493  21.6889
    27.6163  31.9068

          k = 0.6667-0.0000 0.6667 (   866 PWs)   bands (ev):

     8.6466   8.8090   9.5505  10.4447  10.8976  15.9236  18.5989  21.1622
    29.3175  32.5679

          k = 0.0000 0.8889 0.0000 (   878 PWs)   bands (ev):

     7.7986   8.3187  11.0561  11.1802  11.1802  13.2968  20.9345  25.9894
    25.9894  30.3303

          k = 0.8889 0.0000 0.8889 (   874 PWs)   bands (ev):

     7.9417   8.3603  10.8082  10.9718  11.2024  14.8843  19.8991  23.1559
    26.1976  31.2601

          k =-0.2222 0.4444 0.0000 (   870 PWs)   bands (ev):

     6.0300   9.1287   9.7774  10.2408  10.3433  10.9817  27.1323  27.7698
    33.5652  36.4082

          k =-0.3333 0.5556-0.1111 (   877 PWs)   bands (ev):

     7.5022   9.0978   9.5136  10.1861  10.7284  11.7758  22.1935  27.0109
    30.8207  36.4723

          k = 0.5556-0.3333 0.7778 (   869 PWs)   bands (ev):

     8.1908   9.2041   9.6197  10.0724  11.0126  13.5716  17.8851  27.3845
    28.7448  36.0316

          k =-0.2222 0.6667 0.0000 (   864 PWs)   bands (ev):

     7.7433   8.7373   9.7505  10.7371  10.7628  11.9082  24.7101  25.3655
    26.8651  34.6406

          k = 0.6667-0.2222 0.8889 (   875 PWs)   bands (ev):

     8.3758   8.7831   9.5744  10.5397  11.0597  14.0751  20.3392  24.4829
    25.2726  35.4250

          k = 0.5556-0.1111 0.7778 (   875 PWs)   bands (ev):

     8.7265   8.8054   9.4199  10.3857  11.0283  16.1304  17.7260  22.9689
    26.3294  36.1283

          k = 0.4444 0.0000 0.6667 (   874 PWs)   bands (ev):

     8.4924   9.0853   9.1449  10.3967  10.7777  13.4742  21.3057  22.7570
    28.2319  37.4320

          k = 0.7778-0.1111 1.0000 (   875 PWs)   bands (ev):

     8.0739   8.4836  10.3266  10.8820  11.1794  14.5424  21.2780  23.3221
    24.0933  33.7697

          k = 0.6667-0.0000 0.8889 (   877 PWs)   bands (ev):

     8.3768   8.6737   9.8469  10.6423  11.1766  16.9359  19.5664  20.4972
    24.6267  35.0687

          k = 0.5556-0.1111 1.0000 (   877 PWs)   bands (ev):

     8.5651   8.9924   9.3092  10.5055  11.1774  16.7934  19.8672  21.7390
    22.5090  39.5707

     the Fermi energy is    12.7531 ev

!    total energy              =    -122.74788338 Ry
     Harris-Foulkes estimate   =    -122.74788338 Ry
     estimated scf accuracy    <          3.8E-10 Ry

     The total energy is the sum of the following terms:

     one-electron contribution =     -27.51406306 Ry
     hartree contribution      =      30.62031766 Ry
     xc contribution           =     -44.62881574 Ry
     ewald contribution        =     -81.22522855 Ry
     smearing contrib. (-TS)   =      -0.00009370 Ry

     convergence has been achieved in   6 iterations

     Forces acting on atoms (cartesian axes, Ry/au):

     atom    1 type  1   force =     0.00000000    0.00000000    0.00000000

     Total force =     0.000000     Total SCF correction =     0.000000


     Computing stress (Cartesian axis) and pressure

          total   stress  (Ry/bohr**3)                   (kbar)     P=   25.98
   0.00017658   0.00000000   0.00000000         25.98      0.00      0.00
   0.00000000   0.00017658  -0.00000000          0.00     25.98     -0.00
   0.00000000  -0.00000000   0.00017658          0.00     -0.00     25.98


     Writing output data file Cu.save/

     init_run     :      0.28s CPU      0.29s WALL (       1 calls)
     electrons    :      2.25s CPU      2.37s WALL (       1 calls)
     forces       :      0.04s CPU      0.04s WALL (       1 calls)
     stress       :      0.15s CPU      0.15s WALL (       1 calls)

     Called by init_run:
     wfcinit      :      0.10s CPU      0.11s WALL (       1 calls)
     potinit      :      0.01s CPU      0.01s WALL (       1 calls)
     hinit0       :      0.16s CPU      0.16s WALL (       1 calls)

     Called by electrons:
     c_bands      :      1.81s CPU      1.91s WALL (       7 calls)
     sum_band     :      0.37s CPU      0.39s WALL (       7 calls)
     v_of_rho     :      0.03s CPU      0.03s WALL (       7 calls)
     newd         :      0.05s CPU      0.05s WALL (       7 calls)
     mix_rho      :      0.00s CPU      0.00s WALL (       7 calls)

     Called by c_bands:
     init_us_2    :      0.07s CPU      0.07s WALL (     595 calls)
     cegterg      :      1.73s CPU      1.82s WALL (     245 calls)

     Called by sum_band:
     sum_band:bec :      0.00s CPU      0.00s WALL (     245 calls)
     addusdens    :      0.05s CPU      0.05s WALL (       7 calls)

     Called by *egterg:
     h_psi        :      1.42s CPU      1.51s WALL (     779 calls)
     s_psi        :      0.04s CPU      0.04s WALL (     779 calls)
     g_psi        :      0.00s CPU      0.00s WALL (     499 calls)
     cdiaghg      :      0.14s CPU      0.14s WALL (     709 calls)

     Called by h_psi:
     h_psi:pot    :      1.42s CPU      1.50s WALL (     779 calls)
     h_psi:calbec :      0.07s CPU      0.07s WALL (     779 calls)
     vloc_psi     :      1.30s CPU      1.38s WALL (     779 calls)
     add_vuspsi   :      0.04s CPU      0.05s WALL (     779 calls)

     General routines
     calbec       :      0.11s CPU      0.12s WALL (    1199 calls)
     fft          :      0.02s CPU      0.02s WALL (     104 calls)
     ffts         :      0.00s CPU      0.00s WALL (       7 calls)
     fftw         :      1.46s CPU      1.55s WALL (   14878 calls)

     Parallel routines
     fft_scatt_xy :      0.13s CPU      0.13s WALL (   14989 calls)
     fft_scatt_yz :      0.37s CPU      0.39s WALL (   14989 calls)

     PWSCF        :     3.56s CPU         3.75s WALL


   This run was terminated on:  23:37:12  25Mar2024            

=------------------------------------------------------------------------------=
   JOB DONE.
=------------------------------------------------------------------------------=
