
     Program PWSCF v.6.3MaX starts on 25Mar2024 at 23:12:35 

     This program is part of the open-source Quantum ESPRESSO suite
     for quantum simulation of materials; please cite
         "P. Giannozzi et al., J. Phys.:Condens. Matter 21 395502 (2009);
         "P. Giannozzi et al., J. Phys.:Condens. Matter 29 465901 (2017);
          URL http://www.quantum-espresso.org", 
     in publications or presentations arising from this work. More details at
     http://www.quantum-espresso.org/quote

     Parallel version (MPI), running on     5 processors

     MPI processes distributed on     1 nodes
     R & G space division:  proc/nbgrp/npool/nimage =       5
     Waiting for input...
     Reading input from standard input

     Current dimensions of program PWSCF are:
     Max number of different atomic species (ntypx) = 10
     Max number of k-points (npk) =  40000
     Max angular momentum in pseudopotentials (lmaxx) =  3
               file Cu.pbesol-dn-rrkjus_psl.1.0.0.UPF: wavefunction(s)  3D renormalized

     Subspace diagonalization in iterative solution of the eigenvalue problem:
     a serial algorithm will be used


     Parallelization info
     --------------------
     sticks:   dense  smooth     PW     G-vecs:    dense   smooth      PW
     Min          24      24      6                  187      187      22
     Max          25      25      7                  191      191      23
     Sum         121     121     31                  941      941     113



     bravais-lattice index     =            2
     lattice parameter (alat)  =       6.8300  a.u.
     unit-cell volume          =      79.6530 (a.u.)^3
     number of atoms/cell      =            1
     number of atomic types    =            1
     number of electrons       =        11.00
     number of Kohn-Sham states=           10
     kinetic-energy cutoff     =      20.0000  Ry
     charge density cutoff     =      80.0000  Ry
     convergence threshold     =      1.0E-08
     mixing beta               =       0.7000
     number of iterations used =            8  plain     mixing
     Exchange-correlation      = PBESOL ( 1  4 10  8 0 0)

     celldm(1)=   6.830000  celldm(2)=   0.000000  celldm(3)=   0.000000
     celldm(4)=   0.000000  celldm(5)=   0.000000  celldm(6)=   0.000000

     crystal axes: (cart. coord. in units of alat)
               a(1) = (  -0.500000   0.000000   0.500000 )  
               a(2) = (   0.000000   0.500000   0.500000 )  
               a(3) = (  -0.500000   0.500000   0.000000 )  

     reciprocal axes: (cart. coord. in units 2 pi/alat)
               b(1) = ( -1.000000 -1.000000  1.000000 )  
               b(2) = (  1.000000  1.000000  1.000000 )  
               b(3) = ( -1.000000  1.000000 -1.000000 )  


     PseudoPot. # 1 for Cu read from file:
     /home/lorenzo/pseudos/Cu/Cu.pbesol-dn-rrkjus_psl.1.0.0.UPF
     MD5 check sum: bfa4c7aafbc42e028d5f4ccf7ceed93d
     Pseudo is Ultrasoft + core correction, Zval = 11.0
     Generated using "atomic" code by A. Dal Corso v.6.3
     Using radial grid of 1199 points,  6 beta functions with: 
                l(1) =   0
                l(2) =   0
                l(3) =   1
                l(4) =   1
                l(5) =   2
                l(6) =   2
     Q(r) pseudized with 0 coefficients 


     atomic species   valence    mass     pseudopotential
        Cu            11.00    63.54600     Cu( 1.00)

     48 Sym. Ops., with inversion, found



   Cartesian axes

     site n.     atom                  positions (alat units)
         1           Cu  tau(   1) = (   0.0000000   0.0000000   0.0000000  )

     number of k points=     1  gaussian smearing, width (Ry)=  0.0100
                       cart. coord. in units 2pi/alat
        k(    1) = (   0.0000000   0.0000000   0.0000000), wk =   2.0000000

     Dense  grid:      941 G-vectors     FFT dimensions: (  15,  15,  15)

     Estimated max dynamical RAM per process >       1.49 MB

     Estimated total dynamical RAM >       7.47 MB

     Check: negative/imaginary core charge=   -0.000088    0.000000

     Initial potential from superposition of free atoms

     starting charge   10.99979, renormalised to   11.00000
     Starting wfcs are    9 randomized atomic wfcs +    1 random wfcs

     total cpu time spent up to now is        0.8 secs

     Self-consistent Calculation

     iteration #  1     ecut=    20.00 Ry     beta= 0.70
     Davidson diagonalization with overlap
     ethr =  1.00E-02,  avg # of iterations =  5.0

     total cpu time spent up to now is        0.8 secs

     total energy              =    -121.76636956 Ry
     Harris-Foulkes estimate   =    -122.50658046 Ry
     estimated scf accuracy    <       0.90458116 Ry

     iteration #  2     ecut=    20.00 Ry     beta= 0.70
     Davidson diagonalization with overlap
     ethr =  8.22E-03,  avg # of iterations =  2.0

     total cpu time spent up to now is        0.8 secs

     total energy              =    -121.77521426 Ry
     Harris-Foulkes estimate   =    -122.23441756 Ry
     estimated scf accuracy    <       0.90001494 Ry

     iteration #  3     ecut=    20.00 Ry     beta= 0.70
     Davidson diagonalization with overlap
     ethr =  8.18E-03,  avg # of iterations =  2.0

     total cpu time spent up to now is        0.8 secs

     total energy              =    -122.13719339 Ry
     Harris-Foulkes estimate   =    -122.15657792 Ry
     estimated scf accuracy    <       0.04215876 Ry

     iteration #  4     ecut=    20.00 Ry     beta= 0.70
     Davidson diagonalization with overlap
     ethr =  3.83E-04,  avg # of iterations =  3.0

     total cpu time spent up to now is        0.9 secs

     total energy              =    -122.14037638 Ry
     Harris-Foulkes estimate   =    -122.14280945 Ry
     estimated scf accuracy    <       0.00663253 Ry

     iteration #  5     ecut=    20.00 Ry     beta= 0.70
     Davidson diagonalization with overlap
     ethr =  6.03E-05,  avg # of iterations =  1.0

     total cpu time spent up to now is        0.9 secs

     total energy              =    -122.14000242 Ry
     Harris-Foulkes estimate   =    -122.14078901 Ry
     estimated scf accuracy    <       0.00128693 Ry

     iteration #  6     ecut=    20.00 Ry     beta= 0.70
     Davidson diagonalization with overlap
     ethr =  1.17E-05,  avg # of iterations =  2.0

     total cpu time spent up to now is        0.9 secs

     total energy              =    -122.14027067 Ry
     Harris-Foulkes estimate   =    -122.14026947 Ry
     estimated scf accuracy    <       0.00000680 Ry

     iteration #  7     ecut=    20.00 Ry     beta= 0.70
     Davidson diagonalization with overlap
     ethr =  6.18E-08,  avg # of iterations =  3.0

     total cpu time spent up to now is        0.9 secs

     total energy              =    -122.14029238 Ry
     Harris-Foulkes estimate   =    -122.14029230 Ry
     estimated scf accuracy    <       0.00000320 Ry

     iteration #  8     ecut=    20.00 Ry     beta= 0.70
     Davidson diagonalization with overlap
     ethr =  2.91E-08,  avg # of iterations =  1.0

     total cpu time spent up to now is        0.9 secs

     total energy              =    -122.14029287 Ry
     Harris-Foulkes estimate   =    -122.14029239 Ry
     estimated scf accuracy    <       0.00000268 Ry

     iteration #  9     ecut=    20.00 Ry     beta= 0.70
     Davidson diagonalization with overlap
     ethr =  2.44E-08,  avg # of iterations =  1.0

     total cpu time spent up to now is        0.9 secs

     total energy              =    -122.14029290 Ry
     Harris-Foulkes estimate   =    -122.14029290 Ry
     estimated scf accuracy    <       0.00000009 Ry

     iteration # 10     ecut=    20.00 Ry     beta= 0.70
     Davidson diagonalization with overlap
     ethr =  8.60E-10,  avg # of iterations =  3.0

     total cpu time spent up to now is        0.9 secs

     total energy              =    -122.14029291 Ry
     Harris-Foulkes estimate   =    -122.14029290 Ry
     estimated scf accuracy    <       0.00000010 Ry

     iteration # 11     ecut=    20.00 Ry     beta= 0.70
     Davidson diagonalization with overlap
     ethr =  8.60E-10,  avg # of iterations =  1.0

     total cpu time spent up to now is        0.9 secs

     total energy              =    -122.14029291 Ry
     Harris-Foulkes estimate   =    -122.14029291 Ry
     estimated scf accuracy    <       0.00000005 Ry

     iteration # 12     ecut=    20.00 Ry     beta= 0.70
     Davidson diagonalization with overlap
     ethr =  4.82E-10,  avg # of iterations =  1.0

     total cpu time spent up to now is        0.9 secs

     End of self-consistent calculation

          k = 0.0000 0.0000 0.0000 (   113 PWs)   bands (ev):

     2.9928   5.6605   5.6605   5.6605   6.2445   6.2445  36.0416  37.1918
    37.1918  37.1918

     the Fermi energy is     6.3094 ev

!    total energy              =    -122.14029291 Ry
     Harris-Foulkes estimate   =    -122.14029291 Ry
     estimated scf accuracy    <          4.5E-09 Ry

     The total energy is the sum of the following terms:

     one-electron contribution =     -24.70148069 Ry
     hartree contribution      =      26.86318190 Ry
     xc contribution           =     -43.06777746 Ry
     ewald contribution        =     -81.22522858 Ry
     smearing contrib. (-TS)   =      -0.00898808 Ry

     convergence has been achieved in  12 iterations

     Forces acting on atoms (cartesian axes, Ry/au):

     atom    1 type  1   force =     0.00000000    0.00000000    0.00000000

     Total force =     0.000000     Total SCF correction =     0.000000


     Computing stress (Cartesian axis) and pressure

          total   stress  (Ry/bohr**3)                   (kbar)     P=-8402.11
  -0.05711637  -0.00000000  -0.00000000      -8402.11     -0.00     -0.00
  -0.00000000  -0.05711637   0.00000000         -0.00  -8402.11      0.00
  -0.00000000   0.00000000  -0.05711637         -0.00      0.00  -8402.11


     Writing output data file Cu.save/

     init_run     :      0.09s CPU      0.09s WALL (       1 calls)
     electrons    :      0.08s CPU      0.09s WALL (       1 calls)
     forces       :      0.00s CPU      0.00s WALL (       1 calls)
     stress       :      0.01s CPU      0.01s WALL (       1 calls)

     Called by init_run:
     wfcinit      :      0.00s CPU      0.00s WALL (       1 calls)
     potinit      :      0.00s CPU      0.00s WALL (       1 calls)
     hinit0       :      0.08s CPU      0.08s WALL (       1 calls)

     Called by electrons:
     c_bands      :      0.04s CPU      0.04s WALL (      12 calls)
     sum_band     :      0.02s CPU      0.02s WALL (      12 calls)
     v_of_rho     :      0.01s CPU      0.01s WALL (      13 calls)
     newd         :      0.01s CPU      0.01s WALL (      13 calls)
     mix_rho      :      0.00s CPU      0.00s WALL (      12 calls)

     Called by c_bands:
     init_us_2    :      0.00s CPU      0.00s WALL (      25 calls)
     cegterg      :      0.04s CPU      0.04s WALL (      12 calls)

     Called by sum_band:
     sum_band:bec :      0.00s CPU      0.00s WALL (      12 calls)
     addusdens    :      0.01s CPU      0.01s WALL (      12 calls)

     Called by *egterg:
     h_psi        :      0.03s CPU      0.03s WALL (      38 calls)
     s_psi        :      0.00s CPU      0.00s WALL (      38 calls)
     g_psi        :      0.00s CPU      0.00s WALL (      25 calls)
     cdiaghg      :      0.01s CPU      0.01s WALL (      37 calls)

     Called by h_psi:
     h_psi:pot    :      0.02s CPU      0.03s WALL (      38 calls)
     h_psi:calbec :      0.00s CPU      0.00s WALL (      38 calls)
     vloc_psi     :      0.02s CPU      0.02s WALL (      38 calls)
     add_vuspsi   :      0.00s CPU      0.00s WALL (      38 calls)

     General routines
     calbec       :      0.00s CPU      0.00s WALL (      55 calls)
     fft          :      0.01s CPU      0.01s WALL (     169 calls)
     ffts         :      0.00s CPU      0.00s WALL (      12 calls)
     fftw         :      0.02s CPU      0.03s WALL (     688 calls)

     Parallel routines
     fft_scatt_xy :      0.00s CPU      0.00s WALL (     869 calls)
     fft_scatt_yz :      0.02s CPU      0.02s WALL (     869 calls)

     PWSCF        :     0.92s CPU         0.97s WALL


   This run was terminated on:  23:12:36  25Mar2024            

=------------------------------------------------------------------------------=
   JOB DONE.
=------------------------------------------------------------------------------=
