
     Program PWSCF v.6.3MaX starts on 25Mar2024 at 23:27:47 

     This program is part of the open-source Quantum ESPRESSO suite
     for quantum simulation of materials; please cite
         "P. Giannozzi et al., J. Phys.:Condens. Matter 21 395502 (2009);
         "P. Giannozzi et al., J. Phys.:Condens. Matter 29 465901 (2017);
          URL http://www.quantum-espresso.org", 
     in publications or presentations arising from this work. More details at
     http://www.quantum-espresso.org/quote

     Parallel version (MPI), running on     5 processors

     MPI processes distributed on     1 nodes
     R & G space division:  proc/nbgrp/npool/nimage =       5
     Waiting for input...
     Reading input from standard input

     Current dimensions of program PWSCF are:
     Max number of different atomic species (ntypx) = 10
     Max number of k-points (npk) =  40000
     Max angular momentum in pseudopotentials (lmaxx) =  3
               file Cu.pbesol-dn-kjpaw_psl.1.0.0.UPF: wavefunction(s)  4S 3D renormalized

     Subspace diagonalization in iterative solution of the eigenvalue problem:
     a serial algorithm will be used


     Parallelization info
     --------------------
     sticks:   dense  smooth     PW     G-vecs:    dense   smooth      PW
     Min          75      75     24                 1003     1003     187
     Max          76      76     25                 1007     1007     191
     Sum         379     379    121                 5029     5029     941



     bravais-lattice index     =            2
     lattice parameter (alat)  =       6.8300  a.u.
     unit-cell volume          =      79.6530 (a.u.)^3
     number of atoms/cell      =            1
     number of atomic types    =            1
     number of electrons       =        11.00
     number of Kohn-Sham states=           10
     kinetic-energy cutoff     =      60.0000  Ry
     charge density cutoff     =     240.0000  Ry
     convergence threshold     =      1.0E-08
     mixing beta               =       0.7000
     number of iterations used =            8  plain     mixing
     Exchange-correlation      = SLA PW PSX PSC ( 1  4 10  8 0 0)

     celldm(1)=   6.830000  celldm(2)=   0.000000  celldm(3)=   0.000000
     celldm(4)=   0.000000  celldm(5)=   0.000000  celldm(6)=   0.000000

     crystal axes: (cart. coord. in units of alat)
               a(1) = (  -0.500000   0.000000   0.500000 )  
               a(2) = (   0.000000   0.500000   0.500000 )  
               a(3) = (  -0.500000   0.500000   0.000000 )  

     reciprocal axes: (cart. coord. in units 2 pi/alat)
               b(1) = ( -1.000000 -1.000000  1.000000 )  
               b(2) = (  1.000000  1.000000  1.000000 )  
               b(3) = ( -1.000000  1.000000 -1.000000 )  


     PseudoPot. # 1 for Cu read from file:
     /home/lorenzo/pseudos/Cu/Cu.pbesol-dn-kjpaw_psl.1.0.0.UPF
     MD5 check sum: 1e9735a74797514c934643dbd229f231
     Pseudo is Projector augmented-wave + core cor, Zval = 11.0
     Generated using "atomic" code by A. Dal Corso v.6.3
     Shape of augmentation charge: PSQ
     Using radial grid of 1199 points,  6 beta functions with: 
                l(1) =   0
                l(2) =   0
                l(3) =   1
                l(4) =   1
                l(5) =   2
                l(6) =   2
     Q(r) pseudized with 0 coefficients 


     atomic species   valence    mass     pseudopotential
        Cu            11.00    63.54600     Cu( 1.00)

     48 Sym. Ops., with inversion, found



   Cartesian axes

     site n.     atom                  positions (alat units)
         1           Cu  tau(   1) = (   0.0000000   0.0000000   0.0000000  )

     number of k points=    47  gaussian smearing, width (Ry)=  0.0100
                       cart. coord. in units 2pi/alat
        k(    1) = (   0.0000000   0.0000000   0.0000000), wk =   0.0020000
        k(    2) = (  -0.1000000   0.1000000  -0.1000000), wk =   0.0160000
        k(    3) = (  -0.2000000   0.2000000  -0.2000000), wk =   0.0160000
        k(    4) = (  -0.3000000   0.3000000  -0.3000000), wk =   0.0160000
        k(    5) = (  -0.4000000   0.4000000  -0.4000000), wk =   0.0160000
        k(    6) = (   0.5000000  -0.5000000   0.5000000), wk =   0.0080000
        k(    7) = (   0.0000000   0.2000000   0.0000000), wk =   0.0120000
        k(    8) = (  -0.1000000   0.3000000  -0.1000000), wk =   0.0480000
        k(    9) = (  -0.2000000   0.4000000  -0.2000000), wk =   0.0480000
        k(   10) = (  -0.3000000   0.5000000  -0.3000000), wk =   0.0480000
        k(   11) = (   0.6000000  -0.4000000   0.6000000), wk =   0.0480000
        k(   12) = (   0.5000000  -0.3000000   0.5000000), wk =   0.0480000
        k(   13) = (   0.4000000  -0.2000000   0.4000000), wk =   0.0480000
        k(   14) = (   0.3000000  -0.1000000   0.3000000), wk =   0.0480000
        k(   15) = (   0.2000000   0.0000000   0.2000000), wk =   0.0240000
        k(   16) = (   0.0000000   0.4000000   0.0000000), wk =   0.0120000
        k(   17) = (  -0.1000000   0.5000000  -0.1000000), wk =   0.0480000
        k(   18) = (  -0.2000000   0.6000000  -0.2000000), wk =   0.0480000
        k(   19) = (   0.7000000  -0.3000000   0.7000000), wk =   0.0480000
        k(   20) = (   0.6000000  -0.2000000   0.6000000), wk =   0.0480000
        k(   21) = (   0.5000000  -0.1000000   0.5000000), wk =   0.0480000
        k(   22) = (   0.4000000   0.0000000   0.4000000), wk =   0.0240000
        k(   23) = (   0.0000000   0.6000000   0.0000000), wk =   0.0120000
        k(   24) = (  -0.1000000   0.7000000  -0.1000000), wk =   0.0480000
        k(   25) = (   0.8000000  -0.2000000   0.8000000), wk =   0.0480000
        k(   26) = (   0.7000000  -0.1000000   0.7000000), wk =   0.0480000
        k(   27) = (   0.6000000  -0.0000000   0.6000000), wk =   0.0240000
        k(   28) = (   0.0000000   0.8000000   0.0000000), wk =   0.0120000
        k(   29) = (   0.9000000  -0.1000000   0.9000000), wk =   0.0480000
        k(   30) = (   0.8000000   0.0000000   0.8000000), wk =   0.0240000
        k(   31) = (   0.0000000  -1.0000000   0.0000000), wk =   0.0060000
        k(   32) = (  -0.2000000   0.4000000   0.0000000), wk =   0.0480000
        k(   33) = (  -0.3000000   0.5000000  -0.1000000), wk =   0.0960000
        k(   34) = (   0.6000000  -0.4000000   0.8000000), wk =   0.0960000
        k(   35) = (   0.5000000  -0.3000000   0.7000000), wk =   0.0480000
        k(   36) = (  -0.2000000   0.6000000   0.0000000), wk =   0.0480000
        k(   37) = (   0.7000000  -0.3000000   0.9000000), wk =   0.0960000
        k(   38) = (   0.6000000  -0.2000000   0.8000000), wk =   0.0960000
        k(   39) = (   0.5000000  -0.1000000   0.7000000), wk =   0.0960000
        k(   40) = (   0.4000000   0.0000000   0.6000000), wk =   0.0480000
        k(   41) = (   0.8000000  -0.2000000   1.0000000), wk =   0.0480000
        k(   42) = (   0.7000000  -0.1000000   0.9000000), wk =   0.0960000
        k(   43) = (   0.6000000   0.0000000   0.8000000), wk =   0.0480000
        k(   44) = (  -0.2000000  -1.0000000   0.0000000), wk =   0.0240000
        k(   45) = (   0.6000000  -0.2000000   1.0000000), wk =   0.0480000
        k(   46) = (   0.5000000  -0.1000000   0.9000000), wk =   0.0480000
        k(   47) = (  -0.4000000  -1.0000000   0.0000000), wk =   0.0240000

     Dense  grid:     5029 G-vectors     FFT dimensions: (  24,  24,  24)

     Estimated max dynamical RAM per process >       6.01 MB

     Estimated total dynamical RAM >      30.04 MB

     Initial potential from superposition of free atoms

     starting charge   10.99979, renormalised to   11.00000
     Starting wfcs are    9 randomized atomic wfcs +    1 random wfcs
     Checking if some PAW data can be deallocated... 

     total cpu time spent up to now is        1.2 secs

     Self-consistent Calculation

     iteration #  1     ecut=    60.00 Ry     beta= 0.70
     Davidson diagonalization with overlap
     ethr =  1.00E-02,  avg # of iterations =  3.7

     Threshold (ethr) on eigenvalues was too large:
     Diagonalizing with lowered threshold

     Davidson diagonalization with overlap
     ethr =  6.90E-04,  avg # of iterations =  1.1

     total cpu time spent up to now is        1.9 secs

     total energy              =    -210.37426924 Ry
     Harris-Foulkes estimate   =    -210.43469586 Ry
     estimated scf accuracy    <       0.07555835 Ry

     iteration #  2     ecut=    60.00 Ry     beta= 0.70
     Davidson diagonalization with overlap
     ethr =  6.87E-04,  avg # of iterations =  2.0

     total cpu time spent up to now is        2.3 secs

     total energy              =    -210.37652740 Ry
     Harris-Foulkes estimate   =    -210.48362256 Ry
     estimated scf accuracy    <       0.27918168 Ry

     iteration #  3     ecut=    60.00 Ry     beta= 0.70
     Davidson diagonalization with overlap
     ethr =  6.87E-04,  avg # of iterations =  2.1

     total cpu time spent up to now is        2.8 secs

     total energy              =    -210.41966248 Ry
     Harris-Foulkes estimate   =    -210.41973547 Ry
     estimated scf accuracy    <       0.00014787 Ry

     iteration #  4     ecut=    60.00 Ry     beta= 0.70
     Davidson diagonalization with overlap
     ethr =  1.34E-06,  avg # of iterations =  2.3

     total cpu time spent up to now is        3.3 secs

     total energy              =    -210.41973793 Ry
     Harris-Foulkes estimate   =    -210.41974874 Ry
     estimated scf accuracy    <       0.00002859 Ry

     iteration #  5     ecut=    60.00 Ry     beta= 0.70
     Davidson diagonalization with overlap
     ethr =  2.60E-07,  avg # of iterations =  1.1

     total cpu time spent up to now is        3.6 secs

     total energy              =    -210.41974324 Ry
     Harris-Foulkes estimate   =    -210.41974351 Ry
     estimated scf accuracy    <       0.00000074 Ry

     iteration #  6     ecut=    60.00 Ry     beta= 0.70
     Davidson diagonalization with overlap
     ethr =  6.75E-09,  avg # of iterations =  1.9

     total cpu time spent up to now is        4.0 secs

     End of self-consistent calculation

          k = 0.0000 0.0000 0.0000 (   609 PWs)   bands (ev):

     3.0424   9.4662   9.4662   9.4662  10.3081  10.3081  35.3777  37.7500
    37.7500  37.7500

          k =-0.1000 0.1000-0.1000 (   621 PWs)   bands (ev):

     3.4046   9.3913   9.5315   9.5315  10.2850  10.2850  32.5949  36.0211
    36.7915  36.7915

          k =-0.2000 0.2000-0.2000 (   628 PWs)   bands (ev):

     4.4459   9.2390   9.6298   9.6298  10.3062  10.3062  27.3859  35.5253
    35.6508  35.6508

          k =-0.3000 0.3000-0.3000 (   613 PWs)   bands (ev):

     5.9401   9.2746   9.5865   9.5865  10.5164  10.5164  22.5313  34.7575
    34.9164  34.9164

          k =-0.4000 0.4000-0.4000 (   619 PWs)   bands (ev):

     7.0971   9.4823   9.4823  10.1874  10.7725  10.7725  18.3994  34.0585
    34.5778  34.5778

          k = 0.5000-0.5000 0.5000 (   628 PWs)   bands (ev):

     7.3697   9.4360   9.4360  10.8811  10.8811  11.4031  16.2132  33.7872
    34.5041  34.5041

          k = 0.0000 0.2000 0.0000 (   613 PWs)   bands (ev):

     3.5246   9.3241   9.5819   9.5819  10.1811  10.3603  33.9721  34.6291
    34.6291  36.1630

          k =-0.1000 0.3000-0.1000 (   611 PWs)   bands (ev):

     4.3389   9.1614   9.6876   9.7079  10.1169  10.4224  29.3474  33.0498
    34.0096  37.2647

          k =-0.2000 0.4000-0.2000 (   618 PWs)   bands (ev):

     5.7034   9.0524   9.5841   9.7288  10.4086  10.5951  24.3363  32.1075
    33.3019  35.4847

          k =-0.3000 0.5000-0.3000 (   621 PWs)   bands (ev):

     7.0528   9.3144   9.4574   9.6383  10.8127  11.0746  19.8924  31.8623
    32.3352  33.7933

          k = 0.6000-0.4000 0.6000 (   620 PWs)   bands (ev):

     7.5410   9.3082   9.5589  10.0091  10.8885  12.3364  16.6366  30.9676
    32.3893  33.5471

          k = 0.5000-0.3000 0.5000 (   621 PWs)   bands (ev):

     7.4699   9.3477   9.5598   9.9071  10.7439  11.9531  17.4894  30.0605
    33.7291  34.1123

          k = 0.4000-0.2000 0.4000 (   622 PWs)   bands (ev):

     6.6800   9.2324   9.4814   9.6489  10.4364  11.0515  21.3003  29.8234
    35.3511  35.8418

          k = 0.3000-0.1000 0.3000 (   620 PWs)   bands (ev):

     5.2087   9.1093   9.6166   9.7436  10.1473  10.6160  25.9642  30.2366
    37.0789  38.5110

          k = 0.2000 0.0000 0.2000 (   612 PWs)   bands (ev):

     3.9944   9.2629   9.6229   9.6331  10.1605  10.3812  30.7930  31.5749
    37.4929  39.0784

          k = 0.0000 0.4000 0.0000 (   613 PWs)   bands (ev):

     4.8958   8.9593   9.9035   9.9110   9.9110  10.4982  31.0753  31.0753
    32.1747  33.2556

          k =-0.1000 0.5000-0.1000 (   616 PWs)   bands (ev):

     6.0047   8.7688   9.6479  10.0407  10.3867  10.6391  26.6333  29.8023
    31.0597  32.7613

          k =-0.2000 0.6000-0.2000 (   623 PWs)   bands (ev):

     7.2688   8.7276   9.4238   9.9932  10.8441  11.3459  22.0028  28.7643
    29.3197  32.4787

          k = 0.7000-0.3000 0.7000 (   628 PWs)   bands (ev):

     7.9258   8.8743   9.4331   9.8963  10.9086  13.1530  18.0563  26.8874
    29.7034  32.5336

          k = 0.6000-0.2000 0.6000 (   624 PWs)   bands (ev):

     8.0321   8.9807   9.4569   9.8422  10.7451  13.9158  17.0796  25.6371
    30.9593  33.0766

          k = 0.5000-0.1000 0.5000 (   620 PWs)   bands (ev):

     7.6797   9.0709   9.1969   9.8699  10.4119  12.1617  20.6258  25.0971
    32.9989  34.2110

          k = 0.4000 0.0000 0.4000 (   630 PWs)   bands (ev):

     6.4773   8.9600   9.4494   9.9641  10.0537  11.1758  24.7753  25.5872
    35.6740  35.9325

          k = 0.0000 0.6000 0.0000 (   628 PWs)   bands (ev):

     6.6993   8.5224  10.0029  10.3816  10.3816  10.6707  27.9936  28.1754
    28.1754  30.9401

          k =-0.1000 0.7000-0.1000 (   626 PWs)   bands (ev):

     7.4444   8.3830   9.9835  10.4439  10.8497  11.4242  24.5724  25.3986
    27.3723  31.5061

          k = 0.8000-0.2000 0.8000 (   623 PWs)   bands (ev):

     7.9645   8.4109   9.7479  10.3492  10.9365  13.5703  20.4490  23.3161
    27.5063  31.7195

          k = 0.7000-0.1000 0.7000 (   630 PWs)   bands (ev):

     8.3106   8.5481   9.4571  10.2349  10.7910  16.1797  17.2304  21.9180
    28.5811  32.1340

          k = 0.6000-0.0000 0.6000 (   618 PWs)   bands (ev):

     8.3707   8.8162   9.1099  10.0995  10.5372  14.0093  19.7874  21.7091
    30.4735  32.9611

          k = 0.0000 0.8000 0.0000 (   628 PWs)   bands (ev):

     7.5309   8.1798  10.8121  10.8308  10.8308  11.8560  22.6151  26.2222
    26.2222  30.2547

          k = 0.9000-0.1000 0.9000 (   632 PWs)   bands (ev):

     7.6976   8.1494  10.5783  10.7397  10.9749  13.7966  20.6438  23.4400
    26.0414  31.0122

          k = 0.8000 0.0000 0.8000 (   632 PWs)   bands (ev):

     7.9927   8.2965  10.0119  10.5710  10.8951  15.9112  19.6672  20.1683
    26.8714  31.5051

          k = 0.0000-1.0000 0.0000 (   636 PWs)   bands (ev):

     7.5856   8.0515  10.8666  11.0234  11.0234  13.9026  19.5679  25.5204
    25.5204  30.0372

          k =-0.2000 0.4000 0.0000 (   620 PWs)   bands (ev):

     5.3217   8.9789   9.6272   9.9225  10.0948  10.6348  27.8466  28.4763
    34.5962  36.0852

          k =-0.3000 0.5000-0.1000 (   620 PWs)   bands (ev):

     6.6998   8.8948   9.4052   9.9284  10.3875  11.1481  23.2773  27.5820
    32.0634  36.1773

          k = 0.6000-0.4000 0.8000 (   627 PWs)   bands (ev):

     7.6997   9.0820   9.3195   9.8241  10.7262  12.2775  19.0552  27.6356
    29.9685  35.6595

          k = 0.5000-0.3000 0.7000 (   632 PWs)   bands (ev):

     7.9061   9.0517   9.5859   9.7635  10.8371  13.7597  16.5004  28.2224
    28.6832  35.4405

          k =-0.2000 0.6000 0.0000 (   624 PWs)   bands (ev):

     7.0374   8.6036   9.5140  10.3806  10.4366  11.1698  25.4754  26.0643
    28.4715  34.3142

          k = 0.7000-0.3000 0.9000 (   628 PWs)   bands (ev):

     7.9143   8.5989   9.3288  10.2741  10.7633  12.5756  21.3271  25.6242
    26.1927  34.8871

          k = 0.6000-0.2000 0.8000 (   631 PWs)   bands (ev):

     8.3042   8.6611   9.2887  10.1274  10.8479  14.9416  17.6366  24.4209
    26.2971  35.2454

          k = 0.5000-0.1000 0.7000 (   632 PWs)   bands (ev):

     8.3637   8.7707   9.1168  10.0946  10.6950  14.2138  18.7185  23.3988
    27.6324  36.1245

          k = 0.4000 0.0000 0.6000 (   623 PWs)   bands (ev):

     7.8242   8.8286   9.1060  10.1507  10.4040  12.2574  22.3492  23.4862
    29.5930  37.5340

          k = 0.8000-0.2000 1.0000 (   629 PWs)   bands (ev):

     7.7815   8.3031   9.9944  10.6915  10.8289  12.9266  22.9463  23.8475
    24.5170  33.2653

          k = 0.7000-0.1000 0.9000 (   628 PWs)   bands (ev):

     8.0840   8.4019   9.7051  10.4849  10.9414  15.3640  20.2219  21.2454
    24.6458  34.2705

          k = 0.6000 0.0000 0.8000 (   633 PWs)   bands (ev):

     8.4149   8.5621   9.2963  10.2874  10.8322  16.8669  17.9817  20.7422
    25.8187  35.0612

          k =-0.2000-1.0000 0.0000 (   630 PWs)   bands (ev):

     7.8030   8.1896  10.3356  10.7007  11.0237  15.0226  19.7500  23.2512
    23.9382  32.9255

          k = 0.6000-0.2000 1.0000 (   635 PWs)   bands (ev):

     8.3226   8.6785   9.1089  10.3472  10.8255  14.6521  20.7026  22.2136
    24.0414  38.3397

          k = 0.5000-0.1000 0.9000 (   630 PWs)   bands (ev):

     8.4244   8.7864   9.0186  10.2499  10.9312  17.2493  17.8592  22.4443
    22.6705  38.8882

          k =-0.4000-1.0000 0.0000 (   632 PWs)   bands (ev):

     8.2418   8.6159   9.3484  10.3440  11.0241  17.2897  20.0979  20.3810
    21.8214  37.9544

     the Fermi energy is    12.3778 ev

!    total energy              =    -210.41974339 Ry
     Harris-Foulkes estimate   =    -210.41974339 Ry
     estimated scf accuracy    <          2.9E-10 Ry

     total all-electron energy =     -3307.298805 Ry

     The total energy is the sum of the following terms:

     one-electron contribution =     -28.00767015 Ry
     hartree contribution      =      30.52584633 Ry
     xc contribution           =     -44.11133329 Ry
     ewald contribution        =     -81.22522856 Ry
     one-center paw contrib.   =     -87.60097161 Ry
     smearing contrib. (-TS)   =      -0.00038611 Ry

     convergence has been achieved in   6 iterations

     Forces acting on atoms (cartesian axes, Ry/au):

     atom    1 type  1   force =     0.00000000    0.00000000    0.00000000

     Total force =     0.000000     Total SCF correction =     0.000000


     Computing stress (Cartesian axis) and pressure

          total   stress  (Ry/bohr**3)                   (kbar)     P=  -62.51
  -0.00042492   0.00000000   0.00000000        -62.51      0.00      0.00
   0.00000000  -0.00042492  -0.00000000          0.00    -62.51     -0.00
   0.00000000  -0.00000000  -0.00042492          0.00     -0.00    -62.51


     Writing output data file Cu.save/

     init_run     :      0.37s CPU      0.39s WALL (       1 calls)
     electrons    :      2.65s CPU      2.85s WALL (       1 calls)
     forces       :      0.03s CPU      0.03s WALL (       1 calls)
     stress       :      0.11s CPU      0.11s WALL (       1 calls)

     Called by init_run:
     wfcinit      :      0.08s CPU      0.09s WALL (       1 calls)
     potinit      :      0.11s CPU      0.13s WALL (       1 calls)
     hinit0       :      0.15s CPU      0.15s WALL (       1 calls)

     Called by electrons:
     c_bands      :      1.68s CPU      1.79s WALL (       7 calls)
     sum_band     :      0.36s CPU      0.38s WALL (       7 calls)
     v_of_rho     :      0.03s CPU      0.03s WALL (       7 calls)
     newd         :      0.04s CPU      0.05s WALL (       7 calls)
     PAW_pot      :      0.65s CPU      0.73s WALL (       7 calls)
     mix_rho      :      0.00s CPU      0.00s WALL (       7 calls)

     Called by c_bands:
     init_us_2    :      0.06s CPU      0.06s WALL (     799 calls)
     cegterg      :      1.60s CPU      1.70s WALL (     329 calls)

     Called by sum_band:
     sum_band:bec :      0.00s CPU      0.00s WALL (     329 calls)
     addusdens    :      0.03s CPU      0.03s WALL (       7 calls)

     Called by *egterg:
     h_psi        :      1.22s CPU      1.31s WALL (    1046 calls)
     s_psi        :      0.04s CPU      0.05s WALL (    1046 calls)
     g_psi        :      0.00s CPU      0.00s WALL (     670 calls)
     cdiaghg      :      0.18s CPU      0.19s WALL (     952 calls)

     Called by h_psi:
     h_psi:pot    :      1.22s CPU      1.30s WALL (    1046 calls)
     h_psi:calbec :      0.06s CPU      0.07s WALL (    1046 calls)
     vloc_psi     :      1.10s CPU      1.18s WALL (    1046 calls)
     add_vuspsi   :      0.04s CPU      0.05s WALL (    1046 calls)

     General routines
     calbec       :      0.10s CPU      0.11s WALL (    1610 calls)
     fft          :      0.02s CPU      0.02s WALL (     104 calls)
     ffts         :      0.00s CPU      0.00s WALL (       7 calls)
     fftw         :      1.25s CPU      1.34s WALL (   19926 calls)

     Parallel routines
     fft_scatt_xy :      0.11s CPU      0.12s WALL (   20037 calls)
     fft_scatt_yz :      0.41s CPU      0.43s WALL (   20037 calls)

     PWSCF        :     3.95s CPU         4.25s WALL


   This run was terminated on:  23:27:52  25Mar2024            

=------------------------------------------------------------------------------=
   JOB DONE.
=------------------------------------------------------------------------------=
