
     Program PWSCF v.6.3MaX starts on 25Mar2024 at 23: 8:20 

     This program is part of the open-source Quantum ESPRESSO suite
     for quantum simulation of materials; please cite
         "P. Giannozzi et al., J. Phys.:Condens. Matter 21 395502 (2009);
         "P. Giannozzi et al., J. Phys.:Condens. Matter 29 465901 (2017);
          URL http://www.quantum-espresso.org", 
     in publications or presentations arising from this work. More details at
     http://www.quantum-espresso.org/quote

     Parallel version (MPI), running on     5 processors

     MPI processes distributed on     1 nodes
     R & G space division:  proc/nbgrp/npool/nimage =       5
     Waiting for input...
     Reading input from standard input

     Current dimensions of program PWSCF are:
     Max number of different atomic species (ntypx) = 10
     Max number of k-points (npk) =  40000
     Max angular momentum in pseudopotentials (lmaxx) =  3
               file Cu.pbe-dn-rrkjus_psl.1.0.0.UPF: wavefunction(s)  3D renormalized

     Subspace diagonalization in iterative solution of the eigenvalue problem:
     a serial algorithm will be used


     Parallelization info
     --------------------
     sticks:   dense  smooth     PW     G-vecs:    dense   smooth      PW
     Min         129     129     39                 2168     2168     376
     Max         130     130     40                 2171     2171     380
     Sum         649     649    199                10849    10849    1893



     bravais-lattice index     =            2
     lattice parameter (alat)  =       6.8300  a.u.
     unit-cell volume          =      79.6530 (a.u.)^3
     number of atoms/cell      =            1
     number of atomic types    =            1
     number of electrons       =        11.00
     number of Kohn-Sham states=           10
     kinetic-energy cutoff     =     100.0000  Ry
     charge density cutoff     =     400.0000  Ry
     convergence threshold     =      1.0E-08
     mixing beta               =       0.7000
     number of iterations used =            8  plain     mixing
     Exchange-correlation      = PBE ( 1  4  3  4 0 0)

     celldm(1)=   6.830000  celldm(2)=   0.000000  celldm(3)=   0.000000
     celldm(4)=   0.000000  celldm(5)=   0.000000  celldm(6)=   0.000000

     crystal axes: (cart. coord. in units of alat)
               a(1) = (  -0.500000   0.000000   0.500000 )  
               a(2) = (   0.000000   0.500000   0.500000 )  
               a(3) = (  -0.500000   0.500000   0.000000 )  

     reciprocal axes: (cart. coord. in units 2 pi/alat)
               b(1) = ( -1.000000 -1.000000  1.000000 )  
               b(2) = (  1.000000  1.000000  1.000000 )  
               b(3) = ( -1.000000  1.000000 -1.000000 )  


     PseudoPot. # 1 for Cu read from file:
     /home/lorenzo/pseudos/Cu/Cu.pbe-dn-rrkjus_psl.1.0.0.UPF
     MD5 check sum: ba3d6c84e19846e79d48cdc68ff7152b
     Pseudo is Ultrasoft + core correction, Zval = 11.0
     Generated using "atomic" code by A. Dal Corso v.6.3
     Using radial grid of 1199 points,  6 beta functions with: 
                l(1) =   0
                l(2) =   0
                l(3) =   1
                l(4) =   1
                l(5) =   2
                l(6) =   2
     Q(r) pseudized with 0 coefficients 


     atomic species   valence    mass     pseudopotential
        Cu            11.00    63.54600     Cu( 1.00)

     48 Sym. Ops., with inversion, found



   Cartesian axes

     site n.     atom                  positions (alat units)
         1           Cu  tau(   1) = (   0.0000000   0.0000000   0.0000000  )

     number of k points=    35  gaussian smearing, width (Ry)=  0.0100
                       cart. coord. in units 2pi/alat
        k(    1) = (   0.0000000   0.0000000   0.0000000), wk =   0.0027435
        k(    2) = (  -0.1111111   0.1111111  -0.1111111), wk =   0.0219479
        k(    3) = (  -0.2222222   0.2222222  -0.2222222), wk =   0.0219479
        k(    4) = (  -0.3333333   0.3333333  -0.3333333), wk =   0.0219479
        k(    5) = (  -0.4444444   0.4444444  -0.4444444), wk =   0.0219479
        k(    6) = (   0.0000000   0.2222222   0.0000000), wk =   0.0164609
        k(    7) = (  -0.1111111   0.3333333  -0.1111111), wk =   0.0658436
        k(    8) = (  -0.2222222   0.4444444  -0.2222222), wk =   0.0658436
        k(    9) = (  -0.3333333   0.5555556  -0.3333333), wk =   0.0658436
        k(   10) = (   0.5555556  -0.3333333   0.5555556), wk =   0.0658436
        k(   11) = (   0.4444444  -0.2222222   0.4444444), wk =   0.0658436
        k(   12) = (   0.3333333  -0.1111111   0.3333333), wk =   0.0658436
        k(   13) = (   0.2222222  -0.0000000   0.2222222), wk =   0.0329218
        k(   14) = (   0.0000000   0.4444444   0.0000000), wk =   0.0164609
        k(   15) = (  -0.1111111   0.5555556  -0.1111111), wk =   0.0658436
        k(   16) = (  -0.2222222   0.6666667  -0.2222222), wk =   0.0658436
        k(   17) = (   0.6666667  -0.2222222   0.6666667), wk =   0.0658436
        k(   18) = (   0.5555556  -0.1111111   0.5555556), wk =   0.0658436
        k(   19) = (   0.4444444   0.0000000   0.4444444), wk =   0.0329218
        k(   20) = (   0.0000000   0.6666667   0.0000000), wk =   0.0164609
        k(   21) = (  -0.1111111   0.7777778  -0.1111111), wk =   0.0658436
        k(   22) = (   0.7777778  -0.1111111   0.7777778), wk =   0.0658436
        k(   23) = (   0.6666667  -0.0000000   0.6666667), wk =   0.0329218
        k(   24) = (   0.0000000   0.8888889   0.0000000), wk =   0.0164609
        k(   25) = (   0.8888889   0.0000000   0.8888889), wk =   0.0329218
        k(   26) = (  -0.2222222   0.4444444   0.0000000), wk =   0.0658436
        k(   27) = (  -0.3333333   0.5555556  -0.1111111), wk =   0.1316872
        k(   28) = (   0.5555556  -0.3333333   0.7777778), wk =   0.1316872
        k(   29) = (  -0.2222222   0.6666667   0.0000000), wk =   0.0658436
        k(   30) = (   0.6666667  -0.2222222   0.8888889), wk =   0.1316872
        k(   31) = (   0.5555556  -0.1111111   0.7777778), wk =   0.1316872
        k(   32) = (   0.4444444   0.0000000   0.6666667), wk =   0.0658436
        k(   33) = (   0.7777778  -0.1111111   1.0000000), wk =   0.0658436
        k(   34) = (   0.6666667  -0.0000000   0.8888889), wk =   0.0658436
        k(   35) = (   0.5555556  -0.1111111   1.0000000), wk =   0.0658436

     Dense  grid:    10849 G-vectors     FFT dimensions: (  32,  32,  32)

     Estimated max dynamical RAM per process >      11.35 MB

     Estimated total dynamical RAM >      56.75 MB

     Initial potential from superposition of free atoms

     starting charge   10.99977, renormalised to   11.00000
     Starting wfcs are    9 randomized atomic wfcs +    1 random wfcs

     total cpu time spent up to now is        1.1 secs

     Self-consistent Calculation

     iteration #  1     ecut=   100.00 Ry     beta= 0.70
     Davidson diagonalization with overlap
     ethr =  1.00E-02,  avg # of iterations =  3.7

     Threshold (ethr) on eigenvalues was too large:
     Diagonalizing with lowered threshold

     Davidson diagonalization with overlap
     ethr =  5.55E-04,  avg # of iterations =  1.0

     total cpu time spent up to now is        2.3 secs

     total energy              =    -122.71222311 Ry
     Harris-Foulkes estimate   =    -122.75984116 Ry
     estimated scf accuracy    <       0.06074379 Ry

     iteration #  2     ecut=   100.00 Ry     beta= 0.70
     Davidson diagonalization with overlap
     ethr =  5.52E-04,  avg # of iterations =  2.1

     total cpu time spent up to now is        2.8 secs

     total energy              =    -122.71360554 Ry
     Harris-Foulkes estimate   =    -122.79726389 Ry
     estimated scf accuracy    <       0.21644495 Ry

     iteration #  3     ecut=   100.00 Ry     beta= 0.70
     Davidson diagonalization with overlap
     ethr =  5.52E-04,  avg # of iterations =  2.0

     total cpu time spent up to now is        3.2 secs

     total energy              =    -122.74801320 Ry
     Harris-Foulkes estimate   =    -122.74802889 Ry
     estimated scf accuracy    <       0.00006628 Ry

     iteration #  4     ecut=   100.00 Ry     beta= 0.70
     Davidson diagonalization with overlap
     ethr =  6.03E-07,  avg # of iterations =  2.5

     total cpu time spent up to now is        3.7 secs

     total energy              =    -122.74806270 Ry
     Harris-Foulkes estimate   =    -122.74806631 Ry
     estimated scf accuracy    <       0.00001260 Ry

     iteration #  5     ecut=   100.00 Ry     beta= 0.70
     Davidson diagonalization with overlap
     ethr =  1.15E-07,  avg # of iterations =  1.1

     total cpu time spent up to now is        4.1 secs

     total energy              =    -122.74806490 Ry
     Harris-Foulkes estimate   =    -122.74806499 Ry
     estimated scf accuracy    <       0.00000026 Ry

     iteration #  6     ecut=   100.00 Ry     beta= 0.70
     Davidson diagonalization with overlap
     ethr =  2.35E-09,  avg # of iterations =  2.0

     total cpu time spent up to now is        4.5 secs

     End of self-consistent calculation

          k = 0.0000 0.0000 0.0000 (  1363 PWs)   bands (ev):

     3.2768   9.6897   9.6897   9.6897  10.5165  10.5165  35.5985  37.9945
    37.9945  37.9945

          k =-0.1111 0.1111-0.1111 (  1351 PWs)   bands (ev):

     3.7230   9.5992   9.7676   9.7676  10.4904  10.4904  32.2577  36.1947
    36.8965  36.8965

          k =-0.2222 0.2222-0.2222 (  1339 PWs)   bands (ev):

     4.9884   9.4395   9.8542   9.8542  10.5478  10.5478  26.4971  35.5923
    35.6996  35.6996

          k =-0.3333 0.3333-0.3333 (  1356 PWs)   bands (ev):

     6.6568   9.6638   9.7680   9.7680  10.8217  10.8217  21.2834  34.7114
    35.0159  35.0159

          k =-0.4444 0.4444-0.4444 (  1344 PWs)   bands (ev):

     7.5284   9.6674   9.6674  11.0599  11.0599  11.1290  17.2360  34.0898
    34.7801  34.7801

          k = 0.0000 0.2222 0.0000 (  1347 PWs)   bands (ev):

     3.8706   9.5162   9.8317   9.8317  10.3626  10.5803  33.9795  34.4594
    34.4594  36.1161

          k =-0.1111 0.3333-0.1111 (  1346 PWs)   bands (ev):

     4.8626   9.3284   9.9184   9.9689  10.3388  10.6669  28.6812  32.7710
    33.9188  36.9565

          k =-0.2222 0.4444-0.2222 (  1346 PWs)   bands (ev):

     6.4456   9.2622   9.7362   9.9521  10.8091  10.8906  23.2379  31.8999
    33.0451  34.6802

          k =-0.3333 0.5556-0.3333 (  1352 PWs)   bands (ev):

     7.6332   9.5151   9.8409   9.8425  11.0882  11.8624  18.6182  31.5222
    31.9380  33.6522

          k = 0.5556-0.3333 0.5556 (  1346 PWs)   bands (ev):

     7.8315   9.5005   9.7882  10.2092  11.0487  12.8864  16.6623  30.1297
    32.9741  33.9045

          k = 0.4444-0.2222 0.4444 (  1345 PWs)   bands (ev):

     7.3810   9.6174   9.6319   9.8463  10.7592  11.6057  20.0401  29.5269
    35.0081  35.0154

          k = 0.3333-0.1111 0.3333 (  1352 PWs)   bands (ev):

     5.8937   9.3016   9.7975   9.9738  10.3919  10.9644  24.9938  29.7549
    36.9162  37.9298

          k = 0.2222-0.0000 0.2222 (  1361 PWs)   bands (ev):

     4.4451   9.4479   9.8577   9.8930  10.3420  10.6271  30.3182  31.0650
    37.9671  39.6236

          k = 0.0000 0.4444 0.0000 (  1343 PWs)   bands (ev):

     5.5265   9.0871  10.0684  10.2293  10.2293  10.7433  30.6116  30.6116
    32.0762  32.5014

          k =-0.1111 0.5556-0.1111 (  1336 PWs)   bands (ev):

     6.7765   8.8887   9.8353  10.3469  10.8498  10.9236  25.8278  29.3477
    29.7751  32.5774

          k =-0.2222 0.6667-0.2222 (  1347 PWs)   bands (ev):

     7.9361   8.8959   9.6470  10.2621  11.1173  12.3240  20.8895  27.2721
    29.1138  32.4738

          k = 0.6667-0.2222 0.6667 (  1352 PWs)   bands (ev):

     8.3424   9.0336   9.6664  10.1608  11.0655  14.7144  17.1260  25.4598
    29.9853  32.7799

          k = 0.5556-0.1111 0.5556 (  1348 PWs)   bands (ev):

     8.2833   9.2300   9.4134  10.1307  10.7598  13.3037  19.4543  24.4869
    31.8939  33.7149

          k = 0.4444 0.0000 0.4444 (  1334 PWs)   bands (ev):

     7.3124   9.1625   9.5509  10.1668  10.3844  11.7576  23.8103  24.7569
    34.6506  35.3511

          k = 0.0000 0.6667 0.0000 (  1347 PWs)   bands (ev):

     7.3708   8.6162  10.6004  10.7648  10.7648  10.9313  26.3360  27.6518
    27.6518  30.8820

          k =-0.1111 0.7778-0.1111 (  1343 PWs)   bands (ev):

     7.8827   8.5073  10.4223  10.7681  11.1324  12.5557  23.5676  23.9145
    27.0324  31.5529

          k = 0.7778-0.1111 0.7778 (  1338 PWs)   bands (ev):

     8.2916   8.6031  10.0226  10.6380  11.1157  15.4144  19.5492  21.6888
    27.6162  31.9067

          k = 0.6667-0.0000 0.6667 (  1316 PWs)   bands (ev):

     8.6462   8.8086   9.5500  10.4442  10.8970  15.9235  18.5987  21.1620
    29.3173  32.5678

          k = 0.0000 0.8889 0.0000 (  1338 PWs)   bands (ev):

     7.7982   8.3182  11.0555  11.1796  11.1796  13.2967  20.9343  25.9893
    25.9893  30.3301

          k = 0.8889 0.0000 0.8889 (  1332 PWs)   bands (ev):

     7.9413   8.3599  10.8077  10.9713  11.2018  14.8842  19.8989  23.1558
    26.1975  31.2599

          k =-0.2222 0.4444 0.0000 (  1351 PWs)   bands (ev):

     6.0299   9.1282   9.7769  10.2403  10.3428  10.9811  27.1322  27.7696
    33.5650  36.4081

          k =-0.3333 0.5556-0.1111 (  1349 PWs)   bands (ev):

     7.5020   9.0973   9.5131  10.1856  10.7279  11.7753  22.1934  27.0108
    30.8206  36.4722

          k = 0.5556-0.3333 0.7778 (  1349 PWs)   bands (ev):

     8.1904   9.2036   9.6193  10.0719  11.0120  13.5714  17.8849  27.3844
    28.7446  36.0315

          k =-0.2222 0.6667 0.0000 (  1348 PWs)   bands (ev):

     7.7431   8.7368   9.7500  10.7365  10.7623  11.9078  24.7099  25.3654
    26.8650  34.6404

          k = 0.6667-0.2222 0.8889 (  1340 PWs)   bands (ev):

     8.3754   8.7826   9.5739  10.5392  11.0592  14.0749  20.3391  24.4827
    25.2725  35.4249

          k = 0.5556-0.1111 0.7778 (  1337 PWs)   bands (ev):

     8.7261   8.8050   9.4194  10.3852  11.0277  16.1302  17.7258  22.9687
    26.3293  36.1282

          k = 0.4444 0.0000 0.6667 (  1346 PWs)   bands (ev):

     8.4921   9.0848   9.1444  10.3962  10.7771  13.4739  21.3056  22.7568
    28.2318  37.4319

          k = 0.7778-0.1111 1.0000 (  1338 PWs)   bands (ev):

     8.0735   8.4832  10.3261  10.8815  11.1789  14.5423  21.2778  23.3219
    24.0932  33.7696

          k = 0.6667-0.0000 0.8889 (  1340 PWs)   bands (ev):

     8.3764   8.6733   9.8464  10.6417  11.1761  16.9358  19.5662  20.4970
    24.6266  35.0686

          k = 0.5556-0.1111 1.0000 (  1349 PWs)   bands (ev):

     8.5647   8.9920   9.3087  10.5049  11.1768  16.7932  19.8670  21.7389
    22.5089  39.5705

     the Fermi energy is    12.7529 ev

!    total energy              =    -122.74806496 Ry
     Harris-Foulkes estimate   =    -122.74806496 Ry
     estimated scf accuracy    <          5.3E-10 Ry

     The total energy is the sum of the following terms:

     one-electron contribution =     -27.51424057 Ry
     hartree contribution      =      30.62018047 Ry
     xc contribution           =     -44.62868264 Ry
     ewald contribution        =     -81.22522855 Ry
     smearing contrib. (-TS)   =      -0.00009367 Ry

     convergence has been achieved in   6 iterations

     Forces acting on atoms (cartesian axes, Ry/au):

     atom    1 type  1   force =     0.00000000    0.00000000    0.00000000

     Total force =     0.000000     Total SCF correction =     0.000000


     Computing stress (Cartesian axis) and pressure

          total   stress  (Ry/bohr**3)                   (kbar)     P=   28.04
   0.00019063  -0.00000000  -0.00000000         28.04     -0.00     -0.00
  -0.00000000   0.00019063   0.00000000         -0.00     28.04      0.00
  -0.00000000   0.00000000   0.00019063         -0.00      0.00     28.04


     Writing output data file Cu.save/

     init_run     :      0.34s CPU      0.36s WALL (       1 calls)
     electrons    :      3.14s CPU      3.40s WALL (       1 calls)
     forces       :      0.06s CPU      0.06s WALL (       1 calls)
     stress       :      0.19s CPU      0.20s WALL (       1 calls)

     Called by init_run:
     wfcinit      :      0.12s CPU      0.14s WALL (       1 calls)
     potinit      :      0.01s CPU      0.01s WALL (       1 calls)
     hinit0       :      0.19s CPU      0.19s WALL (       1 calls)

     Called by electrons:
     c_bands      :      2.47s CPU      2.67s WALL (       7 calls)
     sum_band     :      0.57s CPU      0.61s WALL (       7 calls)
     v_of_rho     :      0.05s CPU      0.05s WALL (       7 calls)
     newd         :      0.07s CPU      0.08s WALL (       7 calls)
     mix_rho      :      0.00s CPU      0.00s WALL (       7 calls)

     Called by c_bands:
     init_us_2    :      0.09s CPU      0.10s WALL (     595 calls)
     cegterg      :      2.34s CPU      2.54s WALL (     245 calls)

     Called by sum_band:
     sum_band:bec :      0.00s CPU      0.00s WALL (     245 calls)
     addusdens    :      0.08s CPU      0.08s WALL (       7 calls)

     Called by *egterg:
     h_psi        :      1.89s CPU      2.07s WALL (     789 calls)
     s_psi        :      0.07s CPU      0.07s WALL (     789 calls)
     g_psi        :      0.01s CPU      0.01s WALL (     509 calls)
     cdiaghg      :      0.15s CPU      0.16s WALL (     719 calls)

     Called by h_psi:
     h_psi:pot    :      1.88s CPU      2.06s WALL (     789 calls)
     h_psi:calbec :      0.10s CPU      0.11s WALL (     789 calls)
     vloc_psi     :      1.71s CPU      1.88s WALL (     789 calls)
     add_vuspsi   :      0.07s CPU      0.07s WALL (     789 calls)

     General routines
     calbec       :      0.17s CPU      0.18s WALL (    1209 calls)
     fft          :      0.03s CPU      0.03s WALL (     104 calls)
     ffts         :      0.00s CPU      0.00s WALL (       7 calls)
     fftw         :      1.94s CPU      2.12s WALL (   14912 calls)

     Parallel routines
     fft_scatt_xy :      0.19s CPU      0.21s WALL (   15023 calls)
     fft_scatt_yz :      0.59s CPU      0.65s WALL (   15023 calls)

     PWSCF        :     4.48s CPU         4.82s WALL


   This run was terminated on:  23: 8:25  25Mar2024            

=------------------------------------------------------------------------------=
   JOB DONE.
=------------------------------------------------------------------------------=
