
     Program PWSCF v.6.3MaX starts on 25Mar2024 at 23:38:50 

     This program is part of the open-source Quantum ESPRESSO suite
     for quantum simulation of materials; please cite
         "P. Giannozzi et al., J. Phys.:Condens. Matter 21 395502 (2009);
         "P. Giannozzi et al., J. Phys.:Condens. Matter 29 465901 (2017);
          URL http://www.quantum-espresso.org", 
     in publications or presentations arising from this work. More details at
     http://www.quantum-espresso.org/quote

     Parallel version (MPI), running on     5 processors

     MPI processes distributed on     1 nodes
     R & G space division:  proc/nbgrp/npool/nimage =       5
     Waiting for input...
     Reading input from standard input

     Current dimensions of program PWSCF are:
     Max number of different atomic species (ntypx) = 10
     Max number of k-points (npk) =  40000
     Max angular momentum in pseudopotentials (lmaxx) =  3
               file Cu.pbe-dn-kjpaw_psl.1.0.0.UPF: wavefunction(s)  4S 3D renormalized

     Subspace diagonalization in iterative solution of the eigenvalue problem:
     a serial algorithm will be used


     Parallelization info
     --------------------
     sticks:   dense  smooth     PW     G-vecs:    dense   smooth      PW
     Min         102     102     32                 1545     1545     272
     Max         103     103     33                 1546     1546     273
     Sum         511     511    163                 7727     7727    1363



     bravais-lattice index     =            2
     lattice parameter (alat)  =       6.8300  a.u.
     unit-cell volume          =      79.6530 (a.u.)^3
     number of atoms/cell      =            1
     number of atomic types    =            1
     number of electrons       =        11.00
     number of Kohn-Sham states=           10
     kinetic-energy cutoff     =      80.0000  Ry
     charge density cutoff     =     320.0000  Ry
     convergence threshold     =      1.0E-08
     mixing beta               =       0.7000
     number of iterations used =            8  plain     mixing
     Exchange-correlation      = SLA PW PBX PBC ( 1  4  3  4 0 0)

     celldm(1)=   6.830000  celldm(2)=   0.000000  celldm(3)=   0.000000
     celldm(4)=   0.000000  celldm(5)=   0.000000  celldm(6)=   0.000000

     crystal axes: (cart. coord. in units of alat)
               a(1) = (  -0.500000   0.000000   0.500000 )  
               a(2) = (   0.000000   0.500000   0.500000 )  
               a(3) = (  -0.500000   0.500000   0.000000 )  

     reciprocal axes: (cart. coord. in units 2 pi/alat)
               b(1) = ( -1.000000 -1.000000  1.000000 )  
               b(2) = (  1.000000  1.000000  1.000000 )  
               b(3) = ( -1.000000  1.000000 -1.000000 )  


     PseudoPot. # 1 for Cu read from file:
     /home/lorenzo/pseudos/Cu/Cu.pbe-dn-kjpaw_psl.1.0.0.UPF
     MD5 check sum: cfffd1f38ee05704b3e17f46f1730a6f
     Pseudo is Projector augmented-wave + core cor, Zval = 11.0
     Generated using "atomic" code by A. Dal Corso v.6.3
     Shape of augmentation charge: PSQ
     Using radial grid of 1199 points,  6 beta functions with: 
                l(1) =   0
                l(2) =   0
                l(3) =   1
                l(4) =   1
                l(5) =   2
                l(6) =   2
     Q(r) pseudized with 0 coefficients 


     atomic species   valence    mass     pseudopotential
        Cu            11.00    63.54600     Cu( 1.00)

     48 Sym. Ops., with inversion, found



   Cartesian axes

     site n.     atom                  positions (alat units)
         1           Cu  tau(   1) = (   0.0000000   0.0000000   0.0000000  )

     number of k points=    10  gaussian smearing, width (Ry)=  0.0100
                       cart. coord. in units 2pi/alat
        k(    1) = (   0.0000000   0.0000000   0.0000000), wk =   0.0160000
        k(    2) = (  -0.2000000   0.2000000  -0.2000000), wk =   0.1280000
        k(    3) = (  -0.4000000   0.4000000  -0.4000000), wk =   0.1280000
        k(    4) = (   0.0000000   0.4000000   0.0000000), wk =   0.0960000
        k(    5) = (  -0.2000000   0.6000000  -0.2000000), wk =   0.3840000
        k(    6) = (   0.6000000  -0.2000000   0.6000000), wk =   0.3840000
        k(    7) = (   0.4000000   0.0000000   0.4000000), wk =   0.1920000
        k(    8) = (   0.0000000   0.8000000   0.0000000), wk =   0.0960000
        k(    9) = (   0.8000000   0.0000000   0.8000000), wk =   0.1920000
        k(   10) = (   0.6000000  -0.2000000   1.0000000), wk =   0.3840000

     Dense  grid:     7727 G-vectors     FFT dimensions: (  27,  27,  27)

     Estimated max dynamical RAM per process >       7.62 MB

     Estimated total dynamical RAM >      38.10 MB

     Initial potential from superposition of free atoms

     starting charge   10.99977, renormalised to   11.00000
     Starting wfcs are    9 randomized atomic wfcs +    1 random wfcs
     Checking if some PAW data can be deallocated... 

     total cpu time spent up to now is        1.1 secs

     Self-consistent Calculation

     iteration #  1     ecut=    80.00 Ry     beta= 0.70
     Davidson diagonalization with overlap
     ethr =  1.00E-02,  avg # of iterations =  3.8

     Threshold (ethr) on eigenvalues was too large:
     Diagonalizing with lowered threshold

     Davidson diagonalization with overlap
     ethr =  5.47E-04,  avg # of iterations =  1.0

     total cpu time spent up to now is        1.4 secs

     total energy              =    -213.06823369 Ry
     Harris-Foulkes estimate   =    -213.11529113 Ry
     estimated scf accuracy    <       0.05978931 Ry

     iteration #  2     ecut=    80.00 Ry     beta= 0.70
     Davidson diagonalization with overlap
     ethr =  5.44E-04,  avg # of iterations =  2.0

     total cpu time spent up to now is        1.7 secs

     total energy              =    -213.07108331 Ry
     Harris-Foulkes estimate   =    -213.15437177 Ry
     estimated scf accuracy    <       0.21635652 Ry

     iteration #  3     ecut=    80.00 Ry     beta= 0.70
     Davidson diagonalization with overlap
     ethr =  5.44E-04,  avg # of iterations =  2.2

     total cpu time spent up to now is        1.9 secs

     total energy              =    -213.10435284 Ry
     Harris-Foulkes estimate   =    -213.10446354 Ry
     estimated scf accuracy    <       0.00022732 Ry

     iteration #  4     ecut=    80.00 Ry     beta= 0.70
     Davidson diagonalization with overlap
     ethr =  2.07E-06,  avg # of iterations =  2.2

     total cpu time spent up to now is        2.1 secs

     total energy              =    -213.10443831 Ry
     Harris-Foulkes estimate   =    -213.10444991 Ry
     estimated scf accuracy    <       0.00003278 Ry

     iteration #  5     ecut=    80.00 Ry     beta= 0.70
     Davidson diagonalization with overlap
     ethr =  2.98E-07,  avg # of iterations =  1.2

     total cpu time spent up to now is        2.4 secs

     total energy              =    -213.10444419 Ry
     Harris-Foulkes estimate   =    -213.10444431 Ry
     estimated scf accuracy    <       0.00000032 Ry

     iteration #  6     ecut=    80.00 Ry     beta= 0.70
     Davidson diagonalization with overlap
     ethr =  2.93E-09,  avg # of iterations =  2.7

     total cpu time spent up to now is        2.6 secs

     End of self-consistent calculation

          k = 0.0000 0.0000 0.0000 (   941 PWs)   bands (ev):

     3.2725   9.7155   9.7155   9.7155  10.5490  10.5490  35.5890  37.9941
    37.9941  37.9941

          k =-0.2000 0.2000-0.2000 (   956 PWs)   bands (ev):

     4.6764   9.4870   9.8777   9.8777  10.5482  10.5482  27.6241  35.7370
    35.9024  35.9024

          k =-0.4000 0.4000-0.4000 (   951 PWs)   bands (ev):

     7.3377   9.7268   9.7268  10.4227  11.0174  11.0174  18.6383  34.2652
    34.8362  34.8362

          k = 0.0000 0.4000 0.0000 (   966 PWs)   bands (ev):

     5.1262   9.2077  10.1441  10.1599  10.1599  10.7388  31.3250  31.3250
    32.4022  33.4707

          k =-0.2000 0.6000-0.2000 (   964 PWs)   bands (ev):

     7.5038   8.9729   9.6679  10.2382  11.0883  11.5886  22.2417  28.9986
    29.5699  32.7101

          k = 0.6000-0.2000 0.6000 (   963 PWs)   bands (ev):

     8.2767   9.2193   9.7018  10.0852  10.9913  14.1517  17.3200  25.8747
    31.2111  33.3034

          k = 0.4000 0.0000 0.4000 (   967 PWs)   bands (ev):

     6.7098   9.2076   9.6929  10.2047  10.3027  11.4194  25.0161  25.8235
    35.9277  36.1584

          k = 0.0000 0.8000 0.0000 (   962 PWs)   bands (ev):

     7.7668   8.4271  11.0524  11.0793  11.0793  12.0921  22.8494  26.4708
    26.4708  30.4864

          k = 0.8000 0.0000 0.8000 (   959 PWs)   bands (ev):

     8.2307   8.5424  10.2582  10.8113  11.1436  16.1502  19.8989  20.4094
    27.1205  31.7330

          k = 0.6000-0.2000 1.0000 (   974 PWs)   bands (ev):

     8.5594   8.9252   9.3543  10.5876  11.0740  14.8902  20.9436  22.4493
    24.2797  38.5799

     the Fermi energy is    12.1123 ev

!    total energy              =    -213.10444432 Ry
     Harris-Foulkes estimate   =    -213.10444432 Ry
     estimated scf accuracy    <          4.7E-10 Ry

     total all-electron energy =     -3309.984210 Ry

     The total energy is the sum of the following terms:

     one-electron contribution =     -28.04859812 Ry
     hartree contribution      =      30.64874994 Ry
     xc contribution           =     -44.63483636 Ry
     ewald contribution        =     -81.22522855 Ry
     one-center paw contrib.   =     -89.84426635 Ry
     smearing contrib. (-TS)   =      -0.00026488 Ry

     convergence has been achieved in   6 iterations

     Forces acting on atoms (cartesian axes, Ry/au):

     atom    1 type  1   force =     0.00000000    0.00000000    0.00000000

     Total force =     0.000000     Total SCF correction =     0.000000


     Computing stress (Cartesian axis) and pressure

          total   stress  (Ry/bohr**3)                   (kbar)     P=   10.67
   0.00007255  -0.00000000  -0.00000000         10.67     -0.00     -0.00
  -0.00000000   0.00007255   0.00000000         -0.00     10.67      0.00
  -0.00000000   0.00000000   0.00007255         -0.00      0.00     10.67


     Writing output data file Cu.save/

     init_run     :      0.33s CPU      0.35s WALL (       1 calls)
     electrons    :      1.37s CPU      1.49s WALL (       1 calls)
     forces       :      0.03s CPU      0.03s WALL (       1 calls)
     stress       :      0.09s CPU      0.09s WALL (       1 calls)

     Called by init_run:
     wfcinit      :      0.03s CPU      0.03s WALL (       1 calls)
     potinit      :      0.11s CPU      0.12s WALL (       1 calls)
     hinit0       :      0.16s CPU      0.17s WALL (       1 calls)

     Called by electrons:
     c_bands      :      0.57s CPU      0.60s WALL (       7 calls)
     sum_band     :      0.17s CPU      0.17s WALL (       7 calls)
     v_of_rho     :      0.03s CPU      0.03s WALL (       7 calls)
     newd         :      0.06s CPU      0.06s WALL (       7 calls)
     PAW_pot      :      0.65s CPU      0.74s WALL (       7 calls)
     mix_rho      :      0.00s CPU      0.00s WALL (       7 calls)

     Called by c_bands:
     init_us_2    :      0.02s CPU      0.02s WALL (     170 calls)
     cegterg      :      0.54s CPU      0.57s WALL (      70 calls)

     Called by sum_band:
     sum_band:bec :      0.00s CPU      0.00s WALL (      70 calls)
     addusdens    :      0.05s CPU      0.05s WALL (       7 calls)

     Called by *egterg:
     h_psi        :      0.44s CPU      0.47s WALL (     231 calls)
     s_psi        :      0.01s CPU      0.01s WALL (     231 calls)
     g_psi        :      0.00s CPU      0.00s WALL (     151 calls)
     cdiaghg      :      0.04s CPU      0.05s WALL (     211 calls)

     Called by h_psi:
     h_psi:pot    :      0.44s CPU      0.46s WALL (     231 calls)
     h_psi:calbec :      0.03s CPU      0.03s WALL (     231 calls)
     vloc_psi     :      0.40s CPU      0.42s WALL (     231 calls)
     add_vuspsi   :      0.01s CPU      0.01s WALL (     231 calls)

     General routines
     calbec       :      0.04s CPU      0.04s WALL (     351 calls)
     fft          :      0.02s CPU      0.02s WALL (     104 calls)
     ffts         :      0.00s CPU      0.00s WALL (       7 calls)
     fftw         :      0.45s CPU      0.47s WALL (    4282 calls)

     Parallel routines
     fft_scatt_xy :      0.04s CPU      0.04s WALL (    4393 calls)
     fft_scatt_yz :      0.13s CPU      0.14s WALL (    4393 calls)

     PWSCF        :     2.57s CPU         2.75s WALL


   This run was terminated on:  23:38:52  25Mar2024            

=------------------------------------------------------------------------------=
   JOB DONE.
=------------------------------------------------------------------------------=
