
     Program PWSCF v.6.3MaX starts on 25Mar2024 at 23:20:16 

     This program is part of the open-source Quantum ESPRESSO suite
     for quantum simulation of materials; please cite
         "P. Giannozzi et al., J. Phys.:Condens. Matter 21 395502 (2009);
         "P. Giannozzi et al., J. Phys.:Condens. Matter 29 465901 (2017);
          URL http://www.quantum-espresso.org", 
     in publications or presentations arising from this work. More details at
     http://www.quantum-espresso.org/quote

     Parallel version (MPI), running on     5 processors

     MPI processes distributed on     1 nodes
     R & G space division:  proc/nbgrp/npool/nimage =       5
     Waiting for input...
     Reading input from standard input

     Current dimensions of program PWSCF are:
     Max number of different atomic species (ntypx) = 10
     Max number of k-points (npk) =  40000
     Max angular momentum in pseudopotentials (lmaxx) =  3
               file Cu.pbe-dn-rrkjus_psl.1.0.0.UPF: wavefunction(s)  3D renormalized

     Subspace diagonalization in iterative solution of the eigenvalue problem:
     a serial algorithm will be used


     Parallelization info
     --------------------
     sticks:   dense  smooth     PW     G-vecs:    dense   smooth      PW
     Min          50      50     17                  544      544     107
     Max          51      51     17                  548      548     108
     Sum         253     253     85                 2733     2733     537



     bravais-lattice index     =            2
     lattice parameter (alat)  =       6.8300  a.u.
     unit-cell volume          =      79.6530 (a.u.)^3
     number of atoms/cell      =            1
     number of atomic types    =            1
     number of electrons       =        11.00
     number of Kohn-Sham states=           10
     kinetic-energy cutoff     =      40.0000  Ry
     charge density cutoff     =     160.0000  Ry
     convergence threshold     =      1.0E-08
     mixing beta               =       0.7000
     number of iterations used =            8  plain     mixing
     Exchange-correlation      = PBE ( 1  4  3  4 0 0)

     celldm(1)=   6.830000  celldm(2)=   0.000000  celldm(3)=   0.000000
     celldm(4)=   0.000000  celldm(5)=   0.000000  celldm(6)=   0.000000

     crystal axes: (cart. coord. in units of alat)
               a(1) = (  -0.500000   0.000000   0.500000 )  
               a(2) = (   0.000000   0.500000   0.500000 )  
               a(3) = (  -0.500000   0.500000   0.000000 )  

     reciprocal axes: (cart. coord. in units 2 pi/alat)
               b(1) = ( -1.000000 -1.000000  1.000000 )  
               b(2) = (  1.000000  1.000000  1.000000 )  
               b(3) = ( -1.000000  1.000000 -1.000000 )  


     PseudoPot. # 1 for Cu read from file:
     /home/lorenzo/pseudos/Cu/Cu.pbe-dn-rrkjus_psl.1.0.0.UPF
     MD5 check sum: ba3d6c84e19846e79d48cdc68ff7152b
     Pseudo is Ultrasoft + core correction, Zval = 11.0
     Generated using "atomic" code by A. Dal Corso v.6.3
     Using radial grid of 1199 points,  6 beta functions with: 
                l(1) =   0
                l(2) =   0
                l(3) =   1
                l(4) =   1
                l(5) =   2
                l(6) =   2
     Q(r) pseudized with 0 coefficients 


     atomic species   valence    mass     pseudopotential
        Cu            11.00    63.54600     Cu( 1.00)

     48 Sym. Ops., with inversion, found



   Cartesian axes

     site n.     atom                  positions (alat units)
         1           Cu  tau(   1) = (   0.0000000   0.0000000   0.0000000  )

     number of k points=    10  gaussian smearing, width (Ry)=  0.0100
                       cart. coord. in units 2pi/alat
        k(    1) = (   0.0000000   0.0000000   0.0000000), wk =   0.0160000
        k(    2) = (  -0.2000000   0.2000000  -0.2000000), wk =   0.1280000
        k(    3) = (  -0.4000000   0.4000000  -0.4000000), wk =   0.1280000
        k(    4) = (   0.0000000   0.4000000   0.0000000), wk =   0.0960000
        k(    5) = (  -0.2000000   0.6000000  -0.2000000), wk =   0.3840000
        k(    6) = (   0.6000000  -0.2000000   0.6000000), wk =   0.3840000
        k(    7) = (   0.4000000   0.0000000   0.4000000), wk =   0.1920000
        k(    8) = (   0.0000000   0.8000000   0.0000000), wk =   0.0960000
        k(    9) = (   0.8000000   0.0000000   0.8000000), wk =   0.1920000
        k(   10) = (   0.6000000  -0.2000000   1.0000000), wk =   0.3840000

     Dense  grid:     2733 G-vectors     FFT dimensions: (  20,  20,  20)

     Estimated max dynamical RAM per process >       3.24 MB

     Estimated total dynamical RAM >      16.22 MB

     Check: negative/imaginary core charge=   -0.000010    0.000000

     Initial potential from superposition of free atoms

     starting charge   10.99977, renormalised to   11.00000
     Starting wfcs are    9 randomized atomic wfcs +    1 random wfcs

     total cpu time spent up to now is        0.9 secs

     Self-consistent Calculation

     iteration #  1     ecut=    40.00 Ry     beta= 0.70
     Davidson diagonalization with overlap
     ethr =  1.00E-02,  avg # of iterations =  3.6

     Threshold (ethr) on eigenvalues was too large:
     Diagonalizing with lowered threshold

     Davidson diagonalization with overlap
     ethr =  5.29E-04,  avg # of iterations =  1.0

     total cpu time spent up to now is        1.0 secs

     total energy              =    -122.71557199 Ry
     Harris-Foulkes estimate   =    -122.76062689 Ry
     estimated scf accuracy    <       0.05783784 Ry

     iteration #  2     ecut=    40.00 Ry     beta= 0.70
     Davidson diagonalization with overlap
     ethr =  5.26E-04,  avg # of iterations =  2.0

     total cpu time spent up to now is        1.1 secs

     total energy              =    -122.71773547 Ry
     Harris-Foulkes estimate   =    -122.79777149 Ry
     estimated scf accuracy    <       0.20775289 Ry

     iteration #  3     ecut=    40.00 Ry     beta= 0.70
     Davidson diagonalization with overlap
     ethr =  5.26E-04,  avg # of iterations =  2.0

     total cpu time spent up to now is        1.2 secs

     total energy              =    -122.75005334 Ry
     Harris-Foulkes estimate   =    -122.75011825 Ry
     estimated scf accuracy    <       0.00016715 Ry

     iteration #  4     ecut=    40.00 Ry     beta= 0.70
     Davidson diagonalization with overlap
     ethr =  1.52E-06,  avg # of iterations =  2.8

     total cpu time spent up to now is        1.2 secs

     total energy              =    -122.75012165 Ry
     Harris-Foulkes estimate   =    -122.75012780 Ry
     estimated scf accuracy    <       0.00001733 Ry

     iteration #  5     ecut=    40.00 Ry     beta= 0.70
     Davidson diagonalization with overlap
     ethr =  1.58E-07,  avg # of iterations =  1.5

     total cpu time spent up to now is        1.3 secs

     total energy              =    -122.75012533 Ry
     Harris-Foulkes estimate   =    -122.75012561 Ry
     estimated scf accuracy    <       0.00000085 Ry

     iteration #  6     ecut=    40.00 Ry     beta= 0.70
     Davidson diagonalization with overlap
     ethr =  7.69E-09,  avg # of iterations =  1.3

     total cpu time spent up to now is        1.4 secs

     End of self-consistent calculation

          k = 0.0000 0.0000 0.0000 (   331 PWs)   bands (ev):

     3.2821   9.7483   9.7483   9.7483  10.5782  10.5782  35.5998  38.0016
    38.0016  38.0016

          k =-0.2000 0.2000-0.2000 (   332 PWs)   bands (ev):

     4.6864   9.5187   9.9097   9.9097  10.5775  10.5775  27.6426  35.7498
    35.9214  35.9214

          k =-0.4000 0.4000-0.4000 (   344 PWs)   bands (ev):

     7.3578   9.7568   9.7568  10.4406  11.0485  11.0485  18.6548  34.2758
    34.8485  34.8485

          k = 0.0000 0.4000 0.0000 (   343 PWs)   bands (ev):

     5.1363   9.2396  10.1718  10.1923  10.1923  10.7678  31.3404  31.3404
    32.4278  33.4897

          k =-0.2000 0.6000-0.2000 (   339 PWs)   bands (ev):

     7.5200   9.0024   9.6966  10.2687  11.1191  11.6151  22.2574  29.0164
    29.5837  32.7298

          k = 0.6000-0.2000 0.6000 (   348 PWs)   bands (ev):

     8.3022   9.2450   9.7299  10.1142  11.0230  14.1703  17.3369  25.8900
    31.2259  33.3194

          k = 0.4000 0.0000 0.4000 (   333 PWs)   bands (ev):

     6.7219   9.2387   9.7225  10.2326  10.3356  11.4487  25.0374  25.8363
    35.9481  36.1722

          k = 0.0000 0.8000 0.0000 (   335 PWs)   bands (ev):

     7.7893   8.4588  11.0813  11.1122  11.1122  12.1065  22.8657  26.4817
    26.4817  30.5230

          k = 0.8000 0.0000 0.8000 (   341 PWs)   bands (ev):

     8.2561   8.5720  10.2873  10.8396  11.1767  16.1662  19.9166  20.4208
    27.1320  31.7590

          k = 0.6000-0.2000 1.0000 (   343 PWs)   bands (ev):

     8.5831   8.9552   9.3827  10.6155  11.1070  14.9085  20.9611  22.4619
    24.2941  38.6081

     the Fermi energy is    12.1268 ev

!    total energy              =    -122.75012546 Ry
     Harris-Foulkes estimate   =    -122.75012546 Ry
     estimated scf accuracy    <          9.1E-10 Ry

     The total energy is the sum of the following terms:

     one-electron contribution =     -27.54263113 Ry
     hartree contribution      =      30.65754007 Ry
     xc contribution           =     -44.63954094 Ry
     ewald contribution        =     -81.22522859 Ry
     smearing contrib. (-TS)   =      -0.00026488 Ry

     convergence has been achieved in   6 iterations

     Forces acting on atoms (cartesian axes, Ry/au):

     atom    1 type  1   force =     0.00000000    0.00000000    0.00000000

     Total force =     0.000000     Total SCF correction =     0.000000


     Computing stress (Cartesian axis) and pressure

          total   stress  (Ry/bohr**3)                   (kbar)     P=   12.96
   0.00008811  -0.00000000  -0.00000000         12.96     -0.00     -0.00
  -0.00000000   0.00008811   0.00000000         -0.00     12.96      0.00
  -0.00000000   0.00000000   0.00008811         -0.00      0.00     12.96


     Writing output data file Cu.save/

     init_run     :      0.14s CPU      0.15s WALL (       1 calls)
     electrons    :      0.46s CPU      0.50s WALL (       1 calls)
     forces       :      0.01s CPU      0.01s WALL (       1 calls)
     stress       :      0.04s CPU      0.04s WALL (       1 calls)

     Called by init_run:
     wfcinit      :      0.02s CPU      0.02s WALL (       1 calls)
     potinit      :      0.00s CPU      0.00s WALL (       1 calls)
     hinit0       :      0.12s CPU      0.12s WALL (       1 calls)

     Called by electrons:
     c_bands      :      0.34s CPU      0.37s WALL (       7 calls)
     sum_band     :      0.08s CPU      0.09s WALL (       7 calls)
     v_of_rho     :      0.02s CPU      0.02s WALL (       7 calls)
     newd         :      0.02s CPU      0.02s WALL (       7 calls)
     mix_rho      :      0.00s CPU      0.00s WALL (       7 calls)

     Called by c_bands:
     init_us_2    :      0.01s CPU      0.01s WALL (     170 calls)
     cegterg      :      0.32s CPU      0.35s WALL (      70 calls)

     Called by sum_band:
     sum_band:bec :      0.00s CPU      0.00s WALL (      70 calls)
     addusdens    :      0.02s CPU      0.02s WALL (       7 calls)

     Called by *egterg:
     h_psi        :      0.24s CPU      0.26s WALL (     222 calls)
     s_psi        :      0.01s CPU      0.01s WALL (     222 calls)
     g_psi        :      0.00s CPU      0.00s WALL (     142 calls)
     cdiaghg      :      0.05s CPU      0.06s WALL (     202 calls)

     Called by h_psi:
     h_psi:pot    :      0.24s CPU      0.26s WALL (     222 calls)
     h_psi:calbec :      0.01s CPU      0.02s WALL (     222 calls)
     vloc_psi     :      0.21s CPU      0.23s WALL (     222 calls)
     add_vuspsi   :      0.01s CPU      0.01s WALL (     222 calls)

     General routines
     calbec       :      0.02s CPU      0.02s WALL (     342 calls)
     fft          :      0.02s CPU      0.02s WALL (     104 calls)
     ffts         :      0.00s CPU      0.00s WALL (       7 calls)
     fftw         :      0.24s CPU      0.26s WALL (    4232 calls)

     Parallel routines
     fft_scatt_xy :      0.02s CPU      0.02s WALL (    4343 calls)
     fft_scatt_yz :      0.12s CPU      0.13s WALL (    4343 calls)

     PWSCF        :     1.41s CPU         1.50s WALL


   This run was terminated on:  23:20:18  25Mar2024            

=------------------------------------------------------------------------------=
   JOB DONE.
=------------------------------------------------------------------------------=
