
     Program PWSCF v.6.3MaX starts on 25Mar2024 at 23:20:50 

     This program is part of the open-source Quantum ESPRESSO suite
     for quantum simulation of materials; please cite
         "P. Giannozzi et al., J. Phys.:Condens. Matter 21 395502 (2009);
         "P. Giannozzi et al., J. Phys.:Condens. Matter 29 465901 (2017);
          URL http://www.quantum-espresso.org", 
     in publications or presentations arising from this work. More details at
     http://www.quantum-espresso.org/quote

     Parallel version (MPI), running on     5 processors

     MPI processes distributed on     1 nodes
     R & G space division:  proc/nbgrp/npool/nimage =       5
     Waiting for input...
     Reading input from standard input

     Current dimensions of program PWSCF are:
     Max number of different atomic species (ntypx) = 10
     Max number of k-points (npk) =  40000
     Max angular momentum in pseudopotentials (lmaxx) =  3
               file Cu.pbesol-dn-kjpaw_psl.1.0.0.UPF: wavefunction(s)  4S 3D renormalized

     Subspace diagonalization in iterative solution of the eigenvalue problem:
     a serial algorithm will be used


     Parallelization info
     --------------------
     sticks:   dense  smooth     PW     G-vecs:    dense   smooth      PW
     Min          50      50     17                  544      544     107
     Max          51      51     17                  548      548     108
     Sum         253     253     85                 2733     2733     537



     bravais-lattice index     =            2
     lattice parameter (alat)  =       6.8300  a.u.
     unit-cell volume          =      79.6530 (a.u.)^3
     number of atoms/cell      =            1
     number of atomic types    =            1
     number of electrons       =        11.00
     number of Kohn-Sham states=           10
     kinetic-energy cutoff     =      40.0000  Ry
     charge density cutoff     =     160.0000  Ry
     convergence threshold     =      1.0E-08
     mixing beta               =       0.7000
     number of iterations used =            8  plain     mixing
     Exchange-correlation      = SLA PW PSX PSC ( 1  4 10  8 0 0)

     celldm(1)=   6.830000  celldm(2)=   0.000000  celldm(3)=   0.000000
     celldm(4)=   0.000000  celldm(5)=   0.000000  celldm(6)=   0.000000

     crystal axes: (cart. coord. in units of alat)
               a(1) = (  -0.500000   0.000000   0.500000 )  
               a(2) = (   0.000000   0.500000   0.500000 )  
               a(3) = (  -0.500000   0.500000   0.000000 )  

     reciprocal axes: (cart. coord. in units 2 pi/alat)
               b(1) = ( -1.000000 -1.000000  1.000000 )  
               b(2) = (  1.000000  1.000000  1.000000 )  
               b(3) = ( -1.000000  1.000000 -1.000000 )  


     PseudoPot. # 1 for Cu read from file:
     /home/lorenzo/pseudos/Cu/Cu.pbesol-dn-kjpaw_psl.1.0.0.UPF
     MD5 check sum: 1e9735a74797514c934643dbd229f231
     Pseudo is Projector augmented-wave + core cor, Zval = 11.0
     Generated using "atomic" code by A. Dal Corso v.6.3
     Shape of augmentation charge: PSQ
     Using radial grid of 1199 points,  6 beta functions with: 
                l(1) =   0
                l(2) =   0
                l(3) =   1
                l(4) =   1
                l(5) =   2
                l(6) =   2
     Q(r) pseudized with 0 coefficients 


     atomic species   valence    mass     pseudopotential
        Cu            11.00    63.54600     Cu( 1.00)

     48 Sym. Ops., with inversion, found



   Cartesian axes

     site n.     atom                  positions (alat units)
         1           Cu  tau(   1) = (   0.0000000   0.0000000   0.0000000  )

     number of k points=    29  gaussian smearing, width (Ry)=  0.0100
                       cart. coord. in units 2pi/alat
        k(    1) = (   0.0000000   0.0000000   0.0000000), wk =   0.0039062
        k(    2) = (  -0.1250000   0.1250000  -0.1250000), wk =   0.0312500
        k(    3) = (  -0.2500000   0.2500000  -0.2500000), wk =   0.0312500
        k(    4) = (  -0.3750000   0.3750000  -0.3750000), wk =   0.0312500
        k(    5) = (   0.5000000  -0.5000000   0.5000000), wk =   0.0156250
        k(    6) = (   0.0000000   0.2500000   0.0000000), wk =   0.0234375
        k(    7) = (  -0.1250000   0.3750000  -0.1250000), wk =   0.0937500
        k(    8) = (  -0.2500000   0.5000000  -0.2500000), wk =   0.0937500
        k(    9) = (   0.6250000  -0.3750000   0.6250000), wk =   0.0937500
        k(   10) = (   0.5000000  -0.2500000   0.5000000), wk =   0.0937500
        k(   11) = (   0.3750000  -0.1250000   0.3750000), wk =   0.0937500
        k(   12) = (   0.2500000   0.0000000   0.2500000), wk =   0.0468750
        k(   13) = (   0.0000000   0.5000000   0.0000000), wk =   0.0234375
        k(   14) = (  -0.1250000   0.6250000  -0.1250000), wk =   0.0937500
        k(   15) = (   0.7500000  -0.2500000   0.7500000), wk =   0.0937500
        k(   16) = (   0.6250000  -0.1250000   0.6250000), wk =   0.0937500
        k(   17) = (   0.5000000   0.0000000   0.5000000), wk =   0.0468750
        k(   18) = (   0.0000000   0.7500000   0.0000000), wk =   0.0234375
        k(   19) = (   0.8750000  -0.1250000   0.8750000), wk =   0.0937500
        k(   20) = (   0.7500000   0.0000000   0.7500000), wk =   0.0468750
        k(   21) = (   0.0000000  -1.0000000   0.0000000), wk =   0.0117188
        k(   22) = (  -0.2500000   0.5000000   0.0000000), wk =   0.0937500
        k(   23) = (   0.6250000  -0.3750000   0.8750000), wk =   0.1875000
        k(   24) = (   0.5000000  -0.2500000   0.7500000), wk =   0.0937500
        k(   25) = (   0.7500000  -0.2500000   1.0000000), wk =   0.0937500
        k(   26) = (   0.6250000  -0.1250000   0.8750000), wk =   0.1875000
        k(   27) = (   0.5000000   0.0000000   0.7500000), wk =   0.0937500
        k(   28) = (  -0.2500000  -1.0000000   0.0000000), wk =   0.0468750
        k(   29) = (  -0.5000000  -1.0000000   0.0000000), wk =   0.0234375

     Dense  grid:     2733 G-vectors     FFT dimensions: (  20,  20,  20)

     Estimated max dynamical RAM per process >       3.44 MB

     Estimated total dynamical RAM >      17.21 MB

     Check: negative/imaginary core charge=   -0.000010    0.000000

     Initial potential from superposition of free atoms

     starting charge   10.99979, renormalised to   11.00000
     Starting wfcs are    9 randomized atomic wfcs +    1 random wfcs
     Checking if some PAW data can be deallocated... 

     total cpu time spent up to now is        1.0 secs

     Self-consistent Calculation

     iteration #  1     ecut=    40.00 Ry     beta= 0.70
     Davidson diagonalization with overlap
     ethr =  1.00E-02,  avg # of iterations =  3.8

     Threshold (ethr) on eigenvalues was too large:
     Diagonalizing with lowered threshold

     Davidson diagonalization with overlap
     ethr =  6.66E-04,  avg # of iterations =  1.0

     total cpu time spent up to now is        1.4 secs

     total energy              =    -210.37042503 Ry
     Harris-Foulkes estimate   =    -210.42868708 Ry
     estimated scf accuracy    <       0.07300179 Ry

     iteration #  2     ecut=    40.00 Ry     beta= 0.70
     Davidson diagonalization with overlap
     ethr =  6.64E-04,  avg # of iterations =  2.1

     total cpu time spent up to now is        1.7 secs

     total energy              =    -210.37230652 Ry
     Harris-Foulkes estimate   =    -210.47621871 Ry
     estimated scf accuracy    <       0.27150147 Ry

     iteration #  3     ecut=    40.00 Ry     beta= 0.70
     Davidson diagonalization with overlap
     ethr =  6.64E-04,  avg # of iterations =  2.0

     total cpu time spent up to now is        1.9 secs

     total energy              =    -210.41432810 Ry
     Harris-Foulkes estimate   =    -210.41442494 Ry
     estimated scf accuracy    <       0.00019484 Ry

     iteration #  4     ecut=    40.00 Ry     beta= 0.70
     Davidson diagonalization with overlap
     ethr =  1.77E-06,  avg # of iterations =  2.3

     total cpu time spent up to now is        2.2 secs

     total energy              =    -210.41440748 Ry
     Harris-Foulkes estimate   =    -210.41441962 Ry
     estimated scf accuracy    <       0.00003071 Ry

     iteration #  5     ecut=    40.00 Ry     beta= 0.70
     Davidson diagonalization with overlap
     ethr =  2.79E-07,  avg # of iterations =  1.2

     total cpu time spent up to now is        2.4 secs

     total energy              =    -210.41441342 Ry
     Harris-Foulkes estimate   =    -210.41441378 Ry
     estimated scf accuracy    <       0.00000093 Ry

     iteration #  6     ecut=    40.00 Ry     beta= 0.70
     Davidson diagonalization with overlap
     ethr =  8.48E-09,  avg # of iterations =  1.9

     total cpu time spent up to now is        2.6 secs

     End of self-consistent calculation

          k = 0.0000 0.0000 0.0000 (   331 PWs)   bands (ev):

     3.0447   9.5001   9.5001   9.5001  10.3432  10.3432  35.3799  37.7522
    37.7522  37.7522

          k =-0.1250 0.1250-0.1250 (   335 PWs)   bands (ev):

     3.6077   9.3874   9.5950   9.5950  10.3134  10.3134  31.3077  35.9127
    36.4878  36.4878

          k =-0.2500 0.2500-0.2500 (   344 PWs)   bands (ev):

     5.1699   9.2337   9.6599   9.6599  10.4247  10.4247  24.9033  35.1673
    35.2426  35.2426

          k =-0.3750 0.3750-0.3750 (   344 PWs)   bands (ev):

     6.9142   9.5390   9.5390   9.8560  10.7516  10.7516  19.3487  34.2053
    34.6390  34.6390

          k = 0.5000-0.5000 0.5000 (   344 PWs)   bands (ev):

     7.3909   9.4689   9.4689  10.9166  10.9166  11.4068  16.2309  33.7885
    34.5081  34.5081

          k = 0.0000 0.2500 0.0000 (   335 PWs)   bands (ev):

     3.7935   9.2820   9.6795   9.6795  10.1506  10.4234  33.4971  33.7093
    33.7093  35.5409

          k =-0.1250 0.3750-0.1250 (   336 PWs)   bands (ev):

     5.0242   9.0640   9.7150   9.8281  10.2156  10.5452  27.3554  31.9101
    33.3066  35.7281

          k =-0.2500 0.5000-0.2500 (   332 PWs)   bands (ev):

     6.8136   9.0877   9.4745   9.7702  10.8114  10.9509  21.4378  31.1947
    31.9277  33.5652

          k = 0.6250-0.3750 0.6250 (   341 PWs)   bands (ev):

     7.6518   9.2637   9.6588   9.8206  10.9280  12.5997  16.9061  29.9395
    31.7004  33.2973

          k = 0.5000-0.2500 0.5000 (   340 PWs)   bands (ev):

     7.5395   9.3372   9.6586   9.6688  10.7071  12.0622  18.1577  28.7808
    33.5017  34.1438

          k = 0.3750-0.1250 0.3750 (   339 PWs)   bands (ev):

     6.2413   9.0932   9.5464   9.7883  10.2805  10.9977  23.3262  28.6975
    36.0607  36.4916

          k = 0.2500 0.0000 0.2500 (   337 PWs)   bands (ev):

     4.5108   9.2065   9.6757   9.7549  10.1324  10.5133  29.2202  29.9264
    38.0810  39.0955

          k = 0.0000 0.5000 0.0000 (   343 PWs)   bands (ev):

     5.8151   8.7706   9.8652  10.1703  10.1703  10.6193  29.5349  29.5349
    30.8501  31.5054

          k =-0.1250 0.6250-0.1250 (   333 PWs)   bands (ev):

     7.1447   8.5747   9.6774  10.2672  10.8390  11.0899  24.3875  27.6121
    28.3434  32.0162

          k = 0.7500-0.2500 0.7500 (   346 PWs)   bands (ev):

     8.0489   8.6375   9.5060  10.1511  10.9573  13.4177  19.1617  25.0255
    28.5349  32.1102

          k = 0.6250-0.1250 0.6250 (   343 PWs)   bands (ev):

     8.2981   8.8255   9.3331  10.0534  10.7268  14.6011  17.7100  23.4318
    30.1342  32.7740

          k = 0.5000 0.0000 0.5000 (   339 PWs)   bands (ev):

     7.7392   8.9800   9.1964  10.0103  10.3355  12.2064  22.1632  23.3611
    32.9139  34.2372

          k = 0.0000 0.7500 0.0000 (   327 PWs)   bands (ev):

     7.4701   8.2801  10.7683  10.7683  10.8186  11.2256  23.8768  26.6106
    26.6106  30.4120

          k = 0.8750-0.1250 0.8750 (   338 PWs)   bands (ev):

     7.7818   8.2318  10.4025  10.6957  10.9987  13.7618  21.2049  22.6875
    26.3319  31.2344

          k = 0.7500 0.0000 0.7500 (   347 PWs)   bands (ev):

     8.2016   8.4319   9.7470  10.4767  10.8601  16.7774  18.1870  20.2942
    27.5977  31.7884

          k = 0.0000-1.0000 0.0000 (   342 PWs)   bands (ev):

     7.6103   8.0822  10.9021  11.0592  11.0592  13.9070  19.5828  25.5244
    25.5244  30.0687

          k =-0.2500 0.5000 0.0000 (   336 PWs)   bands (ev):

     6.4093   8.8491   9.4931  10.1798  10.2226  11.0275  25.7715  26.4427
    31.7404  36.3510

          k = 0.6250-0.3750 0.8750 (   338 PWs)   bands (ev):

     7.8329   8.8936   9.2187  10.0578  10.6800  12.3551  20.4520  25.9181
    28.8365  36.4071

          k = 0.5000-0.2500 0.7500 (   346 PWs)   bands (ev):

     8.1719   8.8912   9.4141   9.9554  10.8592  14.5705  16.7179  26.6587
    27.0101  36.1262

          k = 0.7500-0.2500 1.0000 (   340 PWs)   bands (ev):

     7.8775   8.4594   9.6426  10.6166  10.7648  12.7099  23.3703  24.1052
    24.5233  34.6577

          k = 0.6250-0.1250 0.8750 (   343 PWs)   bands (ev):

     8.3168   8.5822   9.3822  10.3658  10.9387  15.7947  18.8291  22.2254
    24.4556  35.7780

          k = 0.5000 0.0000 0.7500 (   344 PWs)   bands (ev):

     8.5483   8.7581   8.9959  10.2520  10.7692  14.9120  19.6307  21.5880
    26.1777  36.9303

          k =-0.2500-1.0000 0.0000 (   342 PWs)   bands (ev):

     7.9367   8.2984  10.1067  10.6502  11.0595  15.5338  19.8737  22.4611
    23.3630  34.1021

          k =-0.5000-1.0000 0.0000 (   360 PWs)   bands (ev):

     8.3622   8.9722   8.9722  10.2969  11.0598  18.6500  18.6500  20.7844
    21.2302  40.8541

     the Fermi energy is    12.4457 ev

!    total energy              =    -210.41441363 Ry
     Harris-Foulkes estimate   =    -210.41441363 Ry
     estimated scf accuracy    <          2.5E-09 Ry

     total all-electron energy =     -3307.293475 Ry

     The total energy is the sum of the following terms:

     one-electron contribution =     -28.01468613 Ry
     hartree contribution      =      30.54733450 Ry
     xc contribution           =     -44.11814995 Ry
     ewald contribution        =     -81.22522859 Ry
     one-center paw contrib.   =     -87.60325847 Ry
     smearing contrib. (-TS)   =      -0.00042500 Ry

     convergence has been achieved in   6 iterations

     Forces acting on atoms (cartesian axes, Ry/au):

     atom    1 type  1   force =     0.00000000    0.00000000    0.00000000

     Total force =     0.000000     Total SCF correction =     0.000000


     Computing stress (Cartesian axis) and pressure

          total   stress  (Ry/bohr**3)                   (kbar)     P=  -63.67
  -0.00043283  -0.00000000   0.00000000        -63.67     -0.00      0.00
  -0.00000000  -0.00043283  -0.00000000         -0.00    -63.67     -0.00
   0.00000000   0.00000000  -0.00043283          0.00      0.00    -63.67


     Writing output data file Cu.save/

     init_run     :      0.27s CPU      0.30s WALL (       1 calls)
     electrons    :      1.42s CPU      1.57s WALL (       1 calls)
     forces       :      0.02s CPU      0.02s WALL (       1 calls)
     stress       :      0.05s CPU      0.05s WALL (       1 calls)

     Called by init_run:
     wfcinit      :      0.05s CPU      0.05s WALL (       1 calls)
     potinit      :      0.10s CPU      0.12s WALL (       1 calls)
     hinit0       :      0.11s CPU      0.11s WALL (       1 calls)

     Called by electrons:
     c_bands      :      0.69s CPU      0.76s WALL (       7 calls)
     sum_band     :      0.15s CPU      0.16s WALL (       7 calls)
     v_of_rho     :      0.01s CPU      0.01s WALL (       7 calls)
     newd         :      0.02s CPU      0.02s WALL (       7 calls)
     PAW_pot      :      0.64s CPU      0.73s WALL (       7 calls)
     mix_rho      :      0.00s CPU      0.00s WALL (       7 calls)

     Called by c_bands:
     init_us_2    :      0.02s CPU      0.02s WALL (     493 calls)
     cegterg      :      0.66s CPU      0.73s WALL (     203 calls)

     Called by sum_band:
     sum_band:bec :      0.00s CPU      0.00s WALL (     203 calls)
     addusdens    :      0.02s CPU      0.02s WALL (       7 calls)

     Called by *egterg:
     h_psi        :      0.49s CPU      0.54s WALL (     645 calls)
     s_psi        :      0.02s CPU      0.02s WALL (     645 calls)
     g_psi        :      0.00s CPU      0.00s WALL (     413 calls)
     cdiaghg      :      0.10s CPU      0.11s WALL (     587 calls)

     Called by h_psi:
     h_psi:pot    :      0.49s CPU      0.54s WALL (     645 calls)
     h_psi:calbec :      0.02s CPU      0.03s WALL (     645 calls)
     vloc_psi     :      0.44s CPU      0.49s WALL (     645 calls)
     add_vuspsi   :      0.02s CPU      0.02s WALL (     645 calls)

     General routines
     calbec       :      0.04s CPU      0.04s WALL (     993 calls)
     fft          :      0.01s CPU      0.01s WALL (     104 calls)
     ffts         :      0.00s CPU      0.00s WALL (       7 calls)
     fftw         :      0.50s CPU      0.55s WALL (   12286 calls)

     Parallel routines
     fft_scatt_xy :      0.04s CPU      0.05s WALL (   12397 calls)
     fft_scatt_yz :      0.17s CPU      0.19s WALL (   12397 calls)

     PWSCF        :     2.52s CPU         2.76s WALL


   This run was terminated on:  23:20:53  25Mar2024            

=------------------------------------------------------------------------------=
   JOB DONE.
=------------------------------------------------------------------------------=
