
     Program PWSCF v.6.3MaX starts on 25Mar2024 at 23:41:14 

     This program is part of the open-source Quantum ESPRESSO suite
     for quantum simulation of materials; please cite
         "P. Giannozzi et al., J. Phys.:Condens. Matter 21 395502 (2009);
         "P. Giannozzi et al., J. Phys.:Condens. Matter 29 465901 (2017);
          URL http://www.quantum-espresso.org", 
     in publications or presentations arising from this work. More details at
     http://www.quantum-espresso.org/quote

     Parallel version (MPI), running on     5 processors

     MPI processes distributed on     1 nodes
     R & G space division:  proc/nbgrp/npool/nimage =       5
     Waiting for input...
     Reading input from standard input

     Current dimensions of program PWSCF are:
     Max number of different atomic species (ntypx) = 10
     Max number of k-points (npk) =  40000
     Max angular momentum in pseudopotentials (lmaxx) =  3
               file Cu.pbe-dn-rrkjus_psl.1.0.0.UPF: wavefunction(s)  3D renormalized

     Subspace diagonalization in iterative solution of the eigenvalue problem:
     a serial algorithm will be used


     Parallelization info
     --------------------
     sticks:   dense  smooth     PW     G-vecs:    dense   smooth      PW
     Min         109     109     32                 1677     1677     280
     Max         110     110     33                 1680     1680     283
     Sum         547     547    163                 8393     8393    1411



     bravais-lattice index     =            2
     lattice parameter (alat)  =       6.8300  a.u.
     unit-cell volume          =      79.6530 (a.u.)^3
     number of atoms/cell      =            1
     number of atomic types    =            1
     number of electrons       =        11.00
     number of Kohn-Sham states=           10
     kinetic-energy cutoff     =      85.0000  Ry
     charge density cutoff     =     340.0000  Ry
     convergence threshold     =      1.0E-08
     mixing beta               =       0.7000
     number of iterations used =            8  plain     mixing
     Exchange-correlation      = PBE ( 1  4  3  4 0 0)

     celldm(1)=   6.830000  celldm(2)=   0.000000  celldm(3)=   0.000000
     celldm(4)=   0.000000  celldm(5)=   0.000000  celldm(6)=   0.000000

     crystal axes: (cart. coord. in units of alat)
               a(1) = (  -0.500000   0.000000   0.500000 )  
               a(2) = (   0.000000   0.500000   0.500000 )  
               a(3) = (  -0.500000   0.500000   0.000000 )  

     reciprocal axes: (cart. coord. in units 2 pi/alat)
               b(1) = ( -1.000000 -1.000000  1.000000 )  
               b(2) = (  1.000000  1.000000  1.000000 )  
               b(3) = ( -1.000000  1.000000 -1.000000 )  


     PseudoPot. # 1 for Cu read from file:
     /home/lorenzo/pseudos/Cu/Cu.pbe-dn-rrkjus_psl.1.0.0.UPF
     MD5 check sum: ba3d6c84e19846e79d48cdc68ff7152b
     Pseudo is Ultrasoft + core correction, Zval = 11.0
     Generated using "atomic" code by A. Dal Corso v.6.3
     Using radial grid of 1199 points,  6 beta functions with: 
                l(1) =   0
                l(2) =   0
                l(3) =   1
                l(4) =   1
                l(5) =   2
                l(6) =   2
     Q(r) pseudized with 0 coefficients 


     atomic species   valence    mass     pseudopotential
        Cu            11.00    63.54600     Cu( 1.00)

     48 Sym. Ops., with inversion, found



   Cartesian axes

     site n.     atom                  positions (alat units)
         1           Cu  tau(   1) = (   0.0000000   0.0000000   0.0000000  )

     number of k points=     3  gaussian smearing, width (Ry)=  0.0100
                       cart. coord. in units 2pi/alat
        k(    1) = (   0.0000000   0.0000000   0.0000000), wk =   0.2500000
        k(    2) = (   0.5000000  -0.5000000   0.5000000), wk =   1.0000000
        k(    3) = (   0.0000000  -1.0000000   0.0000000), wk =   0.7500000

     Dense  grid:     8393 G-vectors     FFT dimensions: (  30,  30,  30)

     Estimated max dynamical RAM per process >       8.02 MB

     Estimated total dynamical RAM >      40.08 MB

     Initial potential from superposition of free atoms

     starting charge   10.99977, renormalised to   11.00000
     Starting wfcs are    9 randomized atomic wfcs +    1 random wfcs

     total cpu time spent up to now is        0.9 secs

     Self-consistent Calculation

     iteration #  1     ecut=    85.00 Ry     beta= 0.70
     Davidson diagonalization with overlap
     ethr =  1.00E-02,  avg # of iterations =  3.7

     Threshold (ethr) on eigenvalues was too large:
     Diagonalizing with lowered threshold

     Davidson diagonalization with overlap
     ethr =  5.60E-04,  avg # of iterations =  1.0

     total cpu time spent up to now is        1.0 secs

     total energy              =    -122.56186295 Ry
     Harris-Foulkes estimate   =    -122.60779409 Ry
     estimated scf accuracy    <       0.06169997 Ry

     iteration #  2     ecut=    85.00 Ry     beta= 0.70
     Davidson diagonalization with overlap
     ethr =  5.61E-04,  avg # of iterations =  2.0

     total cpu time spent up to now is        1.1 secs

     total energy              =    -122.57111438 Ry
     Harris-Foulkes estimate   =    -122.66161218 Ry
     estimated scf accuracy    <       0.24283816 Ry

     iteration #  3     ecut=    85.00 Ry     beta= 0.70
     Davidson diagonalization with overlap
     ethr =  5.61E-04,  avg # of iterations =  2.7

     total cpu time spent up to now is        1.1 secs

     total energy              =    -122.59537894 Ry
     Harris-Foulkes estimate   =    -122.59922317 Ry
     estimated scf accuracy    <       0.01136997 Ry

     iteration #  4     ecut=    85.00 Ry     beta= 0.70
     Davidson diagonalization with overlap
     ethr =  1.03E-04,  avg # of iterations =  1.0

     total cpu time spent up to now is        1.2 secs

     total energy              =    -122.59530438 Ry
     Harris-Foulkes estimate   =    -122.59806192 Ry
     estimated scf accuracy    <       0.01312514 Ry

     iteration #  5     ecut=    85.00 Ry     beta= 0.70
     Davidson diagonalization with overlap
     ethr =  1.03E-04,  avg # of iterations =  1.0

     total cpu time spent up to now is        1.2 secs

     total energy              =    -122.59727015 Ry
     Harris-Foulkes estimate   =    -122.59788984 Ry
     estimated scf accuracy    <       0.00558296 Ry

     iteration #  6     ecut=    85.00 Ry     beta= 0.70
     Davidson diagonalization with overlap
     ethr =  5.08E-05,  avg # of iterations =  1.0

     total cpu time spent up to now is        1.3 secs

     total energy              =    -122.59721114 Ry
     Harris-Foulkes estimate   =    -122.59739242 Ry
     estimated scf accuracy    <       0.00128317 Ry

     iteration #  7     ecut=    85.00 Ry     beta= 0.70
     Davidson diagonalization with overlap
     ethr =  1.17E-05,  avg # of iterations =  1.0

     total cpu time spent up to now is        1.3 secs

     total energy              =    -122.59732317 Ry
     Harris-Foulkes estimate   =    -122.59731351 Ry
     estimated scf accuracy    <       0.00005311 Ry

     iteration #  8     ecut=    85.00 Ry     beta= 0.70
     Davidson diagonalization with overlap
     ethr =  4.83E-07,  avg # of iterations =  1.0

     total cpu time spent up to now is        1.4 secs

     total energy              =    -122.59733208 Ry
     Harris-Foulkes estimate   =    -122.59733046 Ry
     estimated scf accuracy    <       0.00035852 Ry

     iteration #  9     ecut=    85.00 Ry     beta= 0.70
     Davidson diagonalization with overlap
     ethr =  4.83E-07,  avg # of iterations =  1.0

     total cpu time spent up to now is        1.4 secs

     total energy              =    -122.59733236 Ry
     Harris-Foulkes estimate   =    -122.59733238 Ry
     estimated scf accuracy    <       0.00039050 Ry

     iteration # 10     ecut=    85.00 Ry     beta= 0.70
     Davidson diagonalization with overlap
     ethr =  4.83E-07,  avg # of iterations =  1.0

     total cpu time spent up to now is        1.5 secs

     total energy              =    -122.59729768 Ry
     Harris-Foulkes estimate   =    -122.59733242 Ry
     estimated scf accuracy    <       0.00039253 Ry

     iteration # 11     ecut=    85.00 Ry     beta= 0.70
     Davidson diagonalization with overlap
     ethr =  4.83E-07,  avg # of iterations =  1.0

     total cpu time spent up to now is        1.5 secs

     total energy              =    -122.59731065 Ry
     Harris-Foulkes estimate   =    -122.59731173 Ry
     estimated scf accuracy    <       0.00001028 Ry

     iteration # 12     ecut=    85.00 Ry     beta= 0.70
     Davidson diagonalization with overlap
     ethr =  9.35E-08,  avg # of iterations =  1.0

     total cpu time spent up to now is        1.6 secs

     total energy              =    -122.59731118 Ry
     Harris-Foulkes estimate   =    -122.59731119 Ry
     estimated scf accuracy    <       0.00000001 Ry

     iteration # 13     ecut=    85.00 Ry     beta= 0.70
     Davidson diagonalization with overlap
     ethr =  1.18E-10,  avg # of iterations =  2.7

     total cpu time spent up to now is        1.6 secs

     End of self-consistent calculation

          k = 0.0000 0.0000 0.0000 (  1067 PWs)   bands (ev):

     3.2853   9.9821   9.9821   9.9821  10.8470  10.8470  35.5701  38.0289
    38.0289  38.0289

          k = 0.5000-0.5000 0.5000 (  1056 PWs)   bands (ev):

     7.7759   9.9504   9.9504  11.4304  11.4304  11.6423  16.6137  33.9743
    34.8099  34.8099

          k = 0.0000-1.0000 0.0000 (  1034 PWs)   bands (ev):

     8.0186   8.5232  11.4171  11.5749  11.5749  14.1554  19.9288  25.7981
    25.7981  30.3773

     the Fermi energy is    11.7331 ev

!    total energy              =    -122.59731118 Ry
     Harris-Foulkes estimate   =    -122.59731119 Ry
     estimated scf accuracy    <          8.2E-09 Ry

     The total energy is the sum of the following terms:

     one-electron contribution =     -27.51455762 Ry
     hartree contribution      =      30.83676945 Ry
     xc contribution           =     -44.69134093 Ry
     ewald contribution        =     -81.22522855 Ry
     smearing contrib. (-TS)   =      -0.00295354 Ry

     convergence has been achieved in  13 iterations

     Forces acting on atoms (cartesian axes, Ry/au):

     atom    1 type  1   force =     0.00000000    0.00000000    0.00000000

     Total force =     0.000000     Total SCF correction =     0.000000


     Computing stress (Cartesian axis) and pressure

          total   stress  (Ry/bohr**3)                   (kbar)     P=  277.89
   0.00188904  -0.00000000  -0.00000000        277.89     -0.00     -0.00
  -0.00000000   0.00188904   0.00000000         -0.00    277.89      0.00
  -0.00000000   0.00000000   0.00188904         -0.00      0.00    277.89


     Writing output data file Cu.save/

     init_run     :      0.21s CPU      0.22s WALL (       1 calls)
     electrons    :      0.72s CPU      0.74s WALL (       1 calls)
     forces       :      0.03s CPU      0.03s WALL (       1 calls)
     stress       :      0.12s CPU      0.12s WALL (       1 calls)

     Called by init_run:
     wfcinit      :      0.02s CPU      0.02s WALL (       1 calls)
     potinit      :      0.01s CPU      0.01s WALL (       1 calls)
     hinit0       :      0.17s CPU      0.17s WALL (       1 calls)

     Called by electrons:
     c_bands      :      0.34s CPU      0.35s WALL (      14 calls)
     sum_band     :      0.20s CPU      0.20s WALL (      14 calls)
     v_of_rho     :      0.07s CPU      0.07s WALL (      14 calls)
     newd         :      0.11s CPU      0.11s WALL (      14 calls)
     mix_rho      :      0.01s CPU      0.01s WALL (      14 calls)

     Called by c_bands:
     init_us_2    :      0.02s CPU      0.02s WALL (      93 calls)
     cegterg      :      0.32s CPU      0.33s WALL (      42 calls)

     Called by sum_band:
     sum_band:bec :      0.00s CPU      0.00s WALL (      42 calls)
     addusdens    :      0.11s CPU      0.11s WALL (      14 calls)

     Called by *egterg:
     h_psi        :      0.27s CPU      0.28s WALL (     108 calls)
     s_psi        :      0.01s CPU      0.01s WALL (     108 calls)
     g_psi        :      0.00s CPU      0.00s WALL (      63 calls)
     cdiaghg      :      0.02s CPU      0.02s WALL (     102 calls)

     Called by h_psi:
     h_psi:pot    :      0.27s CPU      0.27s WALL (     108 calls)
     h_psi:calbec :      0.01s CPU      0.01s WALL (     108 calls)
     vloc_psi     :      0.25s CPU      0.25s WALL (     108 calls)
     add_vuspsi   :      0.01s CPU      0.01s WALL (     108 calls)

     General routines
     calbec       :      0.02s CPU      0.02s WALL (     165 calls)
     fft          :      0.04s CPU      0.05s WALL (     181 calls)
     ffts         :      0.00s CPU      0.00s WALL (      14 calls)
     fftw         :      0.28s CPU      0.29s WALL (    2296 calls)

     Parallel routines
     fft_scatt_xy :      0.03s CPU      0.03s WALL (    2491 calls)
     fft_scatt_yz :      0.08s CPU      0.08s WALL (    2491 calls)

     PWSCF        :     1.77s CPU         1.83s WALL


   This run was terminated on:  23:41:16  25Mar2024            

=------------------------------------------------------------------------------=
   JOB DONE.
=------------------------------------------------------------------------------=
