
     Program PWSCF v.6.3MaX starts on 25Mar2024 at 23:25:15 

     This program is part of the open-source Quantum ESPRESSO suite
     for quantum simulation of materials; please cite
         "P. Giannozzi et al., J. Phys.:Condens. Matter 21 395502 (2009);
         "P. Giannozzi et al., J. Phys.:Condens. Matter 29 465901 (2017);
          URL http://www.quantum-espresso.org", 
     in publications or presentations arising from this work. More details at
     http://www.quantum-espresso.org/quote

     Parallel version (MPI), running on     5 processors

     MPI processes distributed on     1 nodes
     R & G space division:  proc/nbgrp/npool/nimage =       5
     Waiting for input...
     Reading input from standard input

     Current dimensions of program PWSCF are:
     Max number of different atomic species (ntypx) = 10
     Max number of k-points (npk) =  40000
     Max angular momentum in pseudopotentials (lmaxx) =  3
               file Cu.pbe-dn-rrkjus_psl.1.0.0.UPF: wavefunction(s)  3D renormalized

     Subspace diagonalization in iterative solution of the eigenvalue problem:
     a serial algorithm will be used


     Parallelization info
     --------------------
     sticks:   dense  smooth     PW     G-vecs:    dense   smooth      PW
     Min          62      62     21                  765      765     148
     Max          63      63     22                  770      770     151
     Sum         313     313    109                 3839     3839     749



     bravais-lattice index     =            2
     lattice parameter (alat)  =       6.8300  a.u.
     unit-cell volume          =      79.6530 (a.u.)^3
     number of atoms/cell      =            1
     number of atomic types    =            1
     number of electrons       =        11.00
     number of Kohn-Sham states=           10
     kinetic-energy cutoff     =      50.0000  Ry
     charge density cutoff     =     200.0000  Ry
     convergence threshold     =      1.0E-08
     mixing beta               =       0.7000
     number of iterations used =            8  plain     mixing
     Exchange-correlation      = PBE ( 1  4  3  4 0 0)

     celldm(1)=   6.830000  celldm(2)=   0.000000  celldm(3)=   0.000000
     celldm(4)=   0.000000  celldm(5)=   0.000000  celldm(6)=   0.000000

     crystal axes: (cart. coord. in units of alat)
               a(1) = (  -0.500000   0.000000   0.500000 )  
               a(2) = (   0.000000   0.500000   0.500000 )  
               a(3) = (  -0.500000   0.500000   0.000000 )  

     reciprocal axes: (cart. coord. in units 2 pi/alat)
               b(1) = ( -1.000000 -1.000000  1.000000 )  
               b(2) = (  1.000000  1.000000  1.000000 )  
               b(3) = ( -1.000000  1.000000 -1.000000 )  


     PseudoPot. # 1 for Cu read from file:
     /home/lorenzo/pseudos/Cu/Cu.pbe-dn-rrkjus_psl.1.0.0.UPF
     MD5 check sum: ba3d6c84e19846e79d48cdc68ff7152b
     Pseudo is Ultrasoft + core correction, Zval = 11.0
     Generated using "atomic" code by A. Dal Corso v.6.3
     Using radial grid of 1199 points,  6 beta functions with: 
                l(1) =   0
                l(2) =   0
                l(3) =   1
                l(4) =   1
                l(5) =   2
                l(6) =   2
     Q(r) pseudized with 0 coefficients 


     atomic species   valence    mass     pseudopotential
        Cu            11.00    63.54600     Cu( 1.00)

     48 Sym. Ops., with inversion, found



   Cartesian axes

     site n.     atom                  positions (alat units)
         1           Cu  tau(   1) = (   0.0000000   0.0000000   0.0000000  )

     number of k points=    35  gaussian smearing, width (Ry)=  0.0100
                       cart. coord. in units 2pi/alat
        k(    1) = (   0.0000000   0.0000000   0.0000000), wk =   0.0027435
        k(    2) = (  -0.1111111   0.1111111  -0.1111111), wk =   0.0219479
        k(    3) = (  -0.2222222   0.2222222  -0.2222222), wk =   0.0219479
        k(    4) = (  -0.3333333   0.3333333  -0.3333333), wk =   0.0219479
        k(    5) = (  -0.4444444   0.4444444  -0.4444444), wk =   0.0219479
        k(    6) = (   0.0000000   0.2222222   0.0000000), wk =   0.0164609
        k(    7) = (  -0.1111111   0.3333333  -0.1111111), wk =   0.0658436
        k(    8) = (  -0.2222222   0.4444444  -0.2222222), wk =   0.0658436
        k(    9) = (  -0.3333333   0.5555556  -0.3333333), wk =   0.0658436
        k(   10) = (   0.5555556  -0.3333333   0.5555556), wk =   0.0658436
        k(   11) = (   0.4444444  -0.2222222   0.4444444), wk =   0.0658436
        k(   12) = (   0.3333333  -0.1111111   0.3333333), wk =   0.0658436
        k(   13) = (   0.2222222  -0.0000000   0.2222222), wk =   0.0329218
        k(   14) = (   0.0000000   0.4444444   0.0000000), wk =   0.0164609
        k(   15) = (  -0.1111111   0.5555556  -0.1111111), wk =   0.0658436
        k(   16) = (  -0.2222222   0.6666667  -0.2222222), wk =   0.0658436
        k(   17) = (   0.6666667  -0.2222222   0.6666667), wk =   0.0658436
        k(   18) = (   0.5555556  -0.1111111   0.5555556), wk =   0.0658436
        k(   19) = (   0.4444444   0.0000000   0.4444444), wk =   0.0329218
        k(   20) = (   0.0000000   0.6666667   0.0000000), wk =   0.0164609
        k(   21) = (  -0.1111111   0.7777778  -0.1111111), wk =   0.0658436
        k(   22) = (   0.7777778  -0.1111111   0.7777778), wk =   0.0658436
        k(   23) = (   0.6666667  -0.0000000   0.6666667), wk =   0.0329218
        k(   24) = (   0.0000000   0.8888889   0.0000000), wk =   0.0164609
        k(   25) = (   0.8888889   0.0000000   0.8888889), wk =   0.0329218
        k(   26) = (  -0.2222222   0.4444444   0.0000000), wk =   0.0658436
        k(   27) = (  -0.3333333   0.5555556  -0.1111111), wk =   0.1316872
        k(   28) = (   0.5555556  -0.3333333   0.7777778), wk =   0.1316872
        k(   29) = (  -0.2222222   0.6666667   0.0000000), wk =   0.0658436
        k(   30) = (   0.6666667  -0.2222222   0.8888889), wk =   0.1316872
        k(   31) = (   0.5555556  -0.1111111   0.7777778), wk =   0.1316872
        k(   32) = (   0.4444444   0.0000000   0.6666667), wk =   0.0658436
        k(   33) = (   0.7777778  -0.1111111   1.0000000), wk =   0.0658436
        k(   34) = (   0.6666667  -0.0000000   0.8888889), wk =   0.0658436
        k(   35) = (   0.5555556  -0.1111111   1.0000000), wk =   0.0658436

     Dense  grid:     3839 G-vectors     FFT dimensions: (  24,  24,  24)

     Estimated max dynamical RAM per process >       4.66 MB

     Estimated total dynamical RAM >      23.31 MB

     Check: negative/imaginary core charge=   -0.000002    0.000000

     Initial potential from superposition of free atoms

     starting charge   10.99977, renormalised to   11.00000
     Starting wfcs are    9 randomized atomic wfcs +    1 random wfcs

     total cpu time spent up to now is        1.0 secs

     Self-consistent Calculation

     iteration #  1     ecut=    50.00 Ry     beta= 0.70
     Davidson diagonalization with overlap
     ethr =  1.00E-02,  avg # of iterations =  3.7

     Threshold (ethr) on eigenvalues was too large:
     Diagonalizing with lowered threshold

     Davidson diagonalization with overlap
     ethr =  5.53E-04,  avg # of iterations =  1.1

     total cpu time spent up to now is        1.5 secs

     total energy              =    -122.71108677 Ry
     Harris-Foulkes estimate   =    -122.75849499 Ry
     estimated scf accuracy    <       0.06054389 Ry

     iteration #  2     ecut=    50.00 Ry     beta= 0.70
     Davidson diagonalization with overlap
     ethr =  5.50E-04,  avg # of iterations =  2.0

     total cpu time spent up to now is        1.7 secs

     total energy              =    -122.71243053 Ry
     Harris-Foulkes estimate   =    -122.79572684 Ry
     estimated scf accuracy    <       0.21544716 Ry

     iteration #  3     ecut=    50.00 Ry     beta= 0.70
     Davidson diagonalization with overlap
     ethr =  5.50E-04,  avg # of iterations =  2.0

     total cpu time spent up to now is        2.0 secs

     total energy              =    -122.74671771 Ry
     Harris-Foulkes estimate   =    -122.74673116 Ry
     estimated scf accuracy    <       0.00006413 Ry

     iteration #  4     ecut=    50.00 Ry     beta= 0.70
     Davidson diagonalization with overlap
     ethr =  5.83E-07,  avg # of iterations =  2.6

     total cpu time spent up to now is        2.2 secs

     total energy              =    -122.74676211 Ry
     Harris-Foulkes estimate   =    -122.74676566 Ry
     estimated scf accuracy    <       0.00001196 Ry

     iteration #  5     ecut=    50.00 Ry     beta= 0.70
     Davidson diagonalization with overlap
     ethr =  1.09E-07,  avg # of iterations =  1.1

     total cpu time spent up to now is        2.4 secs

     total energy              =    -122.74676429 Ry
     Harris-Foulkes estimate   =    -122.74676441 Ry
     estimated scf accuracy    <       0.00000034 Ry

     iteration #  6     ecut=    50.00 Ry     beta= 0.70
     Davidson diagonalization with overlap
     ethr =  3.11E-09,  avg # of iterations =  1.6

     total cpu time spent up to now is        2.6 secs

     End of self-consistent calculation

          k = 0.0000 0.0000 0.0000 (   531 PWs)   bands (ev):

     3.2774   9.6911   9.6911   9.6911  10.5183  10.5183  35.5981  37.9951
    37.9951  37.9951

          k =-0.1111 0.1111-0.1111 (   495 PWs)   bands (ev):

     3.7236   9.6013   9.7698   9.7698  10.4929  10.4929  32.2595  36.1947
    36.8986  36.8986

          k =-0.2222 0.2222-0.2222 (   483 PWs)   bands (ev):

     4.9890   9.4419   9.8565   9.8565  10.5506  10.5506  26.4989  35.5925
    35.7021  35.7021

          k =-0.3333 0.3333-0.3333 (   492 PWs)   bands (ev):

     6.6577   9.6653   9.7702   9.7702  10.8243  10.8243  21.2850  34.7115
    35.0181  35.0181

          k =-0.4444 0.4444-0.4444 (   470 PWs)   bands (ev):

     7.5301   9.6698   9.6698  11.0633  11.0633  11.1300  17.2377  34.0897
    34.7817  34.7817

          k = 0.0000 0.2222 0.0000 (   495 PWs)   bands (ev):

     3.8712   9.5184   9.8340   9.8340  10.3650  10.5828  33.9811  34.4616
    34.4616  36.1167

          k =-0.1111 0.3333-0.1111 (   484 PWs)   bands (ev):

     4.8632   9.3307   9.9208   9.9714  10.3414  10.6696  28.6830  32.7731
    33.9203  36.9586

          k =-0.2222 0.4444-0.2222 (   481 PWs)   bands (ev):

     6.4464   9.2644   9.7385   9.9547  10.8117  10.8935  23.2395  31.9019
    33.0467  34.6820

          k =-0.3333 0.5556-0.3333 (   470 PWs)   bands (ev):

     7.6347   9.5178   9.8431   9.8450  11.0915  11.8648  18.6198  31.5239
    31.9399  33.6535

          k = 0.5556-0.3333 0.5556 (   472 PWs)   bands (ev):

     7.8333   9.5031   9.7905  10.2115  11.0518  12.8881  16.6641  30.1314
    32.9760  33.9054

          k = 0.4444-0.2222 0.4444 (   479 PWs)   bands (ev):

     7.3822   9.6195   9.6343   9.8487  10.7621  11.6084  20.0417  29.5286
    35.0103  35.0161

          k = 0.3333-0.1111 0.3333 (   485 PWs)   bands (ev):

     5.8944   9.3040   9.7998   9.9761  10.3945  10.9671  24.9955  29.7567
    36.9168  37.9325

          k = 0.2222-0.0000 0.2222 (   485 PWs)   bands (ev):

     4.4457   9.4503   9.8602   9.8953  10.3447  10.6298  30.3204  31.0665
    37.9673  39.6247

          k = 0.0000 0.4444 0.0000 (   480 PWs)   bands (ev):

     5.5272   9.0893  10.0708  10.2321  10.2321  10.7460  30.6135  30.6135
    32.0790  32.5032

          k =-0.1111 0.5556-0.1111 (   476 PWs)   bands (ev):

     6.7774   8.8910   9.8379  10.3497  10.8523  10.9265  25.8295  29.3494
    29.7771  32.5796

          k =-0.2222 0.6667-0.2222 (   471 PWs)   bands (ev):

     7.9377   8.8980   9.6494  10.2649  11.1205  12.3262  20.8910  27.2739
    29.1155  32.4757

          k = 0.6667-0.2222 0.6667 (   467 PWs)   bands (ev):

     8.3445   9.0359   9.6688  10.1637  11.0687  14.7160  17.1277  25.4614
    29.9870  32.7815

          k = 0.5556-0.1111 0.5556 (   476 PWs)   bands (ev):

     8.2850   9.2321   9.4156  10.1333  10.7627  13.3058  19.4559  24.4884
    31.8959  33.7163

          k = 0.4444 0.0000 0.4444 (   479 PWs)   bands (ev):

     7.3134   9.1649   9.5532  10.1694  10.3869  11.7603  23.8123  24.7581
    34.6531  35.3522

          k = 0.0000 0.6667 0.0000 (   472 PWs)   bands (ev):

     7.3721   8.6187  10.6022  10.7677  10.7677  10.9340  26.3378  27.6532
    27.6532  30.8853

          k =-0.1111 0.7778-0.1111 (   469 PWs)   bands (ev):

     7.8845   8.5096  10.4248  10.7709  11.1357  12.5575  23.5694  23.9158
    27.0337  31.5556

          k = 0.7778-0.1111 0.7778 (   475 PWs)   bands (ev):

     8.2936   8.6050  10.0251  10.6407  11.1188  15.4160  19.5506  21.6903
    27.6176  31.9089

          k = 0.6667-0.0000 0.6667 (   466 PWs)   bands (ev):

     8.6486   8.8107   9.5525  10.4473  10.9000  15.9251  18.6004  21.1634
    29.3190  32.5697

          k = 0.0000 0.8889 0.0000 (   468 PWs)   bands (ev):

     7.7999   8.3205  11.0585  11.1828  11.1828  13.2977  20.9360  25.9904
    25.9904  30.3336

          k = 0.8889 0.0000 0.8889 (   470 PWs)   bands (ev):

     7.9431   8.3620  10.8105  10.9743  11.2050  14.8854  19.9007  23.1571
    26.1986  31.2628

          k =-0.2222 0.4444 0.0000 (   479 PWs)   bands (ev):

     6.0306   9.1307   9.7795  10.2428  10.3454  10.9839  27.1343  27.7711
    33.5670  36.4104

          k =-0.3333 0.5556-0.1111 (   476 PWs)   bands (ev):

     7.5031   9.0996   9.5156  10.1881  10.7307  11.7780  22.1950  27.0124
    30.8224  36.4739

          k = 0.5556-0.3333 0.7778 (   474 PWs)   bands (ev):

     8.1923   9.2059   9.6215  10.0743  11.0151  13.5732  17.8865  27.3861
    28.7463  36.0327

          k =-0.2222 0.6667 0.0000 (   472 PWs)   bands (ev):

     7.7445   8.7391   9.7525  10.7393  10.7651  11.9103  24.7118  25.3668
    26.8666  34.6432

          k = 0.6667-0.2222 0.8889 (   474 PWs)   bands (ev):

     8.3773   8.7846   9.5764  10.5419  11.0622  14.0767  20.3406  24.4845
    25.2739  35.4271

          k = 0.5556-0.1111 0.7778 (   473 PWs)   bands (ev):

     8.7282   8.8070   9.4217  10.3879  11.0308  16.1318  17.7274  22.9702
    26.3309  36.1300

          k = 0.4444 0.0000 0.6667 (   473 PWs)   bands (ev):

     8.4938   9.0871   9.1468  10.3990  10.7800  13.4759  21.3074  22.7581
    28.2335  37.4335

          k = 0.7778-0.1111 1.0000 (   471 PWs)   bands (ev):

     8.0753   8.4853  10.3286  10.8844  11.1821  14.5437  21.2795  23.3236
    24.0943  33.7726

          k = 0.6667-0.0000 0.8889 (   481 PWs)   bands (ev):

     8.3781   8.6751   9.8487  10.6444  11.1791  16.9372  19.5678  20.4985
    24.6280  35.0710

          k = 0.5556-0.1111 1.0000 (   472 PWs)   bands (ev):

     8.5667   8.9941   9.3111  10.5078  11.1800  16.7948  19.8686  21.7403
    22.5102  39.5734

     the Fermi energy is    12.7546 ev

!    total energy              =    -122.74676436 Ry
     Harris-Foulkes estimate   =    -122.74676436 Ry
     estimated scf accuracy    <          2.0E-10 Ry

     The total energy is the sum of the following terms:

     one-electron contribution =     -27.51277297 Ry
     hartree contribution      =      30.62056160 Ry
     xc contribution           =     -44.62923064 Ry
     ewald contribution        =     -81.22522859 Ry
     smearing contrib. (-TS)   =      -0.00009375 Ry

     convergence has been achieved in   6 iterations

     Forces acting on atoms (cartesian axes, Ry/au):

     atom    1 type  1   force =     0.00000000    0.00000000    0.00000000

     Total force =     0.000000     Total SCF correction =     0.000000


     Computing stress (Cartesian axis) and pressure

          total   stress  (Ry/bohr**3)                   (kbar)     P=   13.73
   0.00009334   0.00000000   0.00000000         13.73      0.00      0.00
   0.00000000   0.00009334  -0.00000000          0.00     13.73     -0.00
   0.00000000  -0.00000000   0.00009334          0.00     -0.00     13.73


     Writing output data file Cu.save/

     init_run     :      0.22s CPU      0.22s WALL (       1 calls)
     electrons    :      1.55s CPU      1.66s WALL (       1 calls)
     forces       :      0.05s CPU      0.05s WALL (       1 calls)
     stress       :      0.09s CPU      0.09s WALL (       1 calls)

     Called by init_run:
     wfcinit      :      0.06s CPU      0.07s WALL (       1 calls)
     potinit      :      0.01s CPU      0.01s WALL (       1 calls)
     hinit0       :      0.14s CPU      0.14s WALL (       1 calls)

     Called by electrons:
     c_bands      :      1.29s CPU      1.37s WALL (       7 calls)
     sum_band     :      0.23s CPU      0.25s WALL (       7 calls)
     v_of_rho     :      0.02s CPU      0.02s WALL (       7 calls)
     newd         :      0.03s CPU      0.03s WALL (       7 calls)
     mix_rho      :      0.00s CPU      0.00s WALL (       7 calls)

     Called by c_bands:
     init_us_2    :      0.04s CPU      0.04s WALL (     595 calls)
     cegterg      :      1.22s CPU      1.31s WALL (     245 calls)

     Called by sum_band:
     sum_band:bec :      0.00s CPU      0.00s WALL (     245 calls)
     addusdens    :      0.03s CPU      0.03s WALL (       7 calls)

     Called by *egterg:
     h_psi        :      0.95s CPU      1.01s WALL (     778 calls)
     s_psi        :      0.03s CPU      0.03s WALL (     778 calls)
     g_psi        :      0.00s CPU      0.00s WALL (     498 calls)
     cdiaghg      :      0.16s CPU      0.16s WALL (     708 calls)

     Called by h_psi:
     h_psi:pot    :      0.94s CPU      1.01s WALL (     778 calls)
     h_psi:calbec :      0.05s CPU      0.05s WALL (     778 calls)
     vloc_psi     :      0.86s CPU      0.92s WALL (     778 calls)
     add_vuspsi   :      0.03s CPU      0.03s WALL (     778 calls)

     General routines
     calbec       :      0.08s CPU      0.09s WALL (    1198 calls)
     fft          :      0.02s CPU      0.02s WALL (     104 calls)
     ffts         :      0.00s CPU      0.00s WALL (       7 calls)
     fftw         :      0.95s CPU      1.02s WALL (   14828 calls)

     Parallel routines
     fft_scatt_xy :      0.09s CPU      0.09s WALL (   14939 calls)
     fft_scatt_yz :      0.31s CPU      0.33s WALL (   14939 calls)

     PWSCF        :     2.66s CPU         2.83s WALL


   This run was terminated on:  23:25:18  25Mar2024            

=------------------------------------------------------------------------------=
   JOB DONE.
=------------------------------------------------------------------------------=
