
     Program PWSCF v.6.3MaX starts on 25Mar2024 at 23:37:12 

     This program is part of the open-source Quantum ESPRESSO suite
     for quantum simulation of materials; please cite
         "P. Giannozzi et al., J. Phys.:Condens. Matter 21 395502 (2009);
         "P. Giannozzi et al., J. Phys.:Condens. Matter 29 465901 (2017);
          URL http://www.quantum-espresso.org", 
     in publications or presentations arising from this work. More details at
     http://www.quantum-espresso.org/quote

     Parallel version (MPI), running on     5 processors

     MPI processes distributed on     1 nodes
     R & G space division:  proc/nbgrp/npool/nimage =       5
     Waiting for input...
     Reading input from standard input

     Current dimensions of program PWSCF are:
     Max number of different atomic species (ntypx) = 10
     Max number of k-points (npk) =  40000
     Max angular momentum in pseudopotentials (lmaxx) =  3
               file Cu.pbesol-dn-kjpaw_psl.1.0.0.UPF: wavefunction(s)  4S 3D renormalized

     Subspace diagonalization in iterative solution of the eigenvalue problem:
     a serial algorithm will be used


     Parallelization info
     --------------------
     sticks:   dense  smooth     PW     G-vecs:    dense   smooth      PW
     Min          95      95     30                 1375     1375     248
     Max          95      95     31                 1376     1376     251
     Sum         475     475    151                 6879     6879    1243



     bravais-lattice index     =            2
     lattice parameter (alat)  =       6.8300  a.u.
     unit-cell volume          =      79.6530 (a.u.)^3
     number of atoms/cell      =            1
     number of atomic types    =            1
     number of electrons       =        11.00
     number of Kohn-Sham states=           10
     kinetic-energy cutoff     =      75.0000  Ry
     charge density cutoff     =     300.0000  Ry
     convergence threshold     =      1.0E-08
     mixing beta               =       0.7000
     number of iterations used =            8  plain     mixing
     Exchange-correlation      = SLA PW PSX PSC ( 1  4 10  8 0 0)

     celldm(1)=   6.830000  celldm(2)=   0.000000  celldm(3)=   0.000000
     celldm(4)=   0.000000  celldm(5)=   0.000000  celldm(6)=   0.000000

     crystal axes: (cart. coord. in units of alat)
               a(1) = (  -0.500000   0.000000   0.500000 )  
               a(2) = (   0.000000   0.500000   0.500000 )  
               a(3) = (  -0.500000   0.500000   0.000000 )  

     reciprocal axes: (cart. coord. in units 2 pi/alat)
               b(1) = ( -1.000000 -1.000000  1.000000 )  
               b(2) = (  1.000000  1.000000  1.000000 )  
               b(3) = ( -1.000000  1.000000 -1.000000 )  


     PseudoPot. # 1 for Cu read from file:
     /home/lorenzo/pseudos/Cu/Cu.pbesol-dn-kjpaw_psl.1.0.0.UPF
     MD5 check sum: 1e9735a74797514c934643dbd229f231
     Pseudo is Projector augmented-wave + core cor, Zval = 11.0
     Generated using "atomic" code by A. Dal Corso v.6.3
     Shape of augmentation charge: PSQ
     Using radial grid of 1199 points,  6 beta functions with: 
                l(1) =   0
                l(2) =   0
                l(3) =   1
                l(4) =   1
                l(5) =   2
                l(6) =   2
     Q(r) pseudized with 0 coefficients 


     atomic species   valence    mass     pseudopotential
        Cu            11.00    63.54600     Cu( 1.00)

     48 Sym. Ops., with inversion, found



   Cartesian axes

     site n.     atom                  positions (alat units)
         1           Cu  tau(   1) = (   0.0000000   0.0000000   0.0000000  )

     number of k points=    35  gaussian smearing, width (Ry)=  0.0100
                       cart. coord. in units 2pi/alat
        k(    1) = (   0.0000000   0.0000000   0.0000000), wk =   0.0027435
        k(    2) = (  -0.1111111   0.1111111  -0.1111111), wk =   0.0219479
        k(    3) = (  -0.2222222   0.2222222  -0.2222222), wk =   0.0219479
        k(    4) = (  -0.3333333   0.3333333  -0.3333333), wk =   0.0219479
        k(    5) = (  -0.4444444   0.4444444  -0.4444444), wk =   0.0219479
        k(    6) = (   0.0000000   0.2222222   0.0000000), wk =   0.0164609
        k(    7) = (  -0.1111111   0.3333333  -0.1111111), wk =   0.0658436
        k(    8) = (  -0.2222222   0.4444444  -0.2222222), wk =   0.0658436
        k(    9) = (  -0.3333333   0.5555556  -0.3333333), wk =   0.0658436
        k(   10) = (   0.5555556  -0.3333333   0.5555556), wk =   0.0658436
        k(   11) = (   0.4444444  -0.2222222   0.4444444), wk =   0.0658436
        k(   12) = (   0.3333333  -0.1111111   0.3333333), wk =   0.0658436
        k(   13) = (   0.2222222  -0.0000000   0.2222222), wk =   0.0329218
        k(   14) = (   0.0000000   0.4444444   0.0000000), wk =   0.0164609
        k(   15) = (  -0.1111111   0.5555556  -0.1111111), wk =   0.0658436
        k(   16) = (  -0.2222222   0.6666667  -0.2222222), wk =   0.0658436
        k(   17) = (   0.6666667  -0.2222222   0.6666667), wk =   0.0658436
        k(   18) = (   0.5555556  -0.1111111   0.5555556), wk =   0.0658436
        k(   19) = (   0.4444444   0.0000000   0.4444444), wk =   0.0329218
        k(   20) = (   0.0000000   0.6666667   0.0000000), wk =   0.0164609
        k(   21) = (  -0.1111111   0.7777778  -0.1111111), wk =   0.0658436
        k(   22) = (   0.7777778  -0.1111111   0.7777778), wk =   0.0658436
        k(   23) = (   0.6666667  -0.0000000   0.6666667), wk =   0.0329218
        k(   24) = (   0.0000000   0.8888889   0.0000000), wk =   0.0164609
        k(   25) = (   0.8888889   0.0000000   0.8888889), wk =   0.0329218
        k(   26) = (  -0.2222222   0.4444444   0.0000000), wk =   0.0658436
        k(   27) = (  -0.3333333   0.5555556  -0.1111111), wk =   0.1316872
        k(   28) = (   0.5555556  -0.3333333   0.7777778), wk =   0.1316872
        k(   29) = (  -0.2222222   0.6666667   0.0000000), wk =   0.0658436
        k(   30) = (   0.6666667  -0.2222222   0.8888889), wk =   0.1316872
        k(   31) = (   0.5555556  -0.1111111   0.7777778), wk =   0.1316872
        k(   32) = (   0.4444444   0.0000000   0.6666667), wk =   0.0658436
        k(   33) = (   0.7777778  -0.1111111   1.0000000), wk =   0.0658436
        k(   34) = (   0.6666667  -0.0000000   0.8888889), wk =   0.0658436
        k(   35) = (   0.5555556  -0.1111111   1.0000000), wk =   0.0658436

     Dense  grid:     6879 G-vectors     FFT dimensions: (  27,  27,  27)

     Estimated max dynamical RAM per process >       7.61 MB

     Estimated total dynamical RAM >      38.04 MB

     Initial potential from superposition of free atoms

     starting charge   10.99979, renormalised to   11.00000
     Starting wfcs are    9 randomized atomic wfcs +    1 random wfcs
     Checking if some PAW data can be deallocated... 

     total cpu time spent up to now is        1.2 secs

     Self-consistent Calculation

     iteration #  1     ecut=    75.00 Ry     beta= 0.70
     Davidson diagonalization with overlap
     ethr =  1.00E-02,  avg # of iterations =  3.7

     Threshold (ethr) on eigenvalues was too large:
     Diagonalizing with lowered threshold

     Davidson diagonalization with overlap
     ethr =  6.69E-04,  avg # of iterations =  1.0

     total cpu time spent up to now is        2.0 secs

     total energy              =    -210.37767868 Ry
     Harris-Foulkes estimate   =    -210.43627850 Ry
     estimated scf accuracy    <       0.07329059 Ry

     iteration #  2     ecut=    75.00 Ry     beta= 0.70
     Davidson diagonalization with overlap
     ethr =  6.66E-04,  avg # of iterations =  2.0

     total cpu time spent up to now is        2.5 secs

     total energy              =    -210.38055438 Ry
     Harris-Foulkes estimate   =    -210.48279138 Ry
     estimated scf accuracy    <       0.26486141 Ry

     iteration #  3     ecut=    75.00 Ry     beta= 0.70
     Davidson diagonalization with overlap
     ethr =  6.66E-04,  avg # of iterations =  2.0

     total cpu time spent up to now is        2.9 secs

     total energy              =    -210.42174214 Ry
     Harris-Foulkes estimate   =    -210.42182471 Ry
     estimated scf accuracy    <       0.00016823 Ry

     iteration #  4     ecut=    75.00 Ry     beta= 0.70
     Davidson diagonalization with overlap
     ethr =  1.53E-06,  avg # of iterations =  2.6

     total cpu time spent up to now is        3.4 secs

     total energy              =    -210.42182356 Ry
     Harris-Foulkes estimate   =    -210.42183351 Ry
     estimated scf accuracy    <       0.00002776 Ry

     iteration #  5     ecut=    75.00 Ry     beta= 0.70
     Davidson diagonalization with overlap
     ethr =  2.52E-07,  avg # of iterations =  1.1

     total cpu time spent up to now is        3.7 secs

     total energy              =    -210.42182820 Ry
     Harris-Foulkes estimate   =    -210.42182826 Ry
     estimated scf accuracy    <       0.00000015 Ry

     iteration #  6     ecut=    75.00 Ry     beta= 0.70
     Davidson diagonalization with overlap
     ethr =  1.36E-09,  avg # of iterations =  2.9

     total cpu time spent up to now is        4.2 secs

     End of self-consistent calculation

          k = 0.0000 0.0000 0.0000 (   893 PWs)   bands (ev):

     3.0440   9.4797   9.4797   9.4797  10.3211  10.3211  35.3800  37.7513
    37.7513  37.7513

          k =-0.1111 0.1111-0.1111 (   893 PWs)   bands (ev):

     3.4902   9.3888   9.5581   9.5581  10.2947  10.2947  32.0239  35.9710
    36.6513  36.6513

          k =-0.2222 0.2222-0.2222 (   887 PWs)   bands (ev):

     4.7557   9.2278   9.6472   9.6472  10.3501  10.3501  26.2655  35.3738
    35.4529  35.4529

          k =-0.3333 0.3333-0.3333 (   878 PWs)   bands (ev):

     6.4267   9.4470   9.5636   9.5636  10.6223  10.6223  21.0558  34.4939
    34.7666  34.7666

          k =-0.4444 0.4444-0.4444 (   874 PWs)   bands (ev):

     7.3059   9.4635   9.4635  10.8606  10.8606  10.8997  17.0142  33.8724
    34.5271  34.5271

          k = 0.0000 0.2222 0.0000 (   889 PWs)   bands (ev):

     3.6378   9.3056   9.6223   9.6223  10.1663  10.3852  33.7556  34.2143
    34.2143  35.8883

          k =-0.1111 0.3333-0.1111 (   880 PWs)   bands (ev):

     4.6299   9.1170   9.7121   9.7611  10.1391  10.4711  28.4475  32.5258
    33.6949  36.7223

          k =-0.2222 0.4444-0.2222 (   868 PWs)   bands (ev):

     6.2145   9.0491   9.5324   9.7473  10.6058  10.6927  23.0081  31.6540
    32.8239  34.4373

          k =-0.3333 0.5556-0.3333 (   878 PWs)   bands (ev):

     7.4098   9.3110   9.6257   9.6391  10.8893  11.6515  18.3932  31.2921
    31.6910  33.4180

          k = 0.5556-0.3333 0.5556 (   872 PWs)   bands (ev):

     7.6109   9.2966   9.5853   9.9964  10.8489  12.6668  16.4416  29.8954
    32.7261  33.6743

          k = 0.4444-0.2222 0.4444 (   874 PWs)   bands (ev):

     7.1544   9.4086   9.4207   9.6435  10.5581  11.4011  19.8134  29.2919
    34.7592  34.7863

          k = 0.3333-0.1111 0.3333 (   877 PWs)   bands (ev):

     5.6615   9.0893   9.5923   9.7691  10.1917  10.7652  24.7629  29.5201
    36.6876  37.6794

          k = 0.2222-0.0000 0.2222 (   895 PWs)   bands (ev):

     4.2123   9.2369   9.6497   9.6839  10.1457  10.4306  30.0847  30.8293
    37.7371  39.3809

          k = 0.0000 0.4444 0.0000 (   877 PWs)   bands (ev):

     5.2944   8.8751   9.8690  10.0214  10.0214  10.5490  30.3668  30.3668
    31.8517  32.2791

          k =-0.1111 0.5556-0.1111 (   865 PWs)   bands (ev):

     6.5473   8.6759   9.6306  10.1424  10.6438  10.7273  25.5936  29.1025
    29.5467  32.3493

          k =-0.2222 0.6667-0.2222 (   876 PWs)   bands (ev):

     7.7155   8.6839   9.4373  10.0603  10.9186  12.1120  20.6600  27.0425
    28.8682  32.2481

          k = 0.6667-0.2222 0.6667 (   862 PWs)   bands (ev):

     8.1253   8.8272   9.4536   9.9601  10.8650  14.4938  16.9017  25.2296
    29.7395  32.5543

          k = 0.5556-0.1111 0.5556 (   863 PWs)   bands (ev):

     8.0622   9.0249   9.2000   9.9312  10.5565  13.0899  19.2274  24.2563
    31.6481  33.4884

          k = 0.4444 0.0000 0.4444 (   873 PWs)   bands (ev):

     7.0829   8.9499   9.3464   9.9696  10.1774  11.5541  23.5792  24.5261
    34.4042  35.1231

          k = 0.0000 0.6667 0.0000 (   866 PWs)   bands (ev):

     7.1488   8.4027  10.3868  10.5592  10.5592  10.7380  26.1094  27.4062
    27.4062  30.6586

          k =-0.1111 0.7778-0.1111 (   863 PWs)   bands (ev):

     7.6693   8.2934  10.2116  10.5692  10.9334  12.3371  23.3439  23.6767
    26.7863  31.3288

          k = 0.7778-0.1111 0.7778 (   871 PWs)   bands (ev):

     8.0822   8.3896   9.8109  10.4411  10.9138  15.1897  19.3196  21.4643
    27.3703  31.6837

          k = 0.6667-0.0000 0.6667 (   866 PWs)   bands (ev):

     8.4321   8.6005   9.3373  10.2481  10.6923  15.7009  18.3695  20.9376
    29.0720  32.3436

          k = 0.0000 0.8889 0.0000 (   878 PWs)   bands (ev):

     7.5877   8.1039  10.8629  10.9760  10.9760  13.0641  20.7145  25.7424
    25.7424  30.1075

          k = 0.8889 0.0000 0.8889 (   874 PWs)   bands (ev):

     7.7323   8.1454  10.6000  10.7781  10.9984  14.6511  19.6825  22.9181
    25.9507  31.0365

          k =-0.2222 0.4444 0.0000 (   870 PWs)   bands (ev):

     5.7980   8.9161   9.5732  10.0325  10.1436  10.7821  26.8985  27.5354
    33.3315  36.1727

          k =-0.3333 0.5556-0.1111 (   877 PWs)   bands (ev):

     7.2747   8.8844   9.3080   9.9836  10.5261  11.5701  21.9638  26.7768
    30.5861  36.2348

          k = 0.5556-0.3333 0.7778 (   869 PWs)   bands (ev):

     7.9710   8.9985   9.4060   9.8704  10.8113  13.3545  17.6600  27.1515
    28.5085  35.7937

          k =-0.2222 0.6667 0.0000 (   864 PWs)   bands (ev):

     7.5220   8.5233   9.5411  10.5405  10.5567  11.6989  24.4751  25.1317
    26.6336  34.4058

          k = 0.6667-0.2222 0.8889 (   875 PWs)   bands (ev):

     8.1632   8.5700   9.3619  10.3410  10.8570  13.8562  20.1092  24.2558
    25.0356  35.1906

          k = 0.5556-0.1111 0.7778 (   875 PWs)   bands (ev):

     8.5119   8.5971   9.2065  10.1876  10.8245  15.9076  17.4990  22.7405
    26.0946  35.8928

          k = 0.4444 0.0000 0.6667 (   874 PWs)   bands (ev):

     8.2728   8.8715   8.9380  10.1994  10.5717  13.2594  21.0750  22.5281
    27.9978  37.1943

          k = 0.7778-0.1111 1.0000 (   875 PWs)   bands (ev):

     7.8642   8.2689  10.1162  10.6871  10.9753  14.3160  21.0565  23.0855
    23.8557  33.5360

          k = 0.6667-0.0000 0.8889 (   877 PWs)   bands (ev):

     8.1690   8.4590   9.6345  10.4465  10.9725  16.7057  19.3395  20.2733
    24.3909  34.8353

          k = 0.5556-0.1111 1.0000 (   877 PWs)   bands (ev):

     8.3579   8.7783   9.0953  10.3087  10.9733  16.5677  19.6357  21.5142
    22.2783  39.3301

     the Fermi energy is    12.5336 ev

!    total energy              =    -210.42182826 Ry
     Harris-Foulkes estimate   =    -210.42182826 Ry
     estimated scf accuracy    <          4.6E-10 Ry

     total all-electron energy =     -3307.300889 Ry

     The total energy is the sum of the following terms:

     one-electron contribution =     -28.01852836 Ry
     hartree contribution      =      30.53515492 Ry
     xc contribution           =     -44.11267964 Ry
     ewald contribution        =     -81.22522855 Ry
     one-center paw contrib.   =     -87.60045237 Ry
     smearing contrib. (-TS)   =      -0.00009427 Ry

     convergence has been achieved in   6 iterations

     Forces acting on atoms (cartesian axes, Ry/au):

     atom    1 type  1   force =     0.00000000    0.00000000    0.00000000

     Total force =     0.000000     Total SCF correction =     0.000000


     Computing stress (Cartesian axis) and pressure

          total   stress  (Ry/bohr**3)                   (kbar)     P=  -64.45
  -0.00043809  -0.00000000  -0.00000000        -64.45     -0.00     -0.00
   0.00000000  -0.00043809   0.00000000          0.00    -64.45      0.00
  -0.00000000   0.00000000  -0.00043809         -0.00      0.00    -64.45


     Writing output data file Cu.save/

     init_run     :      0.40s CPU      0.43s WALL (       1 calls)
     electrons    :      2.79s CPU      2.98s WALL (       1 calls)
     forces       :      0.04s CPU      0.04s WALL (       1 calls)
     stress       :      0.13s CPU      0.13s WALL (       1 calls)

     Called by init_run:
     wfcinit      :      0.10s CPU      0.11s WALL (       1 calls)
     potinit      :      0.12s CPU      0.13s WALL (       1 calls)
     hinit0       :      0.16s CPU      0.16s WALL (       1 calls)

     Called by electrons:
     c_bands      :      1.78s CPU      1.88s WALL (       7 calls)
     sum_band     :      0.39s CPU      0.41s WALL (       7 calls)
     v_of_rho     :      0.04s CPU      0.04s WALL (       7 calls)
     newd         :      0.05s CPU      0.06s WALL (       7 calls)
     PAW_pot      :      0.64s CPU      0.72s WALL (       7 calls)
     mix_rho      :      0.00s CPU      0.00s WALL (       7 calls)

     Called by c_bands:
     init_us_2    :      0.06s CPU      0.06s WALL (     595 calls)
     cegterg      :      1.70s CPU      1.79s WALL (     245 calls)

     Called by sum_band:
     sum_band:bec :      0.00s CPU      0.00s WALL (     245 calls)
     addusdens    :      0.05s CPU      0.05s WALL (       7 calls)

     Called by *egterg:
     h_psi        :      1.38s CPU      1.47s WALL (     814 calls)
     s_psi        :      0.04s CPU      0.05s WALL (     814 calls)
     g_psi        :      0.00s CPU      0.00s WALL (     534 calls)
     cdiaghg      :      0.15s CPU      0.15s WALL (     744 calls)

     Called by h_psi:
     h_psi:pot    :      1.37s CPU      1.46s WALL (     814 calls)
     h_psi:calbec :      0.06s CPU      0.06s WALL (     814 calls)
     vloc_psi     :      1.26s CPU      1.34s WALL (     814 calls)
     add_vuspsi   :      0.04s CPU      0.05s WALL (     814 calls)

     General routines
     calbec       :      0.10s CPU      0.11s WALL (    1234 calls)
     fft          :      0.03s CPU      0.03s WALL (     104 calls)
     ffts         :      0.00s CPU      0.00s WALL (       7 calls)
     fftw         :      1.44s CPU      1.53s WALL (   15078 calls)

     Parallel routines
     fft_scatt_xy :      0.12s CPU      0.13s WALL (   15189 calls)
     fft_scatt_yz :      0.36s CPU      0.38s WALL (   15189 calls)

     PWSCF        :     4.15s CPU         4.44s WALL


   This run was terminated on:  23:37:17  25Mar2024            

=------------------------------------------------------------------------------=
   JOB DONE.
=------------------------------------------------------------------------------=
