
     Program PWSCF v.6.3MaX starts on 25Mar2024 at 23:12:55 

     This program is part of the open-source Quantum ESPRESSO suite
     for quantum simulation of materials; please cite
         "P. Giannozzi et al., J. Phys.:Condens. Matter 21 395502 (2009);
         "P. Giannozzi et al., J. Phys.:Condens. Matter 29 465901 (2017);
          URL http://www.quantum-espresso.org", 
     in publications or presentations arising from this work. More details at
     http://www.quantum-espresso.org/quote

     Parallel version (MPI), running on     5 processors

     MPI processes distributed on     1 nodes
     R & G space division:  proc/nbgrp/npool/nimage =       5
     Waiting for input...
     Reading input from standard input

     Current dimensions of program PWSCF are:
     Max number of different atomic species (ntypx) = 10
     Max number of k-points (npk) =  40000
     Max angular momentum in pseudopotentials (lmaxx) =  3
               file Cu.pbe-dn-rrkjus_psl.1.0.0.UPF: wavefunction(s)  3D renormalized

     Subspace diagonalization in iterative solution of the eigenvalue problem:
     a serial algorithm will be used


     Parallelization info
     --------------------
     sticks:   dense  smooth     PW     G-vecs:    dense   smooth      PW
     Min          24      24     11                  187      187      45
     Max          25      25     11                  191      191      46
     Sum         121     121     55                  941      941     229



     bravais-lattice index     =            2
     lattice parameter (alat)  =       6.8300  a.u.
     unit-cell volume          =      79.6530 (a.u.)^3
     number of atoms/cell      =            1
     number of atomic types    =            1
     number of electrons       =        11.00
     number of Kohn-Sham states=           10
     kinetic-energy cutoff     =      20.0000  Ry
     charge density cutoff     =      80.0000  Ry
     convergence threshold     =      1.0E-08
     mixing beta               =       0.7000
     number of iterations used =            8  plain     mixing
     Exchange-correlation      = PBE ( 1  4  3  4 0 0)

     celldm(1)=   6.830000  celldm(2)=   0.000000  celldm(3)=   0.000000
     celldm(4)=   0.000000  celldm(5)=   0.000000  celldm(6)=   0.000000

     crystal axes: (cart. coord. in units of alat)
               a(1) = (  -0.500000   0.000000   0.500000 )  
               a(2) = (   0.000000   0.500000   0.500000 )  
               a(3) = (  -0.500000   0.500000   0.000000 )  

     reciprocal axes: (cart. coord. in units 2 pi/alat)
               b(1) = ( -1.000000 -1.000000  1.000000 )  
               b(2) = (  1.000000  1.000000  1.000000 )  
               b(3) = ( -1.000000  1.000000 -1.000000 )  


     PseudoPot. # 1 for Cu read from file:
     /home/lorenzo/pseudos/Cu/Cu.pbe-dn-rrkjus_psl.1.0.0.UPF
     MD5 check sum: ba3d6c84e19846e79d48cdc68ff7152b
     Pseudo is Ultrasoft + core correction, Zval = 11.0
     Generated using "atomic" code by A. Dal Corso v.6.3
     Using radial grid of 1199 points,  6 beta functions with: 
                l(1) =   0
                l(2) =   0
                l(3) =   1
                l(4) =   1
                l(5) =   2
                l(6) =   2
     Q(r) pseudized with 0 coefficients 


     atomic species   valence    mass     pseudopotential
        Cu            11.00    63.54600     Cu( 1.00)

     48 Sym. Ops., with inversion, found



   Cartesian axes

     site n.     atom                  positions (alat units)
         1           Cu  tau(   1) = (   0.0000000   0.0000000   0.0000000  )

     number of k points=     8  gaussian smearing, width (Ry)=  0.0100
                       cart. coord. in units 2pi/alat
        k(    1) = (   0.0000000   0.0000000   0.0000000), wk =   0.0312500
        k(    2) = (  -0.2500000   0.2500000  -0.2500000), wk =   0.2500000
        k(    3) = (   0.5000000  -0.5000000   0.5000000), wk =   0.1250000
        k(    4) = (   0.0000000   0.5000000   0.0000000), wk =   0.1875000
        k(    5) = (   0.7500000  -0.2500000   0.7500000), wk =   0.7500000
        k(    6) = (   0.5000000   0.0000000   0.5000000), wk =   0.3750000
        k(    7) = (   0.0000000  -1.0000000   0.0000000), wk =   0.0937500
        k(    8) = (  -0.5000000  -1.0000000   0.0000000), wk =   0.1875000

     Dense  grid:      941 G-vectors     FFT dimensions: (  15,  15,  15)

     Estimated max dynamical RAM per process >       1.52 MB

     Estimated total dynamical RAM >       7.61 MB

     Check: negative/imaginary core charge=   -0.000090    0.000000

     Initial potential from superposition of free atoms

     starting charge   10.99977, renormalised to   11.00000
     Starting wfcs are    9 randomized atomic wfcs +    1 random wfcs

     total cpu time spent up to now is        0.8 secs

     Self-consistent Calculation

     iteration #  1     ecut=    20.00 Ry     beta= 0.70
     Davidson diagonalization with overlap
     ethr =  1.00E-02,  avg # of iterations =  3.5

     total cpu time spent up to now is        0.9 secs

     total energy              =    -121.63825964 Ry
     Harris-Foulkes estimate   =    -122.21438150 Ry
     estimated scf accuracy    <       0.69634925 Ry

     iteration #  2     ecut=    20.00 Ry     beta= 0.70
     Davidson diagonalization with overlap
     ethr =  6.33E-03,  avg # of iterations =  2.0

     total cpu time spent up to now is        0.9 secs

     total energy              =    -121.92364042 Ry
     Harris-Foulkes estimate   =    -122.38160863 Ry
     estimated scf accuracy    <       0.95671091 Ry

     iteration #  3     ecut=    20.00 Ry     beta= 0.70
     Davidson diagonalization with overlap
     ethr =  6.33E-03,  avg # of iterations =  1.6

     total cpu time spent up to now is        0.9 secs

     total energy              =    -122.03318728 Ry
     Harris-Foulkes estimate   =    -122.05310194 Ry
     estimated scf accuracy    <       0.02756423 Ry

     iteration #  4     ecut=    20.00 Ry     beta= 0.70
     Davidson diagonalization with overlap
     ethr =  2.51E-04,  avg # of iterations =  2.4

     total cpu time spent up to now is        1.0 secs

     total energy              =    -122.03836700 Ry
     Harris-Foulkes estimate   =    -122.06272801 Ry
     estimated scf accuracy    <       0.06028258 Ry

     iteration #  5     ecut=    20.00 Ry     beta= 0.70
     Davidson diagonalization with overlap
     ethr =  2.51E-04,  avg # of iterations =  2.0

     total cpu time spent up to now is        1.0 secs

     total energy              =    -122.04767754 Ry
     Harris-Foulkes estimate   =    -122.04758744 Ry
     estimated scf accuracy    <       0.00032912 Ry

     iteration #  6     ecut=    20.00 Ry     beta= 0.70
     Davidson diagonalization with overlap
     ethr =  2.99E-06,  avg # of iterations =  2.4

     total cpu time spent up to now is        1.0 secs

     total energy              =    -122.04745783 Ry
     Harris-Foulkes estimate   =    -122.04773197 Ry
     estimated scf accuracy    <       0.00062825 Ry

     iteration #  7     ecut=    20.00 Ry     beta= 0.70
     Davidson diagonalization with overlap
     ethr =  2.99E-06,  avg # of iterations =  2.0

     total cpu time spent up to now is        1.0 secs

     total energy              =    -122.04756536 Ry
     Harris-Foulkes estimate   =    -122.04756552 Ry
     estimated scf accuracy    <       0.00000066 Ry

     iteration #  8     ecut=    20.00 Ry     beta= 0.70
     Davidson diagonalization with overlap
     ethr =  5.99E-09,  avg # of iterations =  2.8

     total cpu time spent up to now is        1.1 secs

     total energy              =    -122.04756603 Ry
     Harris-Foulkes estimate   =    -122.04756606 Ry
     estimated scf accuracy    <       0.00000007 Ry

     iteration #  9     ecut=    20.00 Ry     beta= 0.70
     Davidson diagonalization with overlap
     ethr =  6.74E-10,  avg # of iterations =  1.8

     total cpu time spent up to now is        1.1 secs

     End of self-consistent calculation

          k = 0.0000 0.0000 0.0000 (   113 PWs)   bands (ev):

     3.3862   8.8343   8.8343   8.8343   9.5353   9.5353  35.9430  37.8984
    37.8984  37.8984

          k =-0.2500 0.2500-0.2500 (   123 PWs)   bands (ev):

     5.4128   8.1327   8.6685   8.6685   9.3726   9.3726  25.2797  35.7331
    35.8473  35.8473

          k = 0.5000-0.5000 0.5000 (   120 PWs)   bands (ev):

     6.8826   8.2358   8.2358  10.0272  10.0272  11.7303  16.3573  34.2498
    34.6169  34.6169

          k = 0.0000 0.5000 0.0000 (   125 PWs)   bands (ev):

     5.9987   7.5774   8.8275   9.0187   9.0187   9.4769  29.9474  29.9474
    31.6696  32.6624

          k = 0.7500-0.2500 0.7500 (   119 PWs)   bands (ev):

     7.1877   7.8409   8.7801   8.9689  10.1626  13.4457  19.4280  25.4348
    28.8863  32.8754

          k = 0.5000 0.0000 0.5000 (   125 PWs)   bands (ev):

     7.4234   7.7995   8.0787   8.7036   9.2983  11.9154  22.4553  23.5615
    33.4118  34.7766

          k = 0.0000-1.0000 0.0000 (   116 PWs)   bands (ev):

     6.7488   6.8669  10.1310  10.3866  10.3866  14.2320  19.8547  25.7704
    25.7704  30.9637

          k =-0.5000-1.0000 0.0000 (   116 PWs)   bands (ev):

     7.4745   8.0799   8.0799   9.4975  10.5132  18.9314  18.9314  21.1808
    21.3853  42.1841

     the Fermi energy is    13.2791 ev

!    total energy              =    -122.04756604 Ry
     Harris-Foulkes estimate   =    -122.04756604 Ry
     estimated scf accuracy    <          9.5E-10 Ry

     The total energy is the sum of the following terms:

     one-electron contribution =     -25.77725094 Ry
     hartree contribution      =      29.08142377 Ry
     xc contribution           =     -44.12603789 Ry
     ewald contribution        =     -81.22522858 Ry
     smearing contrib. (-TS)   =      -0.00047239 Ry

     convergence has been achieved in   9 iterations

     Forces acting on atoms (cartesian axes, Ry/au):

     atom    1 type  1   force =     0.00000000    0.00000000    0.00000000

     Total force =     0.000000     Total SCF correction =     0.000000


     Computing stress (Cartesian axis) and pressure

          total   stress  (Ry/bohr**3)                   (kbar)     P=-5424.45
  -0.03687468   0.00000000   0.00000000      -5424.45      0.00      0.00
   0.00000000  -0.03687468  -0.00000000          0.00  -5424.45     -0.00
   0.00000000  -0.00000000  -0.03687468          0.00     -0.00  -5424.45


     Writing output data file Cu.save/

     init_run     :      0.08s CPU      0.09s WALL (       1 calls)
     electrons    :      0.22s CPU      0.26s WALL (       1 calls)
     forces       :      0.01s CPU      0.01s WALL (       1 calls)
     stress       :      0.01s CPU      0.02s WALL (       1 calls)

     Called by init_run:
     wfcinit      :      0.01s CPU      0.01s WALL (       1 calls)
     potinit      :      0.00s CPU      0.00s WALL (       1 calls)
     hinit0       :      0.07s CPU      0.07s WALL (       1 calls)

     Called by electrons:
     c_bands      :      0.17s CPU      0.20s WALL (       9 calls)
     sum_band     :      0.03s CPU      0.04s WALL (       9 calls)
     v_of_rho     :      0.01s CPU      0.01s WALL (      10 calls)
     newd         :      0.01s CPU      0.01s WALL (      10 calls)
     mix_rho      :      0.00s CPU      0.00s WALL (       9 calls)

     Called by c_bands:
     init_us_2    :      0.00s CPU      0.00s WALL (     168 calls)
     cegterg      :      0.16s CPU      0.19s WALL (      72 calls)

     Called by sum_band:
     sum_band:bec :      0.00s CPU      0.00s WALL (      72 calls)
     addusdens    :      0.01s CPU      0.01s WALL (       9 calls)

     Called by *egterg:
     h_psi        :      0.10s CPU      0.12s WALL (     243 calls)
     s_psi        :      0.00s CPU      0.00s WALL (     243 calls)
     g_psi        :      0.00s CPU      0.00s WALL (     163 calls)
     cdiaghg      :      0.04s CPU      0.05s WALL (     235 calls)

     Called by h_psi:
     h_psi:pot    :      0.10s CPU      0.12s WALL (     243 calls)
     h_psi:calbec :      0.01s CPU      0.01s WALL (     243 calls)
     vloc_psi     :      0.09s CPU      0.11s WALL (     243 calls)
     add_vuspsi   :      0.00s CPU      0.00s WALL (     243 calls)

     General routines
     calbec       :      0.01s CPU      0.01s WALL (     355 calls)
     fft          :      0.01s CPU      0.01s WALL (     136 calls)
     ffts         :      0.00s CPU      0.00s WALL (       9 calls)
     fftw         :      0.10s CPU      0.11s WALL (    4300 calls)

     Parallel routines
     fft_scatt_xy :      0.01s CPU      0.01s WALL (    4445 calls)
     fft_scatt_yz :      0.04s CPU      0.05s WALL (    4445 calls)

     PWSCF        :     1.07s CPU         1.16s WALL


   This run was terminated on:  23:12:56  25Mar2024            

=------------------------------------------------------------------------------=
   JOB DONE.
=------------------------------------------------------------------------------=
