
     Program PWSCF v.6.3MaX starts on 25Mar2024 at 23:23:58 

     This program is part of the open-source Quantum ESPRESSO suite
     for quantum simulation of materials; please cite
         "P. Giannozzi et al., J. Phys.:Condens. Matter 21 395502 (2009);
         "P. Giannozzi et al., J. Phys.:Condens. Matter 29 465901 (2017);
          URL http://www.quantum-espresso.org", 
     in publications or presentations arising from this work. More details at
     http://www.quantum-espresso.org/quote

     Parallel version (MPI), running on     5 processors

     MPI processes distributed on     1 nodes
     R & G space division:  proc/nbgrp/npool/nimage =       5
     Waiting for input...
     Reading input from standard input

     Current dimensions of program PWSCF are:
     Max number of different atomic species (ntypx) = 10
     Max number of k-points (npk) =  40000
     Max angular momentum in pseudopotentials (lmaxx) =  3
               file Cu.pbe-dn-kjpaw_psl.1.0.0.UPF: wavefunction(s)  4S 3D renormalized

     Subspace diagonalization in iterative solution of the eigenvalue problem:
     a serial algorithm will be used


     Parallelization info
     --------------------
     sticks:   dense  smooth     PW     G-vecs:    dense   smooth      PW
     Min          62      62     21                  765      765     140
     Max          63      63     22                  770      770     141
     Sum         313     313    109                 3839     3839     701



     bravais-lattice index     =            2
     lattice parameter (alat)  =       6.8300  a.u.
     unit-cell volume          =      79.6530 (a.u.)^3
     number of atoms/cell      =            1
     number of atomic types    =            1
     number of electrons       =        11.00
     number of Kohn-Sham states=           10
     kinetic-energy cutoff     =      50.0000  Ry
     charge density cutoff     =     200.0000  Ry
     convergence threshold     =      1.0E-08
     mixing beta               =       0.7000
     number of iterations used =            8  plain     mixing
     Exchange-correlation      = SLA PW PBX PBC ( 1  4  3  4 0 0)

     celldm(1)=   6.830000  celldm(2)=   0.000000  celldm(3)=   0.000000
     celldm(4)=   0.000000  celldm(5)=   0.000000  celldm(6)=   0.000000

     crystal axes: (cart. coord. in units of alat)
               a(1) = (  -0.500000   0.000000   0.500000 )  
               a(2) = (   0.000000   0.500000   0.500000 )  
               a(3) = (  -0.500000   0.500000   0.000000 )  

     reciprocal axes: (cart. coord. in units 2 pi/alat)
               b(1) = ( -1.000000 -1.000000  1.000000 )  
               b(2) = (  1.000000  1.000000  1.000000 )  
               b(3) = ( -1.000000  1.000000 -1.000000 )  


     PseudoPot. # 1 for Cu read from file:
     /home/lorenzo/pseudos/Cu/Cu.pbe-dn-kjpaw_psl.1.0.0.UPF
     MD5 check sum: cfffd1f38ee05704b3e17f46f1730a6f
     Pseudo is Projector augmented-wave + core cor, Zval = 11.0
     Generated using "atomic" code by A. Dal Corso v.6.3
     Shape of augmentation charge: PSQ
     Using radial grid of 1199 points,  6 beta functions with: 
                l(1) =   0
                l(2) =   0
                l(3) =   1
                l(4) =   1
                l(5) =   2
                l(6) =   2
     Q(r) pseudized with 0 coefficients 


     atomic species   valence    mass     pseudopotential
        Cu            11.00    63.54600     Cu( 1.00)

     48 Sym. Ops., with inversion, found



   Cartesian axes

     site n.     atom                  positions (alat units)
         1           Cu  tau(   1) = (   0.0000000   0.0000000   0.0000000  )

     number of k points=     3  gaussian smearing, width (Ry)=  0.0100
                       cart. coord. in units 2pi/alat
        k(    1) = (   0.0000000   0.0000000   0.0000000), wk =   0.2500000
        k(    2) = (   0.5000000  -0.5000000   0.5000000), wk =   1.0000000
        k(    3) = (   0.0000000  -1.0000000   0.0000000), wk =   0.7500000

     Dense  grid:     3839 G-vectors     FFT dimensions: (  24,  24,  24)

     Estimated max dynamical RAM per process >       4.20 MB

     Estimated total dynamical RAM >      20.99 MB

     Check: negative/imaginary core charge=   -0.000002    0.000000

     Initial potential from superposition of free atoms

     starting charge   10.99977, renormalised to   11.00000
     Starting wfcs are    9 randomized atomic wfcs +    1 random wfcs
     Checking if some PAW data can be deallocated... 

     total cpu time spent up to now is        1.0 secs

     Self-consistent Calculation

     iteration #  1     ecut=    50.00 Ry     beta= 0.70
     Davidson diagonalization with overlap
     ethr =  1.00E-02,  avg # of iterations =  3.3

     Threshold (ethr) on eigenvalues was too large:
     Diagonalizing with lowered threshold

     Davidson diagonalization with overlap
     ethr =  5.58E-04,  avg # of iterations =  1.0

     total cpu time spent up to now is        1.2 secs

     total energy              =    -212.91038192 Ry
     Harris-Foulkes estimate   =    -212.95658245 Ry
     estimated scf accuracy    <       0.06163028 Ry

     iteration #  2     ecut=    50.00 Ry     beta= 0.70
     Davidson diagonalization with overlap
     ethr =  5.60E-04,  avg # of iterations =  2.7

     total cpu time spent up to now is        1.3 secs

     total energy              =    -212.92022607 Ry
     Harris-Foulkes estimate   =    -213.01135346 Ry
     estimated scf accuracy    <       0.24346329 Ry

     iteration #  3     ecut=    50.00 Ry     beta= 0.70
     Davidson diagonalization with overlap
     ethr =  5.60E-04,  avg # of iterations =  2.7

     total cpu time spent up to now is        1.4 secs

     total energy              =    -212.94394579 Ry
     Harris-Foulkes estimate   =    -212.94819093 Ry
     estimated scf accuracy    <       0.01162171 Ry

     iteration #  4     ecut=    50.00 Ry     beta= 0.70
     Davidson diagonalization with overlap
     ethr =  1.06E-04,  avg # of iterations =  1.7

     total cpu time spent up to now is        1.6 secs

     total energy              =    -212.94382746 Ry
     Harris-Foulkes estimate   =    -212.94719088 Ry
     estimated scf accuracy    <       0.01665962 Ry

     iteration #  5     ecut=    50.00 Ry     beta= 0.70
     Davidson diagonalization with overlap
     ethr =  1.06E-04,  avg # of iterations =  1.0

     total cpu time spent up to now is        1.7 secs

     total energy              =    -212.94617426 Ry
     Harris-Foulkes estimate   =    -212.94672096 Ry
     estimated scf accuracy    <       0.00546920 Ry

     iteration #  6     ecut=    50.00 Ry     beta= 0.70
     Davidson diagonalization with overlap
     ethr =  4.97E-05,  avg # of iterations =  1.0

     total cpu time spent up to now is        1.9 secs

     total energy              =    -212.94604643 Ry
     Harris-Foulkes estimate   =    -212.94627054 Ry
     estimated scf accuracy    <       0.00164979 Ry

     iteration #  7     ecut=    50.00 Ry     beta= 0.70
     Davidson diagonalization with overlap
     ethr =  1.50E-05,  avg # of iterations =  1.0

     total cpu time spent up to now is        2.0 secs

     total energy              =    -212.94615984 Ry
     Harris-Foulkes estimate   =    -212.94616122 Ry
     estimated scf accuracy    <       0.00002153 Ry

     iteration #  8     ecut=    50.00 Ry     beta= 0.70
     Davidson diagonalization with overlap
     ethr =  1.96E-07,  avg # of iterations =  1.0

     total cpu time spent up to now is        2.1 secs

     total energy              =    -212.94616045 Ry
     Harris-Foulkes estimate   =    -212.94616059 Ry
     estimated scf accuracy    <       0.00000397 Ry

     iteration #  9     ecut=    50.00 Ry     beta= 0.70
     Davidson diagonalization with overlap
     ethr =  3.61E-08,  avg # of iterations =  1.7

     total cpu time spent up to now is        2.3 secs

     total energy              =    -212.94616029 Ry
     Harris-Foulkes estimate   =    -212.94616061 Ry
     estimated scf accuracy    <       0.00000203 Ry

     iteration # 10     ecut=    50.00 Ry     beta= 0.70
     Davidson diagonalization with overlap
     ethr =  1.84E-08,  avg # of iterations =  1.0

     total cpu time spent up to now is        2.4 secs

     total energy              =    -212.94616050 Ry
     Harris-Foulkes estimate   =    -212.94616052 Ry
     estimated scf accuracy    <       0.00000044 Ry

     iteration # 11     ecut=    50.00 Ry     beta= 0.70
     Davidson diagonalization with overlap
     ethr =  3.99E-09,  avg # of iterations =  1.3

     total cpu time spent up to now is        2.5 secs

     total energy              =    -212.94616051 Ry
     Harris-Foulkes estimate   =    -212.94616051 Ry
     estimated scf accuracy    <       0.00000017 Ry

     iteration # 12     ecut=    50.00 Ry     beta= 0.70
     Davidson diagonalization with overlap
     ethr =  1.54E-09,  avg # of iterations =  1.0

     total cpu time spent up to now is        2.7 secs

     total energy              =    -212.94616049 Ry
     Harris-Foulkes estimate   =    -212.94616051 Ry
     estimated scf accuracy    <       0.00000019 Ry

     iteration # 13     ecut=    50.00 Ry     beta= 0.70
     Davidson diagonalization with overlap
     ethr =  1.54E-09,  avg # of iterations =  1.0

     total cpu time spent up to now is        2.8 secs

     End of self-consistent calculation

          k = 0.0000 0.0000 0.0000 (   531 PWs)   bands (ev):

     3.2771   9.9733   9.9733   9.9733  10.8469  10.8469  35.5606  38.0218
    38.0218  38.0218

          k = 0.5000-0.5000 0.5000 (   476 PWs)   bands (ev):

     7.7677   9.9470   9.9470  11.4268  11.4268  11.6349  16.6062  33.9664
    34.8028  34.8028

          k = 0.0000-1.0000 0.0000 (   468 PWs)   bands (ev):

     8.0162   8.5152  11.4184  11.5678  11.5678  14.1476  19.9247  25.7910
    25.7910  30.3717

     the Fermi energy is    11.7258 ev

!    total energy              =    -212.94616050 Ry
     Harris-Foulkes estimate   =    -212.94616050 Ry
     estimated scf accuracy    <          2.2E-10 Ry

     total all-electron energy =     -3309.825927 Ry

     The total energy is the sum of the following terms:

     one-electron contribution =     -28.02159889 Ry
     hartree contribution      =      30.82966358 Ry
     xc contribution           =     -44.68993431 Ry
     ewald contribution        =     -81.22522859 Ry
     one-center paw contrib.   =     -89.83610210 Ry
     smearing contrib. (-TS)   =      -0.00296018 Ry

     convergence has been achieved in  13 iterations

     Forces acting on atoms (cartesian axes, Ry/au):

     atom    1 type  1   force =     0.00000000    0.00000000    0.00000000

     Total force =     0.000000     Total SCF correction =     0.000000


     Computing stress (Cartesian axis) and pressure

          total   stress  (Ry/bohr**3)                   (kbar)     P=  254.54
   0.00173032   0.00000000  -0.00000000        254.54      0.00     -0.00
   0.00000000   0.00173032   0.00000000          0.00    254.54      0.00
  -0.00000000   0.00000000   0.00173032         -0.00      0.00    254.54


     Writing output data file Cu.save/

     init_run     :      0.25s CPU      0.27s WALL (       1 calls)
     electrons    :      1.59s CPU      1.78s WALL (       1 calls)
     forces       :      0.01s CPU      0.01s WALL (       1 calls)
     stress       :      0.04s CPU      0.04s WALL (       1 calls)

     Called by init_run:
     wfcinit      :      0.01s CPU      0.01s WALL (       1 calls)
     potinit      :      0.10s CPU      0.11s WALL (       1 calls)
     hinit0       :      0.13s CPU      0.13s WALL (       1 calls)

     Called by electrons:
     c_bands      :      0.17s CPU      0.19s WALL (      14 calls)
     sum_band     :      0.10s CPU      0.11s WALL (      14 calls)
     v_of_rho     :      0.04s CPU      0.04s WALL (      14 calls)
     newd         :      0.05s CPU      0.05s WALL (      14 calls)
     PAW_pot      :      1.32s CPU      1.49s WALL (      14 calls)
     mix_rho      :      0.01s CPU      0.01s WALL (      14 calls)

     Called by c_bands:
     init_us_2    :      0.01s CPU      0.01s WALL (      93 calls)
     cegterg      :      0.16s CPU      0.18s WALL (      42 calls)

     Called by sum_band:
     sum_band:bec :      0.00s CPU      0.00s WALL (      42 calls)
     addusdens    :      0.05s CPU      0.05s WALL (      14 calls)

     Called by *egterg:
     h_psi        :      0.12s CPU      0.14s WALL (     109 calls)
     s_psi        :      0.00s CPU      0.00s WALL (     109 calls)
     g_psi        :      0.00s CPU      0.00s WALL (      64 calls)
     cdiaghg      :      0.02s CPU      0.02s WALL (     103 calls)

     Called by h_psi:
     h_psi:pot    :      0.12s CPU      0.14s WALL (     109 calls)
     h_psi:calbec :      0.01s CPU      0.01s WALL (     109 calls)
     vloc_psi     :      0.11s CPU      0.13s WALL (     109 calls)
     add_vuspsi   :      0.00s CPU      0.00s WALL (     109 calls)

     General routines
     calbec       :      0.01s CPU      0.01s WALL (     166 calls)
     fft          :      0.02s CPU      0.02s WALL (     181 calls)
     ffts         :      0.00s CPU      0.00s WALL (      14 calls)
     fftw         :      0.13s CPU      0.14s WALL (    2296 calls)

     Parallel routines
     fft_scatt_xy :      0.01s CPU      0.02s WALL (    2491 calls)
     fft_scatt_yz :      0.04s CPU      0.05s WALL (    2491 calls)

     PWSCF        :     2.65s CPU         2.89s WALL


   This run was terminated on:  23:24: 1  25Mar2024            

=------------------------------------------------------------------------------=
   JOB DONE.
=------------------------------------------------------------------------------=
