
     Program PWSCF v.6.3MaX starts on 25Mar2024 at 23:12:25 

     This program is part of the open-source Quantum ESPRESSO suite
     for quantum simulation of materials; please cite
         "P. Giannozzi et al., J. Phys.:Condens. Matter 21 395502 (2009);
         "P. Giannozzi et al., J. Phys.:Condens. Matter 29 465901 (2017);
          URL http://www.quantum-espresso.org", 
     in publications or presentations arising from this work. More details at
     http://www.quantum-espresso.org/quote

     Parallel version (MPI), running on     5 processors

     MPI processes distributed on     1 nodes
     R & G space division:  proc/nbgrp/npool/nimage =       5
     Waiting for input...
     Reading input from standard input

     Current dimensions of program PWSCF are:
     Max number of different atomic species (ntypx) = 10
     Max number of k-points (npk) =  40000
     Max angular momentum in pseudopotentials (lmaxx) =  3
               file Cu.pbesol-dn-rrkjus_psl.1.0.0.UPF: wavefunction(s)  3D renormalized

     Subspace diagonalization in iterative solution of the eigenvalue problem:
     a serial algorithm will be used


     Parallelization info
     --------------------
     sticks:   dense  smooth     PW     G-vecs:    dense   smooth      PW
     Min          24      24     11                  187      187      51
     Max          25      25     11                  191      191      52
     Sum         121     121     55                  941      941     259



     bravais-lattice index     =            2
     lattice parameter (alat)  =       6.8300  a.u.
     unit-cell volume          =      79.6530 (a.u.)^3
     number of atoms/cell      =            1
     number of atomic types    =            1
     number of electrons       =        11.00
     number of Kohn-Sham states=           10
     kinetic-energy cutoff     =      20.0000  Ry
     charge density cutoff     =      80.0000  Ry
     convergence threshold     =      1.0E-08
     mixing beta               =       0.7000
     number of iterations used =            8  plain     mixing
     Exchange-correlation      = PBESOL ( 1  4 10  8 0 0)

     celldm(1)=   6.830000  celldm(2)=   0.000000  celldm(3)=   0.000000
     celldm(4)=   0.000000  celldm(5)=   0.000000  celldm(6)=   0.000000

     crystal axes: (cart. coord. in units of alat)
               a(1) = (  -0.500000   0.000000   0.500000 )  
               a(2) = (   0.000000   0.500000   0.500000 )  
               a(3) = (  -0.500000   0.500000   0.000000 )  

     reciprocal axes: (cart. coord. in units 2 pi/alat)
               b(1) = ( -1.000000 -1.000000  1.000000 )  
               b(2) = (  1.000000  1.000000  1.000000 )  
               b(3) = ( -1.000000  1.000000 -1.000000 )  


     PseudoPot. # 1 for Cu read from file:
     /home/lorenzo/pseudos/Cu/Cu.pbesol-dn-rrkjus_psl.1.0.0.UPF
     MD5 check sum: bfa4c7aafbc42e028d5f4ccf7ceed93d
     Pseudo is Ultrasoft + core correction, Zval = 11.0
     Generated using "atomic" code by A. Dal Corso v.6.3
     Using radial grid of 1199 points,  6 beta functions with: 
                l(1) =   0
                l(2) =   0
                l(3) =   1
                l(4) =   1
                l(5) =   2
                l(6) =   2
     Q(r) pseudized with 0 coefficients 


     atomic species   valence    mass     pseudopotential
        Cu            11.00    63.54600     Cu( 1.00)

     48 Sym. Ops., with inversion, found



   Cartesian axes

     site n.     atom                  positions (alat units)
         1           Cu  tau(   1) = (   0.0000000   0.0000000   0.0000000  )

     number of k points=    56  gaussian smearing, width (Ry)=  0.0100
                       cart. coord. in units 2pi/alat
        k(    1) = (   0.0000000   0.0000000   0.0000000), wk =   0.0015026
        k(    2) = (  -0.0909091   0.0909091  -0.0909091), wk =   0.0120210
        k(    3) = (  -0.1818182   0.1818182  -0.1818182), wk =   0.0120210
        k(    4) = (  -0.2727273   0.2727273  -0.2727273), wk =   0.0120210
        k(    5) = (  -0.3636364   0.3636364  -0.3636364), wk =   0.0120210
        k(    6) = (  -0.4545455   0.4545455  -0.4545455), wk =   0.0120210
        k(    7) = (   0.0000000   0.1818182   0.0000000), wk =   0.0090158
        k(    8) = (  -0.0909091   0.2727273  -0.0909091), wk =   0.0360631
        k(    9) = (  -0.1818182   0.3636364  -0.1818182), wk =   0.0360631
        k(   10) = (  -0.2727273   0.4545455  -0.2727273), wk =   0.0360631
        k(   11) = (  -0.3636364   0.5454545  -0.3636364), wk =   0.0360631
        k(   12) = (   0.5454545  -0.3636364   0.5454545), wk =   0.0360631
        k(   13) = (   0.4545455  -0.2727273   0.4545455), wk =   0.0360631
        k(   14) = (   0.3636364  -0.1818182   0.3636364), wk =   0.0360631
        k(   15) = (   0.2727273  -0.0909091   0.2727273), wk =   0.0360631
        k(   16) = (   0.1818182  -0.0000000   0.1818182), wk =   0.0180316
        k(   17) = (   0.0000000   0.3636364   0.0000000), wk =   0.0090158
        k(   18) = (  -0.0909091   0.4545455  -0.0909091), wk =   0.0360631
        k(   19) = (  -0.1818182   0.5454545  -0.1818182), wk =   0.0360631
        k(   20) = (  -0.2727273   0.6363636  -0.2727273), wk =   0.0360631
        k(   21) = (   0.6363636  -0.2727273   0.6363636), wk =   0.0360631
        k(   22) = (   0.5454545  -0.1818182   0.5454545), wk =   0.0360631
        k(   23) = (   0.4545455  -0.0909091   0.4545455), wk =   0.0360631
        k(   24) = (   0.3636364   0.0000000   0.3636364), wk =   0.0180316
        k(   25) = (   0.0000000   0.5454545   0.0000000), wk =   0.0090158
        k(   26) = (  -0.0909091   0.6363636  -0.0909091), wk =   0.0360631
        k(   27) = (  -0.1818182   0.7272727  -0.1818182), wk =   0.0360631
        k(   28) = (   0.7272727  -0.1818182   0.7272727), wk =   0.0360631
        k(   29) = (   0.6363636  -0.0909091   0.6363636), wk =   0.0360631
        k(   30) = (   0.5454545   0.0000000   0.5454545), wk =   0.0180316
        k(   31) = (   0.0000000   0.7272727   0.0000000), wk =   0.0090158
        k(   32) = (  -0.0909091   0.8181818  -0.0909091), wk =   0.0360631
        k(   33) = (   0.8181818  -0.0909091   0.8181818), wk =   0.0360631
        k(   34) = (   0.7272727   0.0000000   0.7272727), wk =   0.0180316
        k(   35) = (   0.0000000   0.9090909   0.0000000), wk =   0.0090158
        k(   36) = (   0.9090909  -0.0000000   0.9090909), wk =   0.0180316
        k(   37) = (  -0.1818182   0.3636364   0.0000000), wk =   0.0360631
        k(   38) = (  -0.2727273   0.4545455  -0.0909091), wk =   0.0721262
        k(   39) = (  -0.3636364   0.5454545  -0.1818182), wk =   0.0721262
        k(   40) = (   0.5454545  -0.3636364   0.7272727), wk =   0.0721262
        k(   41) = (  -0.1818182   0.5454545   0.0000000), wk =   0.0360631
        k(   42) = (  -0.2727273   0.6363636  -0.0909091), wk =   0.0721262
        k(   43) = (   0.6363636  -0.2727273   0.8181818), wk =   0.0721262
        k(   44) = (   0.5454545  -0.1818182   0.7272727), wk =   0.0721262
        k(   45) = (   0.4545455  -0.0909091   0.6363636), wk =   0.0721262
        k(   46) = (   0.3636364   0.0000000   0.5454545), wk =   0.0360631
        k(   47) = (  -0.1818182   0.7272727   0.0000000), wk =   0.0360631
        k(   48) = (   0.7272727  -0.1818182   0.9090909), wk =   0.0721262
        k(   49) = (   0.6363636  -0.0909091   0.8181818), wk =   0.0721262
        k(   50) = (   0.5454545   0.0000000   0.7272727), wk =   0.0360631
        k(   51) = (   0.8181818  -0.0909091   1.0000000), wk =   0.0360631
        k(   52) = (   0.7272727   0.0000000   0.9090909), wk =   0.0360631
        k(   53) = (   0.6363636  -0.2727273   1.0000000), wk =   0.0360631
        k(   54) = (   0.5454545  -0.1818182   0.9090909), wk =   0.0721262
        k(   55) = (   0.6363636  -0.0909091   1.0000000), wk =   0.0360631
        k(   56) = (   0.5454545   0.0000000   0.9090909), wk =   0.0360631

     Dense  grid:      941 G-vectors     FFT dimensions: (  15,  15,  15)

     Estimated max dynamical RAM per process >       1.70 MB

     Estimated total dynamical RAM >       8.49 MB

     Check: negative/imaginary core charge=   -0.000088    0.000000

     Initial potential from superposition of free atoms

     starting charge   10.99979, renormalised to   11.00000
     Starting wfcs are    9 randomized atomic wfcs +    1 random wfcs

     total cpu time spent up to now is        1.0 secs

     Self-consistent Calculation

     iteration #  1     ecut=    20.00 Ry     beta= 0.70
     Davidson diagonalization with overlap
     ethr =  1.00E-02,  avg # of iterations =  3.7

     total cpu time spent up to now is        1.2 secs

     total energy              =    -121.30640789 Ry
     Harris-Foulkes estimate   =    -121.89094698 Ry
     estimated scf accuracy    <       0.70452024 Ry

     iteration #  2     ecut=    20.00 Ry     beta= 0.70
     Davidson diagonalization with overlap
     ethr =  6.40E-03,  avg # of iterations =  2.0

     total cpu time spent up to now is        1.4 secs

     total energy              =    -121.58706774 Ry
     Harris-Foulkes estimate   =    -122.04780600 Ry
     estimated scf accuracy    <       0.95777997 Ry

     iteration #  3     ecut=    20.00 Ry     beta= 0.70
     Davidson diagonalization with overlap
     ethr =  6.40E-03,  avg # of iterations =  1.4

     total cpu time spent up to now is        1.5 secs

     total energy              =    -121.69924543 Ry
     Harris-Foulkes estimate   =    -121.71767765 Ry
     estimated scf accuracy    <       0.02559925 Ry

     iteration #  4     ecut=    20.00 Ry     beta= 0.70
     Davidson diagonalization with overlap
     ethr =  2.33E-04,  avg # of iterations =  2.1

     total cpu time spent up to now is        1.7 secs

     total energy              =    -121.70492842 Ry
     Harris-Foulkes estimate   =    -121.72701132 Ry
     estimated scf accuracy    <       0.05710471 Ry

     iteration #  5     ecut=    20.00 Ry     beta= 0.70
     Davidson diagonalization with overlap
     ethr =  2.33E-04,  avg # of iterations =  1.7

     total cpu time spent up to now is        1.8 secs

     total energy              =    -121.71306061 Ry
     Harris-Foulkes estimate   =    -121.71299855 Ry
     estimated scf accuracy    <       0.00062850 Ry

     iteration #  6     ecut=    20.00 Ry     beta= 0.70
     Davidson diagonalization with overlap
     ethr =  5.71E-06,  avg # of iterations =  2.1

     total cpu time spent up to now is        2.0 secs

     total energy              =    -121.71274944 Ry
     Harris-Foulkes estimate   =    -121.71310317 Ry
     estimated scf accuracy    <       0.00080659 Ry

     iteration #  7     ecut=    20.00 Ry     beta= 0.70
     Davidson diagonalization with overlap
     ethr =  5.71E-06,  avg # of iterations =  1.3

     total cpu time spent up to now is        2.1 secs

     total energy              =    -121.71289493 Ry
     Harris-Foulkes estimate   =    -121.71289484 Ry
     estimated scf accuracy    <       0.00000006 Ry

     iteration #  8     ecut=    20.00 Ry     beta= 0.70
     Davidson diagonalization with overlap
     ethr =  5.29E-10,  avg # of iterations =  3.9

     total cpu time spent up to now is        2.3 secs

     total energy              =    -121.71289693 Ry
     Harris-Foulkes estimate   =    -121.71289704 Ry
     estimated scf accuracy    <       0.00000042 Ry

     iteration #  9     ecut=    20.00 Ry     beta= 0.70
     Davidson diagonalization with overlap
     ethr =  5.29E-10,  avg # of iterations =  2.0

     total cpu time spent up to now is        2.5 secs

     total energy              =    -121.71289691 Ry
     Harris-Foulkes estimate   =    -121.71289695 Ry
     estimated scf accuracy    <       0.00000008 Ry

     iteration # 10     ecut=    20.00 Ry     beta= 0.70
     Davidson diagonalization with overlap
     ethr =  5.29E-10,  avg # of iterations =  2.0

     total cpu time spent up to now is        2.6 secs

     End of self-consistent calculation

          k = 0.0000 0.0000 0.0000 (   113 PWs)   bands (ev):

     3.1405   8.6499   8.6499   8.6499   9.3541   9.3541  35.7097  37.6438
    37.6438  37.6438

          k =-0.0909 0.0909-0.0909 (   122 PWs)   bands (ev):

     3.4376   8.1657   8.3020   8.3020   9.1156   9.1156  33.5495  36.2398
    37.1393  37.1393

          k =-0.1818 0.1818-0.1818 (   122 PWs)   bands (ev):

     4.2897   8.0584   8.4192   8.4192   9.1025   9.1025  28.6627  35.9806
    36.2219  36.2219

          k =-0.2727 0.2727-0.2727 (   126 PWs)   bands (ev):

     5.4599   7.9832   8.4617   8.4617   9.0114   9.0114  23.8751  35.3129
    35.3914  35.3914

          k =-0.3636 0.3636-0.3636 (   117 PWs)   bands (ev):

     6.4449   8.4404   8.4404   9.2970   9.6743   9.6743  19.9569  34.5823
    34.7692  34.7692

          k =-0.4545 0.4545-0.4545 (   120 PWs)   bands (ev):

     6.6670   8.0610   8.0610   9.8349   9.8349  11.0459  16.7412  34.0913
    34.3925  34.3925

          k = 0.0000 0.1818 0.0000 (   125 PWs)   bands (ev):

     3.5363   7.9807   8.2194   8.2194   8.9629   9.0804  34.8194  35.2645
    35.2645  36.4170

          k =-0.0909 0.2727-0.0909 (   123 PWs)   bands (ev):

     4.2038   7.8806   8.3543   8.4675   9.0193   9.1833  30.4492  33.8023
    34.7986  37.8585

          k =-0.1818 0.3636-0.1818 (   127 PWs)   bands (ev):

     5.3004   7.6999   8.1985   8.3743   9.0322   9.3044  25.5844  32.7782
    34.1666  36.7056

          k =-0.2727 0.4545-0.2727 (   125 PWs)   bands (ev):

     6.3341   8.0329   8.1657   8.2905   9.6386   9.7537  21.2964  32.3021
    33.5537  34.4907

          k =-0.3636 0.5455-0.3636 (   121 PWs)   bands (ev):

     6.7632   7.7753   8.3800   9.0499   9.8801  11.2362  17.7410  32.1984
    32.4692  33.8181

          k = 0.5455-0.3636 0.5455 (   118 PWs)   bands (ev):

     6.8145   7.9312   8.3954   9.4511   9.8929  12.2539  16.2815  31.1241
    33.2692  33.9725

          k = 0.4545-0.2727 0.4545 (   121 PWs)   bands (ev):

     6.7215   8.0791   8.2121   9.0106   9.4423  10.8353  18.8833  30.5983
    34.7074  34.7207

          k = 0.3636-0.1818 0.3636 (   125 PWs)   bands (ev):

     6.0590   7.9930   8.2280   8.2983   9.1357   9.8184  22.6733  30.6371
    36.0007  36.8153

          k = 0.2727-0.0909 0.2727 (   126 PWs)   bands (ev):

     4.9057   7.7150   8.2883   8.3585   9.0094   9.2716  27.1543  31.1607
    37.4747  38.7395

          k = 0.1818-0.0000 0.1818 (   123 PWs)   bands (ev):

     3.9214   7.9434   8.2481   8.4696   8.9968   9.2135  31.9034  32.3917
    37.4473  38.8034

          k = 0.0000 0.3636 0.0000 (   129 PWs)   bands (ev):

     4.6531   7.6577   8.2847   8.4058   8.4058   9.1712  31.8908  31.8908
    33.3320  34.2957

          k =-0.0909 0.4545-0.0909 (   128 PWs)   bands (ev):

     5.5467   7.4178   8.1398   8.6036   8.9556   9.3064  27.6845  30.6083
    32.7325  33.7365

          k =-0.1818 0.5455-0.1818 (   120 PWs)   bands (ev):

     6.5402   7.5850   8.2580   8.7579   9.8924  10.1859  23.3066  29.9777
    30.6684  33.2230

          k =-0.2727 0.6364-0.2727 (   117 PWs)   bands (ev):

     7.0041   7.8898   8.4973   8.6678  10.0849  11.8099  19.4262  28.6757
    30.0206  33.1382

          k = 0.6364-0.2727 0.6364 (   123 PWs)   bands (ev):

     6.9819   7.6601   8.3180   8.6035   9.8052  13.6772  16.4748  27.1400
    30.7578  33.2187

          k = 0.5455-0.1818 0.5455 (   124 PWs)   bands (ev):

     7.0821   7.6381   8.3195   8.5758   9.3459  12.5444  18.2371  26.2530
    32.2902  33.9241

          k = 0.4545-0.0909 0.4545 (   123 PWs)   bands (ev):

     6.8666   7.7409   8.0574   8.6570   9.0999  11.0292  21.9072  26.0136
    34.5184  35.1916

          k = 0.3636 0.0000 0.3636 (   127 PWs)   bands (ev):

     5.9386   7.4540   8.2148   8.5253   8.7671   9.8773  25.9326  26.6201
    36.9403  37.1364

          k = 0.0000 0.5455 0.0000 (   125 PWs)   bands (ev):

     6.0773   7.3010   8.7599   8.9394   8.9394   9.3353  29.0143  29.0143
    30.0356  32.1689

          k =-0.0909 0.6364-0.0909 (   124 PWs)   bands (ev):

     6.6010   7.0101   8.7735   8.9034   9.7924  10.1368  25.5814  27.4211
    28.0550  32.3048

          k =-0.1818 0.7273-0.1818 (   120 PWs)   bands (ev):

     6.8422   7.2683   8.7250   8.9907  10.1011  12.1372  21.5265  25.2532
    27.9034  32.3709

          k = 0.7273-0.1818 0.7273 (   117 PWs)   bands (ev):

     7.0337   7.6816   8.6586   9.0003  10.0516  14.6375  18.1069  23.6388
    28.5619  32.6167

          k = 0.6364-0.0909 0.6364 (   120 PWs)   bands (ev):

     7.1836   7.8088   8.4257   8.7249   9.5653  14.7775  18.0833  22.5670
    29.9311  33.0723

          k = 0.5455 0.0000 0.5455 (   121 PWs)   bands (ev):

     7.3419   7.9285   8.0009   8.6331   9.2807  12.6145  21.2492  22.4998
    31.9760  33.9627

          k = 0.0000 0.7273 0.0000 (   121 PWs)   bands (ev):

     6.6493   6.7837   9.6289   9.7060   9.7060  10.5943  24.6932  26.8646
    26.8646  31.1730

          k =-0.0909 0.8182-0.0909 (   118 PWs)   bands (ev):

     6.6997   6.8103   9.5775   9.7354  10.1141  12.4605  22.4592  24.1277
    26.4077  31.7506

          k = 0.8182-0.0909 0.8182 (   116 PWs)   bands (ev):

     6.8608   7.1634   9.3871   9.5041  10.1071  14.9200  20.6182  20.9709
    26.8283  32.0999

          k = 0.7273 0.0000 0.7273 (   116 PWs)   bands (ev):

     7.1069   7.6586   8.8749   9.2195   9.7352  17.3140  17.5222  20.5080
    28.0653  32.5513

          k = 0.0000 0.9091 0.0000 (   116 PWs)   bands (ev):

     6.5817   6.6938   9.9494  10.1812  10.1812  13.3217  20.4791  25.6630
    25.6630  30.7669

          k = 0.9091-0.0000 0.9091 (   116 PWs)   bands (ev):

     6.6173   6.7705   9.9013   9.9484  10.1996  14.4717  19.7115  23.5865
    25.8101  31.5073

          k =-0.1818 0.3636 0.0000 (   124 PWs)   bands (ev):

     5.0067   7.7493   8.4123   8.5506   8.9241   9.3136  29.0505  29.4771
    36.1762  36.7035

          k =-0.2727 0.4545-0.0909 (   126 PWs)   bands (ev):

     6.1209   7.5023   7.9411   8.6972   9.0153   9.9988  24.5070  28.4761
    33.6515  36.5568

          k =-0.3636 0.5455-0.1818 (   121 PWs)   bands (ev):

     6.8831   7.8257   8.1653   8.6536   9.5694  11.0849  20.4645  28.3488
    31.5250  35.8463

          k = 0.5455-0.3636 0.7273 (   120 PWs)   bands (ev):

     7.0214   7.7826   8.4252   8.7139   9.8633  12.7954  17.0815  28.8081
    29.9019  35.3692

          k =-0.1818 0.5455 0.0000 (   124 PWs)   bands (ev):

     6.3784   7.2322   8.2822   8.8894   9.1747  10.1208  26.5325  27.0343
    30.4027  35.0578

          k =-0.2727 0.6364-0.0909 (   120 PWs)   bands (ev):

     7.0119   7.4030   8.2007   9.0899   9.6988  11.3382  22.5218  26.4714
    28.0450  35.3409

          k = 0.6364-0.2727 0.8182 (   117 PWs)   bands (ev):

     7.1852   7.7121   8.3576   8.9928  10.0045  13.3959  18.8129  26.2020
    26.8144  35.3215

          k = 0.5455-0.1818 0.7273 (   119 PWs)   bands (ev):

     7.3603   7.5805   8.3301   8.8201   9.8590  14.8222  16.9419  24.8822
    27.7425  35.7207

          k = 0.4545-0.0909 0.6364 (   118 PWs)   bands (ev):

     7.4757   7.7301   8.0871   8.9907   9.5457  12.7681  20.0540  24.2288
    29.2964  36.6947

          k = 0.3636 0.0000 0.5455 (   123 PWs)   bands (ev):

     7.1030   7.4525   7.8169   8.8332   9.2045  11.1380  23.5499  24.4541
    31.2338  37.9932

          k =-0.1818 0.7273 0.0000 (   122 PWs)   bands (ev):

     6.8122   6.9826   8.7868   9.5023   9.6349  11.5520  24.7376  24.9328
    25.2453  33.9490

          k = 0.7273-0.1818 0.9091 (   121 PWs)   bands (ev):

     6.9124   7.1324   8.7115   9.2206  10.0231  13.7510  21.1337  22.9444
    25.1475  34.5333

          k = 0.6364-0.0909 0.8182 (   119 PWs)   bands (ev):

     7.1124   7.6269   8.4763   9.0154   9.8834  16.4768  17.8965  21.6465
    25.9718  34.9906

          k = 0.5455 0.0000 0.7273 (   117 PWs)   bands (ev):

     7.4514   7.8036   8.1663   9.1086   9.7361  14.9552  19.3556  21.4118
    27.3906  35.8602

          k = 0.8182-0.0909 1.0000 (   117 PWs)   bands (ev):

     6.7153   6.8803   9.4460   9.8623  10.1911  14.1834  20.7092  23.6832
    24.3091  33.2774

          k = 0.7273 0.0000 0.9091 (   118 PWs)   bands (ev):

     6.9023   7.1289   9.0897   9.3161  10.2308  15.9959  20.0277  20.6747
    24.7003  34.3030

          k = 0.6364-0.2727 1.0000 (   122 PWs)   bands (ev):

     7.2940   7.3297   8.1349   9.1203   9.5166  13.0926  21.7822  22.9933
    25.8362  38.5634

          k = 0.5455-0.1818 0.9091 (   116 PWs)   bands (ev):

     7.4134   7.7457   8.1792   9.1568  10.0242  15.5268  18.7304  23.1404
    24.2291  38.5301

          k = 0.6364-0.0909 1.0000 (   114 PWs)   bands (ev):

     7.2535   7.5161   8.5401   9.4592  10.3380  16.0101  20.9320  21.4168
    22.2822  38.1650

          k = 0.5455 0.0000 0.9091 (   112 PWs)   bands (ev):

     7.4042   7.9420   8.2243   9.3389  10.4028  18.2514  18.2829  20.8980
    22.7933  39.1348

     the Fermi energy is    12.3579 ev

!    total energy              =    -121.71289693 Ry
     Harris-Foulkes estimate   =    -121.71289693 Ry
     estimated scf accuracy    <          2.1E-09 Ry

     The total energy is the sum of the following terms:

     one-electron contribution =     -25.86535076 Ry
     hartree contribution      =      28.99304168 Ry
     xc contribution           =     -43.61522057 Ry
     ewald contribution        =     -81.22522858 Ry
     smearing contrib. (-TS)   =      -0.00013870 Ry

     convergence has been achieved in  10 iterations

     Forces acting on atoms (cartesian axes, Ry/au):

     atom    1 type  1   force =     0.00000000    0.00000000    0.00000000

     Total force =     0.000000     Total SCF correction =     0.000000


     Computing stress (Cartesian axis) and pressure

          total   stress  (Ry/bohr**3)                   (kbar)     P=-5577.85
  -0.03791749   0.00000000   0.00000000      -5577.85      0.00      0.00
  -0.00000000  -0.03791749   0.00000000         -0.00  -5577.85      0.00
   0.00000000   0.00000000  -0.03791749          0.00      0.00  -5577.85


     Writing output data file Cu.save/

     init_run     :      0.12s CPU      0.13s WALL (       1 calls)
     electrons    :      1.39s CPU      1.63s WALL (       1 calls)
     forces       :      0.01s CPU      0.02s WALL (       1 calls)
     stress       :      0.03s CPU      0.03s WALL (       1 calls)

     Called by init_run:
     wfcinit      :      0.04s CPU      0.05s WALL (       1 calls)
     potinit      :      0.00s CPU      0.00s WALL (       1 calls)
     hinit0       :      0.07s CPU      0.07s WALL (       1 calls)

     Called by electrons:
     c_bands      :      1.19s CPU      1.39s WALL (      10 calls)
     sum_band     :      0.18s CPU      0.21s WALL (      10 calls)
     v_of_rho     :      0.01s CPU      0.01s WALL (      11 calls)
     newd         :      0.01s CPU      0.01s WALL (      11 calls)
     mix_rho      :      0.00s CPU      0.00s WALL (      10 calls)

     Called by c_bands:
     init_us_2    :      0.02s CPU      0.03s WALL (    1288 calls)
     cegterg      :      1.15s CPU      1.34s WALL (     560 calls)

     Called by sum_band:
     sum_band:bec :      0.00s CPU      0.00s WALL (     560 calls)
     addusdens    :      0.01s CPU      0.01s WALL (      10 calls)

     Called by *egterg:
     h_psi        :      0.72s CPU      0.85s WALL (    1858 calls)
     s_psi        :      0.02s CPU      0.03s WALL (    1858 calls)
     g_psi        :      0.00s CPU      0.00s WALL (    1242 calls)
     cdiaghg      :      0.29s CPU      0.33s WALL (    1802 calls)

     Called by h_psi:
     h_psi:pot    :      0.71s CPU      0.85s WALL (    1858 calls)
     h_psi:calbec :      0.04s CPU      0.05s WALL (    1858 calls)
     vloc_psi     :      0.64s CPU      0.76s WALL (    1858 calls)
     add_vuspsi   :      0.02s CPU      0.03s WALL (    1858 calls)

     General routines
     calbec       :      0.06s CPU      0.07s WALL (    2698 calls)
     fft          :      0.00s CPU      0.01s WALL (     147 calls)
     ffts         :      0.00s CPU      0.00s WALL (      10 calls)
     fftw         :      0.69s CPU      0.82s WALL (   33786 calls)

     Parallel routines
     fft_scatt_xy :      0.08s CPU      0.09s WALL (   33943 calls)
     fft_scatt_yz :      0.28s CPU      0.33s WALL (   33943 calls)

     PWSCF        :     2.48s CPU         2.78s WALL


   This run was terminated on:  23:12:28  25Mar2024            

=------------------------------------------------------------------------------=
   JOB DONE.
=------------------------------------------------------------------------------=
