
     Program PWSCF v.6.3MaX starts on 25Mar2024 at 23:10: 9 

     This program is part of the open-source Quantum ESPRESSO suite
     for quantum simulation of materials; please cite
         "P. Giannozzi et al., J. Phys.:Condens. Matter 21 395502 (2009);
         "P. Giannozzi et al., J. Phys.:Condens. Matter 29 465901 (2017);
          URL http://www.quantum-espresso.org", 
     in publications or presentations arising from this work. More details at
     http://www.quantum-espresso.org/quote

     Parallel version (MPI), running on     5 processors

     MPI processes distributed on     1 nodes
     R & G space division:  proc/nbgrp/npool/nimage =       5
     Waiting for input...
     Reading input from standard input

     Current dimensions of program PWSCF are:
     Max number of different atomic species (ntypx) = 10
     Max number of k-points (npk) =  40000
     Max angular momentum in pseudopotentials (lmaxx) =  3
               file Cu.pbesol-dn-rrkjus_psl.1.0.0.UPF: wavefunction(s)  3D renormalized

     Subspace diagonalization in iterative solution of the eigenvalue problem:
     a serial algorithm will be used


     Parallelization info
     --------------------
     sticks:   dense  smooth     PW     G-vecs:    dense   smooth      PW
     Min          12      12      6                   66       66      22
     Max          13      13      7                   67       67      23
     Sum          61      61     31                  331      331     113



     bravais-lattice index     =            2
     lattice parameter (alat)  =       6.8300  a.u.
     unit-cell volume          =      79.6530 (a.u.)^3
     number of atoms/cell      =            1
     number of atomic types    =            1
     number of electrons       =        11.00
     number of Kohn-Sham states=           10
     kinetic-energy cutoff     =      10.0000  Ry
     charge density cutoff     =      40.0000  Ry
     convergence threshold     =      1.0E-08
     mixing beta               =       0.7000
     number of iterations used =            8  plain     mixing
     Exchange-correlation      = PBESOL ( 1  4 10  8 0 0)

     celldm(1)=   6.830000  celldm(2)=   0.000000  celldm(3)=   0.000000
     celldm(4)=   0.000000  celldm(5)=   0.000000  celldm(6)=   0.000000

     crystal axes: (cart. coord. in units of alat)
               a(1) = (  -0.500000   0.000000   0.500000 )  
               a(2) = (   0.000000   0.500000   0.500000 )  
               a(3) = (  -0.500000   0.500000   0.000000 )  

     reciprocal axes: (cart. coord. in units 2 pi/alat)
               b(1) = ( -1.000000 -1.000000  1.000000 )  
               b(2) = (  1.000000  1.000000  1.000000 )  
               b(3) = ( -1.000000  1.000000 -1.000000 )  


     PseudoPot. # 1 for Cu read from file:
     /home/lorenzo/pseudos/Cu/Cu.pbesol-dn-rrkjus_psl.1.0.0.UPF
     MD5 check sum: bfa4c7aafbc42e028d5f4ccf7ceed93d
     Pseudo is Ultrasoft + core correction, Zval = 11.0
     Generated using "atomic" code by A. Dal Corso v.6.3
     Using radial grid of 1199 points,  6 beta functions with: 
                l(1) =   0
                l(2) =   0
                l(3) =   1
                l(4) =   1
                l(5) =   2
                l(6) =   2
     Q(r) pseudized with 0 coefficients 


     atomic species   valence    mass     pseudopotential
        Cu            11.00    63.54600     Cu( 1.00)

     48 Sym. Ops., with inversion, found



   Cartesian axes

     site n.     atom                  positions (alat units)
         1           Cu  tau(   1) = (   0.0000000   0.0000000   0.0000000  )

     number of k points=    35  gaussian smearing, width (Ry)=  0.0100
                       cart. coord. in units 2pi/alat
        k(    1) = (   0.0000000   0.0000000   0.0000000), wk =   0.0027435
        k(    2) = (  -0.1111111   0.1111111  -0.1111111), wk =   0.0219479
        k(    3) = (  -0.2222222   0.2222222  -0.2222222), wk =   0.0219479
        k(    4) = (  -0.3333333   0.3333333  -0.3333333), wk =   0.0219479
        k(    5) = (  -0.4444444   0.4444444  -0.4444444), wk =   0.0219479
        k(    6) = (   0.0000000   0.2222222   0.0000000), wk =   0.0164609
        k(    7) = (  -0.1111111   0.3333333  -0.1111111), wk =   0.0658436
        k(    8) = (  -0.2222222   0.4444444  -0.2222222), wk =   0.0658436
        k(    9) = (  -0.3333333   0.5555556  -0.3333333), wk =   0.0658436
        k(   10) = (   0.5555556  -0.3333333   0.5555556), wk =   0.0658436
        k(   11) = (   0.4444444  -0.2222222   0.4444444), wk =   0.0658436
        k(   12) = (   0.3333333  -0.1111111   0.3333333), wk =   0.0658436
        k(   13) = (   0.2222222  -0.0000000   0.2222222), wk =   0.0329218
        k(   14) = (   0.0000000   0.4444444   0.0000000), wk =   0.0164609
        k(   15) = (  -0.1111111   0.5555556  -0.1111111), wk =   0.0658436
        k(   16) = (  -0.2222222   0.6666667  -0.2222222), wk =   0.0658436
        k(   17) = (   0.6666667  -0.2222222   0.6666667), wk =   0.0658436
        k(   18) = (   0.5555556  -0.1111111   0.5555556), wk =   0.0658436
        k(   19) = (   0.4444444   0.0000000   0.4444444), wk =   0.0329218
        k(   20) = (   0.0000000   0.6666667   0.0000000), wk =   0.0164609
        k(   21) = (  -0.1111111   0.7777778  -0.1111111), wk =   0.0658436
        k(   22) = (   0.7777778  -0.1111111   0.7777778), wk =   0.0658436
        k(   23) = (   0.6666667  -0.0000000   0.6666667), wk =   0.0329218
        k(   24) = (   0.0000000   0.8888889   0.0000000), wk =   0.0164609
        k(   25) = (   0.8888889   0.0000000   0.8888889), wk =   0.0329218
        k(   26) = (  -0.2222222   0.4444444   0.0000000), wk =   0.0658436
        k(   27) = (  -0.3333333   0.5555556  -0.1111111), wk =   0.1316872
        k(   28) = (   0.5555556  -0.3333333   0.7777778), wk =   0.1316872
        k(   29) = (  -0.2222222   0.6666667   0.0000000), wk =   0.0658436
        k(   30) = (   0.6666667  -0.2222222   0.8888889), wk =   0.1316872
        k(   31) = (   0.5555556  -0.1111111   0.7777778), wk =   0.1316872
        k(   32) = (   0.4444444   0.0000000   0.6666667), wk =   0.0658436
        k(   33) = (   0.7777778  -0.1111111   1.0000000), wk =   0.0658436
        k(   34) = (   0.6666667  -0.0000000   0.8888889), wk =   0.0658436
        k(   35) = (   0.5555556  -0.1111111   1.0000000), wk =   0.0658436

     Dense  grid:      331 G-vectors     FFT dimensions: (   9,   9,   9)

     Estimated max dynamical RAM per process >       0.84 MB

     Estimated total dynamical RAM >       4.22 MB

     Check: negative/imaginary core charge=   -0.008419    0.000000

     Initial potential from superposition of free atoms

     starting charge   10.99979, renormalised to   11.00000
     Starting wfcs are    9 randomized atomic wfcs +    1 random wfcs

     total cpu time spent up to now is        0.8 secs

     Self-consistent Calculation

     iteration #  1     ecut=    10.00 Ry     beta= 0.70
     Davidson diagonalization with overlap
     ethr =  1.00E-02,  avg # of iterations =  3.3

     total cpu time spent up to now is        1.0 secs

     total energy              =    -103.45620438 Ry
     Harris-Foulkes estimate   =    -117.13695137 Ry
     estimated scf accuracy    <      16.38282606 Ry

     iteration #  2     ecut=    10.00 Ry     beta= 0.70
     Davidson diagonalization with overlap
     ethr =  1.00E-02,  avg # of iterations =  2.9

     total cpu time spent up to now is        1.1 secs

     total energy              =    -108.91802580 Ry
     Harris-Foulkes estimate   =    -109.52341520 Ry
     estimated scf accuracy    <       1.05311734 Ry

     iteration #  3     ecut=    10.00 Ry     beta= 0.70
     Davidson diagonalization with overlap
     ethr =  9.57E-03,  avg # of iterations =  1.0

     total cpu time spent up to now is        1.2 secs

     total energy              =    -108.96075830 Ry
     Harris-Foulkes estimate   =    -108.99959568 Ry
     estimated scf accuracy    <       0.07113387 Ry

     iteration #  4     ecut=    10.00 Ry     beta= 0.70
     Davidson diagonalization with overlap
     ethr =  6.47E-04,  avg # of iterations =  2.0

     total cpu time spent up to now is        1.3 secs

     total energy              =    -108.97112351 Ry
     Harris-Foulkes estimate   =    -108.97401310 Ry
     estimated scf accuracy    <       0.00418849 Ry

     iteration #  5     ecut=    10.00 Ry     beta= 0.70
     Davidson diagonalization with overlap
     ethr =  3.81E-05,  avg # of iterations =  2.1

     total cpu time spent up to now is        1.3 secs

     total energy              =    -108.97174731 Ry
     Harris-Foulkes estimate   =    -108.97176614 Ry
     estimated scf accuracy    <       0.00005874 Ry

     iteration #  6     ecut=    10.00 Ry     beta= 0.70
     Davidson diagonalization with overlap
     ethr =  5.34E-07,  avg # of iterations =  1.4

     total cpu time spent up to now is        1.4 secs

     total energy              =    -108.97173651 Ry
     Harris-Foulkes estimate   =    -108.97175080 Ry
     estimated scf accuracy    <       0.00002202 Ry

     iteration #  7     ecut=    10.00 Ry     beta= 0.70
     Davidson diagonalization with overlap
     ethr =  2.00E-07,  avg # of iterations =  2.1

     total cpu time spent up to now is        1.5 secs

     total energy              =    -108.97174052 Ry
     Harris-Foulkes estimate   =    -108.97174041 Ry
     estimated scf accuracy    <       0.00000003 Ry

     iteration #  8     ecut=    10.00 Ry     beta= 0.70
     Davidson diagonalization with overlap
     ethr =  2.44E-10,  avg # of iterations =  2.4

     total cpu time spent up to now is        1.6 secs

     End of self-consistent calculation

          k = 0.0000 0.0000 0.0000 (    51 PWs)   bands (ev):

    -7.1136  -7.1136  -0.4041  -0.4041  -0.4041   0.6283  29.0915  29.0915
    29.0915  39.9548

          k =-0.1111 0.1111-0.1111 (    52 PWs)   bands (ev):

    -6.2608  -6.2608  -3.1064  -3.1064  -1.5678   1.0872  27.1859  28.7820
    28.7820  40.1820

          k =-0.2222 0.2222-0.2222 (    46 PWs)   bands (ev):

    -3.0375  -3.0375  -2.1010   2.4859   5.6624   5.6624  22.5318  28.1131
    28.1131  39.5817

          k =-0.3333 0.3333-0.3333 (    43 PWs)   bands (ev):

    -1.1806  -0.1989  -0.1989   4.9365   8.4688   8.4688  17.2822  27.1003
    27.1003  38.0995

          k =-0.4444 0.4444-0.4444 (    40 PWs)   bands (ev):

    -0.0445  -0.0445   2.4720   8.8588  12.4838  12.4838  14.0382  26.3847
    26.3847  37.2303

          k = 0.0000 0.2222 0.0000 (    51 PWs)   bands (ev):

    -6.9175  -6.5428  -2.5861  -2.5861   0.9861   2.2152  27.8596  27.8596
    28.0697  39.5173

          k =-0.1111 0.3333-0.1111 (    47 PWs)   bands (ev):

    -4.8071  -4.2891  -0.4380   2.3528   3.8620   4.3761  24.3087  26.8062
    27.9602  39.5718

          k =-0.2222 0.4444-0.2222 (    44 PWs)   bands (ev):

    -2.9483  -2.7449   3.3023   4.2885   6.3287   7.5107  19.3206  25.7478
    27.0184  37.9431

          k =-0.3333 0.5556-0.3333 (    42 PWs)   bands (ev):

    -3.0140  -1.4704   3.7609   6.6484  10.3596  11.6122  14.9887  25.3443
    25.6415  37.0490

          k = 0.5556-0.3333 0.5556 (    40 PWs)   bands (ev):

     0.0883   0.2768   3.2792   8.9348  11.9028  12.5572  13.8888  24.7228
    25.8984  36.9001

          k = 0.4444-0.2222 0.4444 (    42 PWs)   bands (ev):

    -0.0574   0.2691   0.7712   5.9204   8.4255  10.7460  16.2016  24.5733
    27.1286  37.6830

          k = 0.3333-0.1111 0.3333 (    43 PWs)   bands (ev):

    -0.3281   0.3802   0.9716   3.4688   6.6194   7.5925  21.0490  25.3477
    28.4609  39.3118

          k = 0.2222-0.0000 0.2222 (    43 PWs)   bands (ev):

     0.6381   1.1823   1.7611   3.1384   3.9213   6.7527  25.3949  26.8807
    29.1236  41.0974

          k = 0.0000 0.4444 0.0000 (    43 PWs)   bands (ev):

    -1.9770   2.1434   4.0589   4.4814   4.5666   4.5666  25.2591  25.6055
    25.6055  38.2553

          k =-0.1111 0.5556-0.1111 (    45 PWs)   bands (ev):

    -4.0453   0.4121   1.2418   3.0684   5.2763   5.5609  21.1173  24.2636
    24.7574  36.9290

          k =-0.2222 0.6667-0.2222 (    42 PWs)   bands (ev):

    -2.4514   1.5408   2.9073   4.8965   9.8840  10.9572  17.0360  23.0229
    23.8015  36.3121

          k = 0.6667-0.2222 0.6667 (    41 PWs)   bands (ev):

    -1.6618   2.4614   2.6046   7.2961  11.0882  12.8454  14.0795  21.2752
    24.3222  36.3815

          k = 0.5556-0.1111 0.5556 (    40 PWs)   bands (ev):

     0.5586   2.4663   6.0737   6.6028   8.8258  12.2622  16.2192  20.3598
    25.8558  37.1851

          k = 0.4444 0.0000 0.4444 (    42 PWs)   bands (ev):

    -0.2188   1.0563   3.3812   4.2145   7.0819   9.8272  19.3843  21.3295
    27.5011  38.0337

          k = 0.0000 0.6667 0.0000 (    44 PWs)   bands (ev):

    -3.1107  -2.4489   4.0048   6.0310   6.3450   6.3450  20.5968  22.8048
    22.8048  34.7449

          k =-0.1111 0.7778-0.1111 (    42 PWs)   bands (ev):

    -3.3072  -1.8288   4.1348   7.4675  10.6359  12.0337  17.8256  20.8158
    22.1074  34.9209

          k = 0.7778-0.1111 0.7778 (    40 PWs)   bands (ev):

    -2.3694   1.5950   7.4229   8.5844  11.3672  14.2003  15.5953  18.4946
    22.5747  35.5449

          k = 0.6667-0.0000 0.6667 (    40 PWs)   bands (ev):

    -0.5337   3.2436   4.4056   7.5353  11.3053  12.9765  16.4965  18.8043
    23.8889  36.4666

          k = 0.0000 0.8889 0.0000 (    40 PWs)   bands (ev):

    -3.6938   0.2822   5.1647  10.2413  13.9141  13.9141  16.0669  21.0358
    21.0358  34.1730

          k = 0.8889 0.0000 0.8889 (    40 PWs)   bands (ev):

    -3.5888   0.4140   4.9866  10.9346  14.2192  14.4333  15.1623  19.3548
    21.0676  34.8206

          k =-0.2222 0.4444 0.0000 (    47 PWs)   bands (ev):

    -4.9596  -3.2846   1.0167   1.4855   3.7758   4.1300  22.2057  24.0278
    27.4021  38.5990

          k =-0.3333 0.5556-0.1111 (    42 PWs)   bands (ev):

    -1.4130   0.6404   4.0016   4.5636   8.2043  10.0216  18.1545  22.6563
    26.1277  37.7224

          k = 0.5556-0.3333 0.7778 (    41 PWs)   bands (ev):

    -0.7580   0.3729   3.0095   6.9192  11.0664  12.6425  14.6092  22.4403
    24.6309  36.9925

          k =-0.2222 0.6667 0.0000 (    45 PWs)   bands (ev):

    -4.0974  -1.9916  -1.1948   5.8829   5.8856   9.8862  19.2778  21.3886
    23.3230  36.2202

          k = 0.6667-0.2222 0.8889 (    42 PWs)   bands (ev):

    -2.1842  -1.7486   3.5190   7.5589  11.1441  12.1927  16.0892  19.9979
    22.1485  36.9258

          k = 0.5556-0.1111 0.7778 (    42 PWs)   bands (ev):

    -1.3273  -0.5507   3.2375   6.2245  10.6398  13.0020  15.5988  18.4771
    22.6571  37.2328

          k = 0.4444 0.0000 0.6667 (    43 PWs)   bands (ev):

    -1.7477  -1.6316   2.9595   6.0098   7.3360  11.6714  17.5185  18.7161
    24.2644  37.3908

          k = 0.7778-0.1111 1.0000 (    41 PWs)   bands (ev):

    -3.3326  -0.9842   4.6866   8.7410  13.5210  13.9635  15.7558  19.6752
    20.4954  35.7309

          k = 0.6667-0.0000 0.8889 (    40 PWs)   bands (ev):

    -1.6214  -1.0788   7.1834  10.3678  13.4742  13.8416  15.9715  17.2161
    20.9382  36.9533

          k = 0.5556-0.1111 1.0000 (    41 PWs)   bands (ev):

    -1.9613  -1.9075   4.8174   9.4418  13.0948  13.7020  16.6817  17.2320
    20.2383  38.3838

     the Fermi energy is    12.4631 ev

!    total energy              =    -108.97174057 Ry
     Harris-Foulkes estimate   =    -108.97174053 Ry
     estimated scf accuracy    <          2.5E-09 Ry

     The total energy is the sum of the following terms:

     one-electron contribution =      -0.91219202 Ry
     hartree contribution      =      11.81641831 Ry
     xc contribution           =     -38.65040872 Ry
     ewald contribution        =     -81.22522857 Ry
     smearing contrib. (-TS)   =      -0.00032957 Ry

     convergence has been achieved in   8 iterations

     Forces acting on atoms (cartesian axes, Ry/au):

     atom    1 type  1   force =     0.00000000    0.00000000    0.00000000

     Total force =     0.000000     Total SCF correction =     0.000000


     Computing stress (Cartesian axis) and pressure

          total   stress  (Ry/bohr**3)                   (kbar)     P=********
  -0.29123246  -0.00000000  -0.00000000     -42841.77     -0.00     -0.00
  -0.00000000  -0.29123246   0.00000000         -0.00 -42841.77      0.00
  -0.00000000   0.00000000  -0.29123246         -0.00      0.00 -42841.77


     Writing output data file Cu.save/

     init_run     :      0.08s CPU      0.09s WALL (       1 calls)
     electrons    :      0.63s CPU      0.74s WALL (       1 calls)
     forces       :      0.02s CPU      0.02s WALL (       1 calls)
     stress       :      0.03s CPU      0.03s WALL (       1 calls)

     Called by init_run:
     wfcinit      :      0.02s CPU      0.02s WALL (       1 calls)
     potinit      :      0.00s CPU      0.00s WALL (       1 calls)
     hinit0       :      0.06s CPU      0.07s WALL (       1 calls)

     Called by electrons:
     c_bands      :      0.55s CPU      0.64s WALL (       8 calls)
     sum_band     :      0.07s CPU      0.08s WALL (       8 calls)
     v_of_rho     :      0.00s CPU      0.00s WALL (       9 calls)
     newd         :      0.00s CPU      0.00s WALL (       9 calls)
     mix_rho      :      0.00s CPU      0.00s WALL (       8 calls)

     Called by c_bands:
     init_us_2    :      0.01s CPU      0.01s WALL (     665 calls)
     cegterg      :      0.53s CPU      0.62s WALL (     280 calls)

     Called by sum_band:
     sum_band:bec :      0.00s CPU      0.00s WALL (     280 calls)
     addusdens    :      0.00s CPU      0.00s WALL (       8 calls)

     Called by *egterg:
     h_psi        :      0.29s CPU      0.35s WALL (     914 calls)
     s_psi        :      0.01s CPU      0.01s WALL (     914 calls)
     g_psi        :      0.00s CPU      0.00s WALL (     599 calls)
     cdiaghg      :      0.17s CPU      0.19s WALL (     879 calls)

     Called by h_psi:
     h_psi:pot    :      0.29s CPU      0.34s WALL (     914 calls)
     h_psi:calbec :      0.02s CPU      0.03s WALL (     914 calls)
     vloc_psi     :      0.25s CPU      0.30s WALL (     914 calls)
     add_vuspsi   :      0.01s CPU      0.01s WALL (     914 calls)

     General routines
     calbec       :      0.05s CPU      0.05s WALL (    1369 calls)
     fft          :      0.00s CPU      0.00s WALL (     125 calls)
     ffts         :      0.00s CPU      0.00s WALL (       8 calls)
     fftw         :      0.27s CPU      0.32s WALL (   17228 calls)

     Parallel routines
     fft_scatt_xy :      0.03s CPU      0.03s WALL (   17361 calls)
     fft_scatt_yz :      0.14s CPU      0.16s WALL (   17361 calls)

     PWSCF        :     1.56s CPU         1.74s WALL


   This run was terminated on:  23:10:11  25Mar2024            

=------------------------------------------------------------------------------=
   JOB DONE.
=------------------------------------------------------------------------------=
