
     Program PWSCF v.6.3MaX starts on 25Mar2024 at 23:14: 9 

     This program is part of the open-source Quantum ESPRESSO suite
     for quantum simulation of materials; please cite
         "P. Giannozzi et al., J. Phys.:Condens. Matter 21 395502 (2009);
         "P. Giannozzi et al., J. Phys.:Condens. Matter 29 465901 (2017);
          URL http://www.quantum-espresso.org", 
     in publications or presentations arising from this work. More details at
     http://www.quantum-espresso.org/quote

     Parallel version (MPI), running on     5 processors

     MPI processes distributed on     1 nodes
     R & G space division:  proc/nbgrp/npool/nimage =       5
     Waiting for input...
     Reading input from standard input

     Current dimensions of program PWSCF are:
     Max number of different atomic species (ntypx) = 10
     Max number of k-points (npk) =  40000
     Max angular momentum in pseudopotentials (lmaxx) =  3
               file Cu.pbesol-dn-kjpaw_psl.1.0.0.UPF: wavefunction(s)  4S 3D renormalized

     Subspace diagonalization in iterative solution of the eigenvalue problem:
     a serial algorithm will be used


     Parallelization info
     --------------------
     sticks:   dense  smooth     PW     G-vecs:    dense   smooth      PW
     Min          32      32     12                  272      272      66
     Max          33      33     13                  273      273      67
     Sum         163     163     61                 1363     1363     331



     bravais-lattice index     =            2
     lattice parameter (alat)  =       6.8300  a.u.
     unit-cell volume          =      79.6530 (a.u.)^3
     number of atoms/cell      =            1
     number of atomic types    =            1
     number of electrons       =        11.00
     number of Kohn-Sham states=           10
     kinetic-energy cutoff     =      25.0000  Ry
     charge density cutoff     =     100.0000  Ry
     convergence threshold     =      1.0E-08
     mixing beta               =       0.7000
     number of iterations used =            8  plain     mixing
     Exchange-correlation      = SLA PW PSX PSC ( 1  4 10  8 0 0)

     celldm(1)=   6.830000  celldm(2)=   0.000000  celldm(3)=   0.000000
     celldm(4)=   0.000000  celldm(5)=   0.000000  celldm(6)=   0.000000

     crystal axes: (cart. coord. in units of alat)
               a(1) = (  -0.500000   0.000000   0.500000 )  
               a(2) = (   0.000000   0.500000   0.500000 )  
               a(3) = (  -0.500000   0.500000   0.000000 )  

     reciprocal axes: (cart. coord. in units 2 pi/alat)
               b(1) = ( -1.000000 -1.000000  1.000000 )  
               b(2) = (  1.000000  1.000000  1.000000 )  
               b(3) = ( -1.000000  1.000000 -1.000000 )  


     PseudoPot. # 1 for Cu read from file:
     /home/lorenzo/pseudos/Cu/Cu.pbesol-dn-kjpaw_psl.1.0.0.UPF
     MD5 check sum: 1e9735a74797514c934643dbd229f231
     Pseudo is Projector augmented-wave + core cor, Zval = 11.0
     Generated using "atomic" code by A. Dal Corso v.6.3
     Shape of augmentation charge: PSQ
     Using radial grid of 1199 points,  6 beta functions with: 
                l(1) =   0
                l(2) =   0
                l(3) =   1
                l(4) =   1
                l(5) =   2
                l(6) =   2
     Q(r) pseudized with 0 coefficients 


     atomic species   valence    mass     pseudopotential
        Cu            11.00    63.54600     Cu( 1.00)

     48 Sym. Ops., with inversion, found



   Cartesian axes

     site n.     atom                  positions (alat units)
         1           Cu  tau(   1) = (   0.0000000   0.0000000   0.0000000  )

     number of k points=    56  gaussian smearing, width (Ry)=  0.0100
                       cart. coord. in units 2pi/alat
        k(    1) = (   0.0000000   0.0000000   0.0000000), wk =   0.0015026
        k(    2) = (  -0.0909091   0.0909091  -0.0909091), wk =   0.0120210
        k(    3) = (  -0.1818182   0.1818182  -0.1818182), wk =   0.0120210
        k(    4) = (  -0.2727273   0.2727273  -0.2727273), wk =   0.0120210
        k(    5) = (  -0.3636364   0.3636364  -0.3636364), wk =   0.0120210
        k(    6) = (  -0.4545455   0.4545455  -0.4545455), wk =   0.0120210
        k(    7) = (   0.0000000   0.1818182   0.0000000), wk =   0.0090158
        k(    8) = (  -0.0909091   0.2727273  -0.0909091), wk =   0.0360631
        k(    9) = (  -0.1818182   0.3636364  -0.1818182), wk =   0.0360631
        k(   10) = (  -0.2727273   0.4545455  -0.2727273), wk =   0.0360631
        k(   11) = (  -0.3636364   0.5454545  -0.3636364), wk =   0.0360631
        k(   12) = (   0.5454545  -0.3636364   0.5454545), wk =   0.0360631
        k(   13) = (   0.4545455  -0.2727273   0.4545455), wk =   0.0360631
        k(   14) = (   0.3636364  -0.1818182   0.3636364), wk =   0.0360631
        k(   15) = (   0.2727273  -0.0909091   0.2727273), wk =   0.0360631
        k(   16) = (   0.1818182  -0.0000000   0.1818182), wk =   0.0180316
        k(   17) = (   0.0000000   0.3636364   0.0000000), wk =   0.0090158
        k(   18) = (  -0.0909091   0.4545455  -0.0909091), wk =   0.0360631
        k(   19) = (  -0.1818182   0.5454545  -0.1818182), wk =   0.0360631
        k(   20) = (  -0.2727273   0.6363636  -0.2727273), wk =   0.0360631
        k(   21) = (   0.6363636  -0.2727273   0.6363636), wk =   0.0360631
        k(   22) = (   0.5454545  -0.1818182   0.5454545), wk =   0.0360631
        k(   23) = (   0.4545455  -0.0909091   0.4545455), wk =   0.0360631
        k(   24) = (   0.3636364   0.0000000   0.3636364), wk =   0.0180316
        k(   25) = (   0.0000000   0.5454545   0.0000000), wk =   0.0090158
        k(   26) = (  -0.0909091   0.6363636  -0.0909091), wk =   0.0360631
        k(   27) = (  -0.1818182   0.7272727  -0.1818182), wk =   0.0360631
        k(   28) = (   0.7272727  -0.1818182   0.7272727), wk =   0.0360631
        k(   29) = (   0.6363636  -0.0909091   0.6363636), wk =   0.0360631
        k(   30) = (   0.5454545   0.0000000   0.5454545), wk =   0.0180316
        k(   31) = (   0.0000000   0.7272727   0.0000000), wk =   0.0090158
        k(   32) = (  -0.0909091   0.8181818  -0.0909091), wk =   0.0360631
        k(   33) = (   0.8181818  -0.0909091   0.8181818), wk =   0.0360631
        k(   34) = (   0.7272727   0.0000000   0.7272727), wk =   0.0180316
        k(   35) = (   0.0000000   0.9090909   0.0000000), wk =   0.0090158
        k(   36) = (   0.9090909  -0.0000000   0.9090909), wk =   0.0180316
        k(   37) = (  -0.1818182   0.3636364   0.0000000), wk =   0.0360631
        k(   38) = (  -0.2727273   0.4545455  -0.0909091), wk =   0.0721262
        k(   39) = (  -0.3636364   0.5454545  -0.1818182), wk =   0.0721262
        k(   40) = (   0.5454545  -0.3636364   0.7272727), wk =   0.0721262
        k(   41) = (  -0.1818182   0.5454545   0.0000000), wk =   0.0360631
        k(   42) = (  -0.2727273   0.6363636  -0.0909091), wk =   0.0721262
        k(   43) = (   0.6363636  -0.2727273   0.8181818), wk =   0.0721262
        k(   44) = (   0.5454545  -0.1818182   0.7272727), wk =   0.0721262
        k(   45) = (   0.4545455  -0.0909091   0.6363636), wk =   0.0721262
        k(   46) = (   0.3636364   0.0000000   0.5454545), wk =   0.0360631
        k(   47) = (  -0.1818182   0.7272727   0.0000000), wk =   0.0360631
        k(   48) = (   0.7272727  -0.1818182   0.9090909), wk =   0.0721262
        k(   49) = (   0.6363636  -0.0909091   0.8181818), wk =   0.0721262
        k(   50) = (   0.5454545   0.0000000   0.7272727), wk =   0.0360631
        k(   51) = (   0.8181818  -0.0909091   1.0000000), wk =   0.0360631
        k(   52) = (   0.7272727   0.0000000   0.9090909), wk =   0.0360631
        k(   53) = (   0.6363636  -0.2727273   1.0000000), wk =   0.0360631
        k(   54) = (   0.5454545  -0.1818182   0.9090909), wk =   0.0721262
        k(   55) = (   0.6363636  -0.0909091   1.0000000), wk =   0.0360631
        k(   56) = (   0.5454545   0.0000000   0.9090909), wk =   0.0360631

     Dense  grid:     1363 G-vectors     FFT dimensions: (  15,  15,  15)

     Estimated max dynamical RAM per process >       2.16 MB

     Estimated total dynamical RAM >      10.82 MB

     Check: negative/imaginary core charge=   -0.000132    0.000000

     Initial potential from superposition of free atoms

     starting charge   10.99979, renormalised to   11.00000
     Starting wfcs are    9 randomized atomic wfcs +    1 random wfcs
     Checking if some PAW data can be deallocated... 

     total cpu time spent up to now is        1.0 secs

     Self-consistent Calculation

     iteration #  1     ecut=    25.00 Ry     beta= 0.70
     Davidson diagonalization with overlap
     ethr =  1.00E-02,  avg # of iterations =  3.6

     total cpu time spent up to now is        1.4 secs

     total energy              =    -210.19589082 Ry
     Harris-Foulkes estimate   =    -210.33561637 Ry
     estimated scf accuracy    <       0.17152015 Ry

     iteration #  2     ecut=    25.00 Ry     beta= 0.70
     Davidson diagonalization with overlap
     ethr =  1.56E-03,  avg # of iterations =  2.1

     total cpu time spent up to now is        1.7 secs

     total energy              =    -210.23181129 Ry
     Harris-Foulkes estimate   =    -210.41948488 Ry
     estimated scf accuracy    <       0.44345973 Ry

     iteration #  3     ecut=    25.00 Ry     beta= 0.70
     Davidson diagonalization with overlap
     ethr =  1.56E-03,  avg # of iterations =  2.0

     total cpu time spent up to now is        2.0 secs

     total energy              =    -210.29899898 Ry
     Harris-Foulkes estimate   =    -210.30006676 Ry
     estimated scf accuracy    <       0.00178782 Ry

     iteration #  4     ecut=    25.00 Ry     beta= 0.70
     Davidson diagonalization with overlap
     ethr =  1.63E-05,  avg # of iterations =  2.2

     total cpu time spent up to now is        2.3 secs

     total energy              =    -210.29969643 Ry
     Harris-Foulkes estimate   =    -210.30007059 Ry
     estimated scf accuracy    <       0.00107507 Ry

     iteration #  5     ecut=    25.00 Ry     beta= 0.70
     Davidson diagonalization with overlap
     ethr =  9.77E-06,  avg # of iterations =  1.0

     total cpu time spent up to now is        2.5 secs

     total energy              =    -210.29982230 Ry
     Harris-Foulkes estimate   =    -210.29982993 Ry
     estimated scf accuracy    <       0.00002426 Ry

     iteration #  6     ecut=    25.00 Ry     beta= 0.70
     Davidson diagonalization with overlap
     ethr =  2.21E-07,  avg # of iterations =  1.8

     total cpu time spent up to now is        2.8 secs

     total energy              =    -210.29982552 Ry
     Harris-Foulkes estimate   =    -210.29982587 Ry
     estimated scf accuracy    <       0.00000093 Ry

     iteration #  7     ecut=    25.00 Ry     beta= 0.70
     Davidson diagonalization with overlap
     ethr =  8.47E-09,  avg # of iterations =  2.0

     total cpu time spent up to now is        3.0 secs

     End of self-consistent calculation

          k = 0.0000 0.0000 0.0000 (   169 PWs)   bands (ev):

     3.0937   9.1081   9.1081   9.1081   9.8925   9.8925  35.4567  37.7648
    37.7648  37.7648

          k =-0.0909 0.0909-0.0909 (   169 PWs)   bands (ev):

     3.3930   9.0562   9.1678   9.1678   9.8801   9.8801  33.3002  36.1213
    37.0957  37.0957

          k =-0.1818 0.1818-0.1818 (   168 PWs)   bands (ev):

     4.2591   8.9732   9.2573   9.2573   9.9292   9.9292  28.5572  35.7553
    36.0810  36.0810

          k =-0.2727 0.2727-0.2727 (   162 PWs)   bands (ev):

     5.5431   8.9778   9.2833   9.2833  10.1799  10.1799  23.9756  35.1044
    35.3201  35.3201

          k =-0.3636 0.3636-0.3636 (   162 PWs)   bands (ev):

     6.7096   9.2397   9.2397   9.5580  10.4246  10.4246  19.8603  34.3554
    34.8245  34.8245

          k =-0.4545 0.4545-0.4545 (   168 PWs)   bands (ev):

     7.1238   9.1459   9.1459  10.5018  10.5018  11.0530  16.7537  33.9020
    34.5539  34.5539

          k = 0.0000 0.1818 0.0000 (   169 PWs)   bands (ev):

     3.4922   8.9957   9.2154   9.2154   9.7985   9.9427  34.4221  35.2026
    35.2026  36.4302

          k =-0.0909 0.2727-0.0909 (   167 PWs)   bands (ev):

     4.1689   8.8893   9.3243   9.3321   9.8199   9.9862  30.3535  33.7219
    34.5108  37.6807

          k =-0.1818 0.3636-0.1818 (   165 PWs)   bands (ev):

     5.3256   8.7994   9.3197   9.3788  10.0074  10.1930  25.6690  32.7388
    33.9046  36.7076

          k =-0.2727 0.4545-0.2727 (   164 PWs)   bands (ev):

     6.5918   8.9996   9.1846   9.3560  10.4629  10.4942  21.3507  32.3180
    33.2617  34.6250

          k =-0.3636 0.5455-0.3636 (   169 PWs)   bands (ev):

     7.2189   9.0517   9.2519   9.6396  10.5146  11.4888  17.7608  32.1445
    32.4657  33.7500

          k = 0.5455-0.3636 0.5455 (   166 PWs)   bands (ev):

     7.3109   9.0274   9.2542   9.9311  10.5300  12.3224  16.3340  31.0678
    33.3117  33.8846

          k = 0.4545-0.2727 0.4545 (   167 PWs)   bands (ev):

     7.1051   9.1079   9.2736   9.4936  10.3239  11.1697  18.8522  30.5317
    34.6189  34.8162

          k = 0.3636-0.1818 0.3636 (   163 PWs)   bands (ev):

     6.2111   8.9333   9.2275   9.3728  10.0736  10.5583  22.7593  30.5618
    35.8843  36.9249

          k = 0.2727-0.0909 0.2727 (   166 PWs)   bands (ev):

     4.9002   8.8606   9.2943   9.3756   9.8100  10.2016  27.1944  31.0850
    37.3573  38.8466

          k = 0.1818-0.0000 0.1818 (   170 PWs)   bands (ev):

     3.8819   8.9592   9.2481   9.2574   9.7874   9.9513  31.6760  32.3480
    37.3668  38.9085

          k = 0.0000 0.3636 0.0000 (   169 PWs)   bands (ev):

     4.6357   8.6999   9.4856   9.4856   9.6606  10.0476  31.8582  31.8582
    32.8889  34.1751

          k =-0.0909 0.4545-0.0909 (   166 PWs)   bands (ev):

     5.5856   8.5632   9.3889   9.6520   9.9480  10.2023  27.7409  30.6072
    32.4773  33.6645

          k =-0.1818 0.5455-0.1818 (   166 PWs)   bands (ev):

     6.7561   8.5180   9.1946   9.6037  10.5062  10.6269  23.3517  29.9357
    30.4983  33.0705

          k =-0.2727 0.6364-0.2727 (   163 PWs)   bands (ev):

     7.5179   8.7152   9.1236   9.5933  10.6489  11.9968  19.4452  28.5980
    30.0195  32.9127

          k = 0.6364-0.2727 0.6364 (   170 PWs)   bands (ev):

     7.6968   8.7330   9.2821   9.5011  10.4783  13.7722  16.6226  27.1488
    30.7997  33.1015

          k = 0.5455-0.1818 0.5455 (   168 PWs)   bands (ev):

     7.6672   8.8220   9.1529   9.5215  10.2950  12.7285  18.2930  26.2995
    32.3331  33.8105

          k = 0.4545-0.0909 0.4545 (   169 PWs)   bands (ev):

     7.1573   8.7563   9.0179   9.5520   9.9610  11.3175  22.0112  26.0426
    34.4740  35.0561

          k = 0.3636 0.0000 0.3636 (   168 PWs)   bands (ev):

     5.9901   8.7082   9.2026   9.6028   9.7175  10.5812  26.0296  26.6493
    36.7743  37.1452

          k = 0.0000 0.5455 0.0000 (   165 PWs)   bands (ev):

     6.2357   8.3443   9.6379   9.9764   9.9764  10.2243  29.0259  29.0259
    29.8734  31.8059

          k =-0.0909 0.6364-0.0909 (   169 PWs)   bands (ev):

     7.0150   8.2095   9.5856   9.9766  10.4513  10.6749  25.6285  27.3302
    28.0731  32.2087

          k =-0.1818 0.7273-0.1818 (   167 PWs)   bands (ev):

     7.6057   8.2277   9.4274   9.9187  10.6451  12.2992  21.6488  25.2488
    27.9103  32.2663

          k = 0.7273-0.1818 0.7273 (   174 PWs)   bands (ev):

     7.9172   8.3147   9.2110   9.8148  10.4895  14.6415  18.1303  23.6255
    28.5342  32.3878

          k = 0.6364-0.0909 0.6364 (   172 PWs)   bands (ev):

     8.0987   8.4580   9.0019   9.7549  10.3180  14.8284  18.0541  22.5984
    29.9222  32.9102

          k = 0.5455 0.0000 0.5455 (   168 PWs)   bands (ev):

     7.9560   8.7453   8.7481   9.7302  10.0445  12.7374  21.1722  22.6378
    31.9677  33.8445

          k = 0.0000 0.7273 0.0000 (   170 PWs)   bands (ev):

     7.2297   8.0017  10.3752  10.3752  10.3803  10.8649  24.6196  26.8693
    26.8693  31.0983

          k =-0.0909 0.8182-0.0909 (   168 PWs)   bands (ev):

     7.4396   7.9358  10.1832  10.3213  10.6903  12.5836  22.4665  24.1866
    26.4299  31.6381

          k = 0.8182-0.0909 0.8182 (   174 PWs)   bands (ev):

     7.6646   8.0233   9.7764  10.1912  10.5293  14.8850  20.6219  20.9676
    26.8350  31.8931

          k = 0.7273 0.0000 0.7273 (   172 PWs)   bands (ev):

     7.9859   8.1975   9.3217  10.0180  10.4353  17.2066  17.4977  20.5104
    28.0402  32.2763

          k = 0.0000 0.9091 0.0000 (   162 PWs)   bands (ev):

     7.3649   7.8265  10.6658  10.7464  10.7464  13.3393  20.4958  25.7076
    25.7076  30.8422

          k = 0.9091-0.0000 0.9091 (   178 PWs)   bands (ev):

     7.4001   7.8241  10.3858  10.4177  10.5678  14.4438  19.6580  23.6647
    25.8476  31.4077

          k =-0.1818 0.3636 0.0000 (   164 PWs)   bands (ev):

     4.9947   8.7517   9.3569   9.5017   9.7904  10.2216  28.9531  29.4429
    35.9144  36.3612

          k =-0.2727 0.4545-0.0909 (   166 PWs)   bands (ev):

     6.1988   8.6629   9.2001   9.5542   9.9785  10.6103  24.6023  28.5058
    33.5796  36.4258

          k =-0.3636 0.5455-0.1818 (   162 PWs)   bands (ev):

     7.2523   8.8988   9.0330   9.5362  10.3823  11.3975  20.5127  28.3523
    31.5142  35.7936

          k = 0.5455-0.3636 0.7273 (   167 PWs)   bands (ev):

     7.5727   8.8397   9.3402   9.4589  10.5032  12.9318  17.1498  28.7598
    29.8786  35.3532

          k =-0.1818 0.5455 0.0000 (   169 PWs)   bands (ev):

     6.5275   8.4044   9.2663   9.9006   9.9999  10.5946  26.5789  27.0356
    30.2804  34.7552

          k =-0.2727 0.6364-0.0909 (   168 PWs)   bands (ev):

     7.4480   8.4051   9.0730   9.8673  10.3521  11.5857  22.5993  26.4812
    27.9948  35.1042

          k = 0.6364-0.2727 0.8182 (   169 PWs)   bands (ev):

     7.8912   8.4737   9.0253   9.7545  10.5411  13.4418  18.8400  26.1661
    26.7946  35.1370

          k = 0.5455-0.1818 0.7273 (   170 PWs)   bands (ev):

     8.0204   8.5018   9.0351   9.6994  10.4642  14.8733  16.9846  24.9013
    27.7098  35.5950

          k = 0.4545-0.0909 0.6364 (   168 PWs)   bands (ev):

     7.9417   8.6589   8.7967   9.7442  10.2462  12.8742  20.0497  24.2356
    29.2237  36.5852

          k = 0.3636 0.0000 0.5455 (   170 PWs)   bands (ev):

     7.2658   8.5483   8.9425   9.8372   9.9185  11.3768  23.6285  24.5052
    31.2249  37.9979

          k =-0.1818 0.7273 0.0000 (   172 PWs)   bands (ev):

     7.4554   8.0939   9.5726  10.2896  10.3692  11.7911  24.7807  24.8939
    25.3179  33.6906

          k = 0.7273-0.1818 0.9091 (   169 PWs)   bands (ev):

     7.7828   8.1642   9.3960  10.1366  10.5901  13.8286  21.2544  23.0347
    25.1768  34.3966

          k = 0.6364-0.0909 0.8182 (   173 PWs)   bands (ev):

     8.0457   8.2511   9.1288   9.9658  10.5170  16.4081  17.9301  21.6846
    25.9468  34.8083

          k = 0.5455 0.0000 0.7273 (   169 PWs)   bands (ev):

     8.3009   8.3795   8.8454   9.8898  10.3503  15.0057  19.2931  21.4547
    27.3505  35.6374

          k = 0.8182-0.0909 1.0000 (   171 PWs)   bands (ev):

     7.5268   7.9215  10.0412  10.4025  10.6596  14.2037  20.6749  23.7917
    24.3286  33.1902

          k = 0.7273 0.0000 0.9091 (   172 PWs)   bands (ev):

     7.7391   8.0708   9.6308  10.2035  10.6117  15.9552  19.9996  20.8034
    24.7184  34.1507

          k = 0.6364-0.2727 1.0000 (   167 PWs)   bands (ev):

     7.9886   8.4079   8.8811  10.0842  10.3390  13.2091  21.8835  23.0615
    25.8709  38.2360

          k = 0.5455-0.1818 0.9091 (   172 PWs)   bands (ev):

     8.1858   8.4334   8.7823   9.9161  10.5032  15.5125  18.7106  23.1240
    24.2151  38.3531

          k = 0.6364-0.0909 1.0000 (   166 PWs)   bands (ev):

     7.9576   8.3062   9.1654  10.1283  10.6847  15.9901  20.9225  21.4051
    22.3204  37.6594

          k = 0.5455 0.0000 0.9091 (   169 PWs)   bands (ev):

     8.1036   8.5015   8.8222   9.9795  10.6773  18.1600  18.1844  20.8893
    22.7848  38.7849

     the Fermi energy is    12.4694 ev

!    total energy              =    -210.29982574 Ry
     Harris-Foulkes estimate   =    -210.29982574 Ry
     estimated scf accuracy    <          6.2E-09 Ry

     total all-electron energy =     -3307.178887 Ry

     The total energy is the sum of the following terms:

     one-electron contribution =     -27.68257603 Ry
     hartree contribution      =      30.15244956 Ry
     xc contribution           =     -43.98311819 Ry
     ewald contribution        =     -81.22522862 Ry
     one-center paw contrib.   =     -87.56124548 Ry
     smearing contrib. (-TS)   =      -0.00010698 Ry

     convergence has been achieved in   7 iterations

     Forces acting on atoms (cartesian axes, Ry/au):

     atom    1 type  1   force =     0.00000000    0.00000000    0.00000000

     Total force =     0.000000     Total SCF correction =     0.000000


     Computing stress (Cartesian axis) and pressure

          total   stress  (Ry/bohr**3)                   (kbar)     P=-1453.98
  -0.00988399  -0.00000000  -0.00000000      -1453.98     -0.00     -0.00
  -0.00000000  -0.00988399   0.00000000         -0.00  -1453.98      0.00
  -0.00000000   0.00000000  -0.00988399         -0.00      0.00  -1453.98


     Writing output data file Cu.save/

     init_run     :      0.24s CPU      0.27s WALL (       1 calls)
     electrons    :      1.77s CPU      2.02s WALL (       1 calls)
     forces       :      0.02s CPU      0.02s WALL (       1 calls)
     stress       :      0.05s CPU      0.05s WALL (       1 calls)

     Called by init_run:
     wfcinit      :      0.05s CPU      0.05s WALL (       1 calls)
     potinit      :      0.09s CPU      0.11s WALL (       1 calls)
     hinit0       :      0.09s CPU      0.09s WALL (       1 calls)

     Called by electrons:
     c_bands      :      0.93s CPU      1.08s WALL (       7 calls)
     sum_band     :      0.15s CPU      0.16s WALL (       7 calls)
     v_of_rho     :      0.01s CPU      0.01s WALL (       8 calls)
     newd         :      0.01s CPU      0.01s WALL (       8 calls)
     PAW_pot      :      0.76s CPU      0.85s WALL (       8 calls)
     mix_rho      :      0.00s CPU      0.00s WALL (       7 calls)

     Called by c_bands:
     init_us_2    :      0.02s CPU      0.03s WALL (     952 calls)
     cegterg      :      0.88s CPU      1.03s WALL (     392 calls)

     Called by sum_band:
     sum_band:bec :      0.00s CPU      0.00s WALL (     392 calls)
     addusdens    :      0.01s CPU      0.01s WALL (       7 calls)

     Called by *egterg:
     h_psi        :      0.57s CPU      0.67s WALL (    1267 calls)
     s_psi        :      0.02s CPU      0.02s WALL (    1267 calls)
     g_psi        :      0.00s CPU      0.00s WALL (     819 calls)
     cdiaghg      :      0.20s CPU      0.24s WALL (    1211 calls)

     Called by h_psi:
     h_psi:pot    :      0.57s CPU      0.66s WALL (    1267 calls)
     h_psi:calbec :      0.03s CPU      0.04s WALL (    1267 calls)
     vloc_psi     :      0.50s CPU      0.59s WALL (    1267 calls)
     add_vuspsi   :      0.02s CPU      0.02s WALL (    1267 calls)

     General routines
     calbec       :      0.05s CPU      0.06s WALL (    1939 calls)
     fft          :      0.01s CPU      0.01s WALL (     114 calls)
     ffts         :      0.00s CPU      0.00s WALL (       7 calls)
     fftw         :      0.55s CPU      0.64s WALL (   23790 calls)

     Parallel routines
     fft_scatt_xy :      0.06s CPU      0.07s WALL (   23911 calls)
     fft_scatt_yz :      0.25s CPU      0.29s WALL (   23911 calls)

     PWSCF        :     2.87s CPU         3.21s WALL


   This run was terminated on:  23:14:12  25Mar2024            

=------------------------------------------------------------------------------=
   JOB DONE.
=------------------------------------------------------------------------------=
