
     Program PWSCF v.6.3MaX starts on 25Mar2024 at 23: 9:27 

     This program is part of the open-source Quantum ESPRESSO suite
     for quantum simulation of materials; please cite
         "P. Giannozzi et al., J. Phys.:Condens. Matter 21 395502 (2009);
         "P. Giannozzi et al., J. Phys.:Condens. Matter 29 465901 (2017);
          URL http://www.quantum-espresso.org", 
     in publications or presentations arising from this work. More details at
     http://www.quantum-espresso.org/quote

     Parallel version (MPI), running on     5 processors

     MPI processes distributed on     1 nodes
     R & G space division:  proc/nbgrp/npool/nimage =       5
     Waiting for input...
     Reading input from standard input

     Current dimensions of program PWSCF are:
     Max number of different atomic species (ntypx) = 10
     Max number of k-points (npk) =  40000
     Max angular momentum in pseudopotentials (lmaxx) =  3
               file Cu.pbe-dn-kjpaw_psl.1.0.0.UPF: wavefunction(s)  4S 3D renormalized

     Subspace diagonalization in iterative solution of the eigenvalue problem:
     a serial algorithm will be used


     Parallelization info
     --------------------
     sticks:   dense  smooth     PW     G-vecs:    dense   smooth      PW
     Min          12      12      6                   66       66      22
     Max          13      13      7                   67       67      23
     Sum          61      61     31                  331      331     113



     bravais-lattice index     =            2
     lattice parameter (alat)  =       6.8300  a.u.
     unit-cell volume          =      79.6530 (a.u.)^3
     number of atoms/cell      =            1
     number of atomic types    =            1
     number of electrons       =        11.00
     number of Kohn-Sham states=           10
     kinetic-energy cutoff     =      10.0000  Ry
     charge density cutoff     =      40.0000  Ry
     convergence threshold     =      1.0E-08
     mixing beta               =       0.7000
     number of iterations used =            8  plain     mixing
     Exchange-correlation      = SLA PW PBX PBC ( 1  4  3  4 0 0)

     celldm(1)=   6.830000  celldm(2)=   0.000000  celldm(3)=   0.000000
     celldm(4)=   0.000000  celldm(5)=   0.000000  celldm(6)=   0.000000

     crystal axes: (cart. coord. in units of alat)
               a(1) = (  -0.500000   0.000000   0.500000 )  
               a(2) = (   0.000000   0.500000   0.500000 )  
               a(3) = (  -0.500000   0.500000   0.000000 )  

     reciprocal axes: (cart. coord. in units 2 pi/alat)
               b(1) = ( -1.000000 -1.000000  1.000000 )  
               b(2) = (  1.000000  1.000000  1.000000 )  
               b(3) = ( -1.000000  1.000000 -1.000000 )  


     PseudoPot. # 1 for Cu read from file:
     /home/lorenzo/pseudos/Cu/Cu.pbe-dn-kjpaw_psl.1.0.0.UPF
     MD5 check sum: cfffd1f38ee05704b3e17f46f1730a6f
     Pseudo is Projector augmented-wave + core cor, Zval = 11.0
     Generated using "atomic" code by A. Dal Corso v.6.3
     Shape of augmentation charge: PSQ
     Using radial grid of 1199 points,  6 beta functions with: 
                l(1) =   0
                l(2) =   0
                l(3) =   1
                l(4) =   1
                l(5) =   2
                l(6) =   2
     Q(r) pseudized with 0 coefficients 


     atomic species   valence    mass     pseudopotential
        Cu            11.00    63.54600     Cu( 1.00)

     48 Sym. Ops., with inversion, found



   Cartesian axes

     site n.     atom                  positions (alat units)
         1           Cu  tau(   1) = (   0.0000000   0.0000000   0.0000000  )

     number of k points=    10  gaussian smearing, width (Ry)=  0.0100
                       cart. coord. in units 2pi/alat
        k(    1) = (   0.0000000   0.0000000   0.0000000), wk =   0.0160000
        k(    2) = (  -0.2000000   0.2000000  -0.2000000), wk =   0.1280000
        k(    3) = (  -0.4000000   0.4000000  -0.4000000), wk =   0.1280000
        k(    4) = (   0.0000000   0.4000000   0.0000000), wk =   0.0960000
        k(    5) = (  -0.2000000   0.6000000  -0.2000000), wk =   0.3840000
        k(    6) = (   0.6000000  -0.2000000   0.6000000), wk =   0.3840000
        k(    7) = (   0.4000000   0.0000000   0.4000000), wk =   0.1920000
        k(    8) = (   0.0000000   0.8000000   0.0000000), wk =   0.0960000
        k(    9) = (   0.8000000   0.0000000   0.8000000), wk =   0.1920000
        k(   10) = (   0.6000000  -0.2000000   1.0000000), wk =   0.3840000

     Dense  grid:      331 G-vectors     FFT dimensions: (   9,   9,   9)

     Estimated max dynamical RAM per process >       0.81 MB

     Estimated total dynamical RAM >       4.07 MB

     Check: negative/imaginary core charge=   -0.008472    0.000000

     Initial potential from superposition of free atoms

     starting charge   10.99977, renormalised to   11.00000
     Starting wfcs are    9 randomized atomic wfcs +    1 random wfcs
     Checking if some PAW data can be deallocated... 

     total cpu time spent up to now is        0.9 secs

     Self-consistent Calculation

     iteration #  1     ecut=    10.00 Ry     beta= 0.70
     Davidson diagonalization with overlap
     ethr =  1.00E-02,  avg # of iterations =  3.3

     total cpu time spent up to now is        1.1 secs

     total energy              =    -193.45104410 Ry
     Harris-Foulkes estimate   =    -207.85914140 Ry
     estimated scf accuracy    <      16.88186146 Ry

     iteration #  2     ecut=    10.00 Ry     beta= 0.70
     Davidson diagonalization with overlap
     ethr =  1.00E-02,  avg # of iterations =  2.8

     total cpu time spent up to now is        1.2 secs

     total energy              =    -199.27461734 Ry
     Harris-Foulkes estimate   =    -199.96895360 Ry
     estimated scf accuracy    <       1.13197809 Ry

     iteration #  3     ecut=    10.00 Ry     beta= 0.70
     Davidson diagonalization with overlap
     ethr =  1.00E-02,  avg # of iterations =  1.6

     total cpu time spent up to now is        1.3 secs

     total energy              =    -199.34317924 Ry
     Harris-Foulkes estimate   =    -199.37850610 Ry
     estimated scf accuracy    <       0.06498825 Ry

     iteration #  4     ecut=    10.00 Ry     beta= 0.70
     Davidson diagonalization with overlap
     ethr =  5.91E-04,  avg # of iterations =  1.9

     total cpu time spent up to now is        1.4 secs

     total energy              =    -199.35165803 Ry
     Harris-Foulkes estimate   =    -199.35477004 Ry
     estimated scf accuracy    <       0.00377683 Ry

     iteration #  5     ecut=    10.00 Ry     beta= 0.70
     Davidson diagonalization with overlap
     ethr =  3.43E-05,  avg # of iterations =  2.1

     total cpu time spent up to now is        1.5 secs

     total energy              =    -199.35249952 Ry
     Harris-Foulkes estimate   =    -199.35252333 Ry
     estimated scf accuracy    <       0.00000767 Ry

     iteration #  6     ecut=    10.00 Ry     beta= 0.70
     Davidson diagonalization with overlap
     ethr =  6.97E-08,  avg # of iterations =  2.2

     total cpu time spent up to now is        1.7 secs

     total energy              =    -199.35249722 Ry
     Harris-Foulkes estimate   =    -199.35249990 Ry
     estimated scf accuracy    <       0.00000632 Ry

     iteration #  7     ecut=    10.00 Ry     beta= 0.70
     Davidson diagonalization with overlap
     ethr =  5.75E-08,  avg # of iterations =  1.9

     total cpu time spent up to now is        1.8 secs

     total energy              =    -199.35249810 Ry
     Harris-Foulkes estimate   =    -199.35249824 Ry
     estimated scf accuracy    <       0.00000001 Ry

     iteration #  8     ecut=    10.00 Ry     beta= 0.70
     Davidson diagonalization with overlap
     ethr =  1.02E-10,  avg # of iterations =  2.7

     total cpu time spent up to now is        1.9 secs

     total energy              =    -199.35249867 Ry
     Harris-Foulkes estimate   =    -199.35249812 Ry
     estimated scf accuracy    <       0.00000007 Ry

     iteration #  9     ecut=    10.00 Ry     beta= 0.70
     Davidson diagonalization with overlap
     ethr =  1.02E-10,  avg # of iterations =  2.7

     total cpu time spent up to now is        2.1 secs

     End of self-consistent calculation

          k = 0.0000 0.0000 0.0000 (    51 PWs)   bands (ev):

    -8.3158  -8.3158  -1.4663  -1.4663  -1.4663   0.9675  30.2812  30.2812
    30.2812  39.8998

          k =-0.2000 0.2000-0.2000 (    46 PWs)   bands (ev):

    -4.0197  -4.0197  -3.0292   2.4244   4.5813   4.5813  24.1357  29.4230
    29.4230  39.7167

          k =-0.4000 0.4000-0.4000 (    43 PWs)   bands (ev):

    -2.3466  -1.4354  -1.4354   7.0790   8.0246   8.0246  14.5730  27.6610
    27.6610  37.3929

          k = 0.0000 0.4000 0.0000 (    43 PWs)   bands (ev):

    -2.7351   1.9415   3.3375   3.3375   3.4507   3.6138  26.7125  27.0343
    27.0343  38.8658

          k =-0.2000 0.6000-0.2000 (    44 PWs)   bands (ev):

    -3.4084   0.5956   1.0546   1.8587   5.9423   6.7242  18.5249  25.0731
    25.0774  36.4272

          k = 0.6000-0.2000 0.6000 (    38 PWs)   bands (ev):

    -0.1506   4.6894   4.9978   7.7165  12.0308  12.8001  15.2223  22.4512
    26.2681  36.8226

          k = 0.4000 0.0000 0.4000 (    43 PWs)   bands (ev):

    -1.1878   0.0498   2.2177   2.2590   5.7201   6.0487  20.8474  23.1664
    29.1675  38.5508

          k = 0.0000 0.8000 0.0000 (    40 PWs)   bands (ev):

    -4.5894  -0.4045   4.2784   8.8912  12.6650  12.6650  18.3078  22.4923
    22.4923  34.1126

          k = 0.8000 0.0000 0.8000 (    40 PWs)   bands (ev):

    -4.2702  -0.0010   3.7752   9.9871  13.4550  14.0786  16.4158  18.0966
    22.7392  35.3830

          k = 0.6000-0.2000 1.0000 (    41 PWs)   bands (ev):

    -3.1175  -2.8379   4.0240   8.7137  11.7932  12.3292  17.3126  19.1162
    22.1415  38.0289

     the Fermi energy is    12.4471 ev

!    total energy              =    -199.35249884 Ry
     Harris-Foulkes estimate   =    -199.35249876 Ry
     estimated scf accuracy    <          2.1E-10 Ry

     total all-electron energy =     -3296.232265 Ry

     The total energy is the sum of the following terms:

     one-electron contribution =      -0.71985070 Ry
     hartree contribution      =      11.52200647 Ry
     xc contribution           =     -39.02892534 Ry
     ewald contribution        =     -81.22522857 Ry
     one-center paw contrib.   =     -89.89994656 Ry
     smearing contrib. (-TS)   =      -0.00055416 Ry

     convergence has been achieved in   9 iterations

     Forces acting on atoms (cartesian axes, Ry/au):

     atom    1 type  1   force =     0.00000000    0.00000000    0.00000000

     Total force =     0.000000     Total SCF correction =     0.000000


     Computing stress (Cartesian axis) and pressure

          total   stress  (Ry/bohr**3)                   (kbar)     P=********
  -0.29366101   0.00000000   0.00000000     -43199.02      0.00      0.00
   0.00000000  -0.29366101  -0.00000000          0.00 -43199.02     -0.00
   0.00000000  -0.00000000  -0.29366101          0.00     -0.00 -43199.02


     Writing output data file Cu.save/

     init_run     :      0.16s CPU      0.18s WALL (       1 calls)
     electrons    :      1.01s CPU      1.16s WALL (       1 calls)
     forces       :      0.00s CPU      0.00s WALL (       1 calls)
     stress       :      0.01s CPU      0.01s WALL (       1 calls)

     Called by init_run:
     wfcinit      :      0.01s CPU      0.01s WALL (       1 calls)
     potinit      :      0.09s CPU      0.10s WALL (       1 calls)
     hinit0       :      0.05s CPU      0.05s WALL (       1 calls)

     Called by electrons:
     c_bands      :      0.16s CPU      0.19s WALL (       9 calls)
     sum_band     :      0.03s CPU      0.03s WALL (       9 calls)
     v_of_rho     :      0.00s CPU      0.00s WALL (      10 calls)
     newd         :      0.00s CPU      0.01s WALL (      10 calls)
     PAW_pot      :      0.90s CPU      1.03s WALL (      10 calls)
     mix_rho      :      0.00s CPU      0.00s WALL (       9 calls)

     Called by c_bands:
     init_us_2    :      0.00s CPU      0.00s WALL (     210 calls)
     cegterg      :      0.15s CPU      0.18s WALL (      90 calls)

     Called by sum_band:
     sum_band:bec :      0.00s CPU      0.00s WALL (      90 calls)
     addusdens    :      0.00s CPU      0.00s WALL (       9 calls)

     Called by *egterg:
     h_psi        :      0.09s CPU      0.11s WALL (     312 calls)
     s_psi        :      0.00s CPU      0.00s WALL (     312 calls)
     g_psi        :      0.00s CPU      0.00s WALL (     212 calls)
     cdiaghg      :      0.05s CPU      0.06s WALL (     302 calls)

     Called by h_psi:
     h_psi:pot    :      0.09s CPU      0.10s WALL (     312 calls)
     h_psi:calbec :      0.01s CPU      0.01s WALL (     312 calls)
     vloc_psi     :      0.08s CPU      0.09s WALL (     312 calls)
     add_vuspsi   :      0.00s CPU      0.00s WALL (     312 calls)

     General routines
     calbec       :      0.01s CPU      0.01s WALL (     452 calls)
     fft          :      0.00s CPU      0.00s WALL (     136 calls)
     ffts         :      0.00s CPU      0.00s WALL (       9 calls)
     fftw         :      0.08s CPU      0.09s WALL (    5606 calls)

     Parallel routines
     fft_scatt_xy :      0.01s CPU      0.01s WALL (    5751 calls)
     fft_scatt_yz :      0.04s CPU      0.05s WALL (    5751 calls)

     PWSCF        :     1.94s CPU         2.16s WALL


   This run was terminated on:  23: 9:29  25Mar2024            

=------------------------------------------------------------------------------=
   JOB DONE.
=------------------------------------------------------------------------------=
