
     Program PWSCF v.6.3MaX starts on 25Mar2024 at 23:27:25 

     This program is part of the open-source Quantum ESPRESSO suite
     for quantum simulation of materials; please cite
         "P. Giannozzi et al., J. Phys.:Condens. Matter 21 395502 (2009);
         "P. Giannozzi et al., J. Phys.:Condens. Matter 29 465901 (2017);
          URL http://www.quantum-espresso.org", 
     in publications or presentations arising from this work. More details at
     http://www.quantum-espresso.org/quote

     Parallel version (MPI), running on     5 processors

     MPI processes distributed on     1 nodes
     R & G space division:  proc/nbgrp/npool/nimage =       5
     Waiting for input...
     Reading input from standard input

     Current dimensions of program PWSCF are:
     Max number of different atomic species (ntypx) = 10
     Max number of k-points (npk) =  40000
     Max angular momentum in pseudopotentials (lmaxx) =  3
               file Cu.pbe-dn-kjpaw_psl.1.0.0.UPF: wavefunction(s)  4S 3D renormalized

     Subspace diagonalization in iterative solution of the eigenvalue problem:
     a serial algorithm will be used


     Parallelization info
     --------------------
     sticks:   dense  smooth     PW     G-vecs:    dense   smooth      PW
     Min          72      72     24                  876      876     173
     Max          73      73     25                  877      877     174
     Sum         361     361    121                 4381     4381     869



     bravais-lattice index     =            2
     lattice parameter (alat)  =       6.8300  a.u.
     unit-cell volume          =      79.6530 (a.u.)^3
     number of atoms/cell      =            1
     number of atomic types    =            1
     number of electrons       =        11.00
     number of Kohn-Sham states=           10
     kinetic-energy cutoff     =      55.0000  Ry
     charge density cutoff     =     220.0000  Ry
     convergence threshold     =      1.0E-08
     mixing beta               =       0.7000
     number of iterations used =            8  plain     mixing
     Exchange-correlation      = SLA PW PBX PBC ( 1  4  3  4 0 0)

     celldm(1)=   6.830000  celldm(2)=   0.000000  celldm(3)=   0.000000
     celldm(4)=   0.000000  celldm(5)=   0.000000  celldm(6)=   0.000000

     crystal axes: (cart. coord. in units of alat)
               a(1) = (  -0.500000   0.000000   0.500000 )  
               a(2) = (   0.000000   0.500000   0.500000 )  
               a(3) = (  -0.500000   0.500000   0.000000 )  

     reciprocal axes: (cart. coord. in units 2 pi/alat)
               b(1) = ( -1.000000 -1.000000  1.000000 )  
               b(2) = (  1.000000  1.000000  1.000000 )  
               b(3) = ( -1.000000  1.000000 -1.000000 )  


     PseudoPot. # 1 for Cu read from file:
     /home/lorenzo/pseudos/Cu/Cu.pbe-dn-kjpaw_psl.1.0.0.UPF
     MD5 check sum: cfffd1f38ee05704b3e17f46f1730a6f
     Pseudo is Projector augmented-wave + core cor, Zval = 11.0
     Generated using "atomic" code by A. Dal Corso v.6.3
     Shape of augmentation charge: PSQ
     Using radial grid of 1199 points,  6 beta functions with: 
                l(1) =   0
                l(2) =   0
                l(3) =   1
                l(4) =   1
                l(5) =   2
                l(6) =   2
     Q(r) pseudized with 0 coefficients 


     atomic species   valence    mass     pseudopotential
        Cu            11.00    63.54600     Cu( 1.00)

     48 Sym. Ops., with inversion, found



   Cartesian axes

     site n.     atom                  positions (alat units)
         1           Cu  tau(   1) = (   0.0000000   0.0000000   0.0000000  )

     number of k points=    35  gaussian smearing, width (Ry)=  0.0100
                       cart. coord. in units 2pi/alat
        k(    1) = (   0.0000000   0.0000000   0.0000000), wk =   0.0027435
        k(    2) = (  -0.1111111   0.1111111  -0.1111111), wk =   0.0219479
        k(    3) = (  -0.2222222   0.2222222  -0.2222222), wk =   0.0219479
        k(    4) = (  -0.3333333   0.3333333  -0.3333333), wk =   0.0219479
        k(    5) = (  -0.4444444   0.4444444  -0.4444444), wk =   0.0219479
        k(    6) = (   0.0000000   0.2222222   0.0000000), wk =   0.0164609
        k(    7) = (  -0.1111111   0.3333333  -0.1111111), wk =   0.0658436
        k(    8) = (  -0.2222222   0.4444444  -0.2222222), wk =   0.0658436
        k(    9) = (  -0.3333333   0.5555556  -0.3333333), wk =   0.0658436
        k(   10) = (   0.5555556  -0.3333333   0.5555556), wk =   0.0658436
        k(   11) = (   0.4444444  -0.2222222   0.4444444), wk =   0.0658436
        k(   12) = (   0.3333333  -0.1111111   0.3333333), wk =   0.0658436
        k(   13) = (   0.2222222  -0.0000000   0.2222222), wk =   0.0329218
        k(   14) = (   0.0000000   0.4444444   0.0000000), wk =   0.0164609
        k(   15) = (  -0.1111111   0.5555556  -0.1111111), wk =   0.0658436
        k(   16) = (  -0.2222222   0.6666667  -0.2222222), wk =   0.0658436
        k(   17) = (   0.6666667  -0.2222222   0.6666667), wk =   0.0658436
        k(   18) = (   0.5555556  -0.1111111   0.5555556), wk =   0.0658436
        k(   19) = (   0.4444444   0.0000000   0.4444444), wk =   0.0329218
        k(   20) = (   0.0000000   0.6666667   0.0000000), wk =   0.0164609
        k(   21) = (  -0.1111111   0.7777778  -0.1111111), wk =   0.0658436
        k(   22) = (   0.7777778  -0.1111111   0.7777778), wk =   0.0658436
        k(   23) = (   0.6666667  -0.0000000   0.6666667), wk =   0.0329218
        k(   24) = (   0.0000000   0.8888889   0.0000000), wk =   0.0164609
        k(   25) = (   0.8888889   0.0000000   0.8888889), wk =   0.0329218
        k(   26) = (  -0.2222222   0.4444444   0.0000000), wk =   0.0658436
        k(   27) = (  -0.3333333   0.5555556  -0.1111111), wk =   0.1316872
        k(   28) = (   0.5555556  -0.3333333   0.7777778), wk =   0.1316872
        k(   29) = (  -0.2222222   0.6666667   0.0000000), wk =   0.0658436
        k(   30) = (   0.6666667  -0.2222222   0.8888889), wk =   0.1316872
        k(   31) = (   0.5555556  -0.1111111   0.7777778), wk =   0.1316872
        k(   32) = (   0.4444444   0.0000000   0.6666667), wk =   0.0658436
        k(   33) = (   0.7777778  -0.1111111   1.0000000), wk =   0.0658436
        k(   34) = (   0.6666667  -0.0000000   0.8888889), wk =   0.0658436
        k(   35) = (   0.5555556  -0.1111111   1.0000000), wk =   0.0658436

     Dense  grid:     4381 G-vectors     FFT dimensions: (  24,  24,  24)

     Estimated max dynamical RAM per process >       5.18 MB

     Estimated total dynamical RAM >      25.88 MB

     Initial potential from superposition of free atoms

     starting charge   10.99977, renormalised to   11.00000
     Starting wfcs are    9 randomized atomic wfcs +    1 random wfcs
     Checking if some PAW data can be deallocated... 

     total cpu time spent up to now is        1.1 secs

     Self-consistent Calculation

     iteration #  1     ecut=    55.00 Ry     beta= 0.70
     Davidson diagonalization with overlap
     ethr =  1.00E-02,  avg # of iterations =  3.8

     Threshold (ethr) on eigenvalues was too large:
     Diagonalizing with lowered threshold

     Davidson diagonalization with overlap
     ethr =  5.52E-04,  avg # of iterations =  1.1

     total cpu time spent up to now is        1.6 secs

     total energy              =    -213.06173157 Ry
     Harris-Foulkes estimate   =    -213.10932747 Ry
     estimated scf accuracy    <       0.06045566 Ry

     iteration #  2     ecut=    55.00 Ry     beta= 0.70
     Davidson diagonalization with overlap
     ethr =  5.50E-04,  avg # of iterations =  2.0

     total cpu time spent up to now is        2.0 secs

     total energy              =    -213.06352303 Ry
     Harris-Foulkes estimate   =    -213.14682166 Ry
     estimated scf accuracy    <       0.21549908 Ry

     iteration #  3     ecut=    55.00 Ry     beta= 0.70
     Davidson diagonalization with overlap
     ethr =  5.50E-04,  avg # of iterations =  2.1

     total cpu time spent up to now is        2.4 secs

     total energy              =    -213.09754476 Ry
     Harris-Foulkes estimate   =    -213.09757945 Ry
     estimated scf accuracy    <       0.00008688 Ry

     iteration #  4     ecut=    55.00 Ry     beta= 0.70
     Davidson diagonalization with overlap
     ethr =  7.90E-07,  avg # of iterations =  2.5

     total cpu time spent up to now is        2.7 secs

     total energy              =    -213.09759502 Ry
     Harris-Foulkes estimate   =    -213.09760295 Ry
     estimated scf accuracy    <       0.00002287 Ry

     iteration #  5     ecut=    55.00 Ry     beta= 0.70
     Davidson diagonalization with overlap
     ethr =  2.08E-07,  avg # of iterations =  1.1

     total cpu time spent up to now is        2.9 secs

     total energy              =    -213.09759909 Ry
     Harris-Foulkes estimate   =    -213.09759924 Ry
     estimated scf accuracy    <       0.00000038 Ry

     iteration #  6     ecut=    55.00 Ry     beta= 0.70
     Davidson diagonalization with overlap
     ethr =  3.49E-09,  avg # of iterations =  2.1

     total cpu time spent up to now is        3.2 secs

     End of self-consistent calculation

          k = 0.0000 0.0000 0.0000 (   537 PWs)   bands (ev):

     3.2695   9.6769   9.6769   9.6769  10.5087  10.5087  35.5884  37.9894
    37.9894  37.9894

          k =-0.1111 0.1111-0.1111 (   540 PWs)   bands (ev):

     3.7158   9.5864   9.7549   9.7549  10.4826  10.4826  32.2514  36.1863
    36.8919  36.8919

          k =-0.2222 0.2222-0.2222 (   552 PWs)   bands (ev):

     4.9811   9.4270   9.8425   9.8425  10.5388  10.5388  26.4910  35.5836
    35.6952  35.6952

          k =-0.3333 0.3333-0.3333 (   555 PWs)   bands (ev):

     6.6485   9.6529   9.7575   9.7575  10.8115  10.8115  21.2768  34.7026
    35.0116  35.0116

          k =-0.4444 0.4444-0.4444 (   556 PWs)   bands (ev):

     7.5177   9.6573   9.6573  11.0492  11.0492  11.1212  17.2286  34.0809
    34.7759  34.7759

          k = 0.0000 0.2222 0.0000 (   544 PWs)   bands (ev):

     3.8633   9.5035   9.8190   9.8190  10.3546  10.5725  33.9712  34.4546
    34.4546  36.1099

          k =-0.1111 0.3333-0.1111 (   551 PWs)   bands (ev):

     4.8554   9.3157   9.9069   9.9566  10.3296  10.6587  28.6751  32.7661
    33.9115  36.9505

          k =-0.2222 0.4444-0.2222 (   551 PWs)   bands (ev):

     6.4379   9.2502   9.7261   9.9412  10.7987  10.8809  23.2316  31.8950
    33.0378  34.6758

          k =-0.3333 0.5556-0.3333 (   551 PWs)   bands (ev):

     7.6231   9.5062   9.8297   9.8324  11.0777  11.8532  18.6113  31.5161
    31.9332  33.6464

          k = 0.5556-0.3333 0.5556 (   556 PWs)   bands (ev):

     7.8203   9.4911   9.7784  10.1987  11.0377  12.8784  16.6548  30.1240
    32.9696  33.8979

          k = 0.4444-0.2222 0.4444 (   552 PWs)   bands (ev):

     7.3718   9.6083   9.6203   9.8364  10.7483  11.5959  20.0334  29.5212
    35.0040  35.0084

          k = 0.3333-0.1111 0.3333 (   547 PWs)   bands (ev):

     5.8863   9.2893   9.7868   9.9629  10.3822  10.9548  24.9876  29.7492
    36.9089  37.9263

          k = 0.2222-0.0000 0.2222 (   553 PWs)   bands (ev):

     4.4379   9.4352   9.8456   9.8802  10.3341  10.6186  30.3118  31.0597
    37.9594  39.6189

          k = 0.0000 0.4444 0.0000 (   556 PWs)   bands (ev):

     5.5193   9.0743  10.0605  10.2165  10.2165  10.7355  30.6064  30.6064
    32.0686  32.4949

          k =-0.1111 0.5556-0.1111 (   554 PWs)   bands (ev):

     6.7691   8.8761   9.8259  10.3355  10.8389  10.9146  25.8218  29.3424
    29.7695  32.5712

          k =-0.2222 0.6667-0.2222 (   546 PWs)   bands (ev):

     7.9271   8.8849   9.6362  10.2521  11.1069  12.3149  20.8831  27.2667
    29.1087  32.4677

          k = 0.6667-0.2222 0.6667 (   553 PWs)   bands (ev):

     8.3311   9.0252   9.6544  10.1514  11.0542  14.7068  17.1189  25.4543
    29.9804  32.7736

          k = 0.5556-0.1111 0.5556 (   548 PWs)   bands (ev):

     8.2728   9.2215   9.4014  10.1218  10.7480  13.2952  19.4476  24.4812
    31.8894  33.7085

          k = 0.4444 0.0000 0.4444 (   550 PWs)   bands (ev):

     7.3044   9.1502   9.5412  10.1588  10.3716  11.7478  23.8036  24.7515
    34.6465  35.3446

          k = 0.0000 0.6667 0.0000 (   556 PWs)   bands (ev):

     7.3631   8.6036  10.5929  10.7521  10.7521  10.9236  26.3306  27.6463
    27.6463  30.8748

          k =-0.1111 0.7778-0.1111 (   547 PWs)   bands (ev):

     7.8746   8.4949  10.4110  10.7584  11.1218  12.5474  23.5620  23.9088
    27.0269  31.5466

          k = 0.7778-0.1111 0.7778 (   549 PWs)   bands (ev):

     8.2828   8.5916  10.0108  10.6294  11.1038  15.4069  19.5426  21.6836
    27.6109  31.9006

          k = 0.6667-0.0000 0.6667 (   544 PWs)   bands (ev):

     8.6347   8.8002   9.5380  10.4363  10.8843  15.9162  18.5914  21.1570
    29.3124  32.5616

          k = 0.0000 0.8889 0.0000 (   544 PWs)   bands (ev):

     7.7900   8.3057  11.0481  11.1670  11.1670  13.2898  20.9292  25.9837
    25.9837  30.3231

          k = 0.8889 0.0000 0.8889 (   550 PWs)   bands (ev):

     7.9332   8.3474  10.7954  10.9636  11.1890  14.8768  19.8940  23.1498
    26.1919  31.2536

          k =-0.2222 0.4444 0.0000 (   549 PWs)   bands (ev):

     6.0226   9.1156   9.7669  10.2275  10.3342  10.9716  27.1258  27.7642
    33.5596  36.4015

          k =-0.3333 0.5556-0.1111 (   548 PWs)   bands (ev):

     7.4937   9.0856   9.5031  10.1757  10.7171  11.7656  22.1870  27.0051
    30.8154  36.4664

          k = 0.5556-0.3333 0.7778 (   550 PWs)   bands (ev):

     8.1795   9.1952   9.6075  10.0623  11.0009  13.5632  17.8779  27.3787
    28.7395  36.0255

          k =-0.2222 0.6667 0.0000 (   551 PWs)   bands (ev):

     7.7352   8.7243   9.7397  10.7288  10.7495  11.8983  24.7035  25.3599
    26.8599  34.6340

          k = 0.6667-0.2222 0.8889 (   550 PWs)   bands (ev):

     8.3666   8.7712   9.5625  10.5304  11.0474  14.0669  20.3326  24.4772
    25.2671  35.4190

          k = 0.5556-0.1111 0.7778 (   544 PWs)   bands (ev):

     8.7148   8.7964   9.4074  10.3768  11.0155  16.1229  17.7188  22.9632
    26.3240  36.1224

          k = 0.4444 0.0000 0.6667 (   552 PWs)   bands (ev):

     8.4829   9.0725   9.1347  10.3883  10.7644  13.4654  21.2986  22.7516
    28.2266  37.4263

          k = 0.7778-0.1111 1.0000 (   550 PWs)   bands (ev):

     8.0653   8.4707  10.3144  10.8737  11.1662  14.5347  21.2726  23.3155
    24.0879  33.7632

          k = 0.6667-0.0000 0.8889 (   536 PWs)   bands (ev):

     8.3682   8.6612   9.8345  10.6340  11.1634  16.9283  19.5596  20.4921
    24.6211  35.0628

          k = 0.5556-0.1111 1.0000 (   542 PWs)   bands (ev):

     8.5566   8.9798   9.2968  10.4971  11.1641  16.7860  19.8599  21.7334
    22.5038  39.5643

     the Fermi energy is    12.7449 ev

!    total energy              =    -213.09759918 Ry
     Harris-Foulkes estimate   =    -213.09759918 Ry
     estimated scf accuracy    <          2.5E-10 Ry

     total all-electron energy =     -3309.977365 Ry

     The total energy is the sum of the following terms:

     one-electron contribution =     -28.01930643 Ry
     hartree contribution      =      30.62295989 Ry
     xc contribution           =     -44.62950679 Ry
     ewald contribution        =     -81.22522864 Ry
     one-center paw contrib.   =     -89.84642371 Ry
     smearing contrib. (-TS)   =      -0.00009350 Ry

     convergence has been achieved in   6 iterations

     Forces acting on atoms (cartesian axes, Ry/au):

     atom    1 type  1   force =     0.00000000    0.00000000    0.00000000

     Total force =     0.000000     Total SCF correction =     0.000000


     Computing stress (Cartesian axis) and pressure

          total   stress  (Ry/bohr**3)                   (kbar)     P=   14.85
   0.00010096   0.00000000   0.00000000         14.85      0.00      0.00
   0.00000000   0.00010096  -0.00000000          0.00     14.85     -0.00
   0.00000000  -0.00000000   0.00010096          0.00     -0.00     14.85


     Writing output data file Cu.save/

     init_run     :      0.32s CPU      0.34s WALL (       1 calls)
     electrons    :      1.99s CPU      2.18s WALL (       1 calls)
     forces       :      0.03s CPU      0.03s WALL (       1 calls)
     stress       :      0.09s CPU      0.09s WALL (       1 calls)

     Called by init_run:
     wfcinit      :      0.05s CPU      0.06s WALL (       1 calls)
     potinit      :      0.11s CPU      0.12s WALL (       1 calls)
     hinit0       :      0.13s CPU      0.13s WALL (       1 calls)

     Called by electrons:
     c_bands      :      1.19s CPU      1.28s WALL (       7 calls)
     sum_band     :      0.23s CPU      0.25s WALL (       7 calls)
     v_of_rho     :      0.02s CPU      0.02s WALL (       7 calls)
     newd         :      0.03s CPU      0.03s WALL (       7 calls)
     PAW_pot      :      0.63s CPU      0.72s WALL (       7 calls)
     mix_rho      :      0.00s CPU      0.00s WALL (       7 calls)

     Called by c_bands:
     init_us_2    :      0.04s CPU      0.04s WALL (     595 calls)
     cegterg      :      1.14s CPU      1.22s WALL (     245 calls)

     Called by sum_band:
     sum_band:bec :      0.00s CPU      0.00s WALL (     245 calls)
     addusdens    :      0.03s CPU      0.03s WALL (       7 calls)

     Called by *egterg:
     h_psi        :      0.88s CPU      0.94s WALL (     793 calls)
     s_psi        :      0.03s CPU      0.03s WALL (     793 calls)
     g_psi        :      0.00s CPU      0.00s WALL (     513 calls)
     cdiaghg      :      0.13s CPU      0.14s WALL (     723 calls)

     Called by h_psi:
     h_psi:pot    :      0.87s CPU      0.94s WALL (     793 calls)
     h_psi:calbec :      0.04s CPU      0.04s WALL (     793 calls)
     vloc_psi     :      0.80s CPU      0.86s WALL (     793 calls)
     add_vuspsi   :      0.03s CPU      0.03s WALL (     793 calls)

     General routines
     calbec       :      0.07s CPU      0.07s WALL (    1213 calls)
     fft          :      0.01s CPU      0.01s WALL (     104 calls)
     ffts         :      0.00s CPU      0.00s WALL (       7 calls)
     fftw         :      0.88s CPU      0.95s WALL (   14864 calls)

     Parallel routines
     fft_scatt_xy :      0.08s CPU      0.09s WALL (   14975 calls)
     fft_scatt_yz :      0.27s CPU      0.28s WALL (   14975 calls)

     PWSCF        :     3.17s CPU         3.44s WALL


   This run was terminated on:  23:27:29  25Mar2024            

=------------------------------------------------------------------------------=
   JOB DONE.
=------------------------------------------------------------------------------=
