
     Program PWSCF v.6.3MaX starts on 27Mar2024 at  0:25:20 

     This program is part of the open-source Quantum ESPRESSO suite
     for quantum simulation of materials; please cite
         "P. Giannozzi et al., J. Phys.:Condens. Matter 21 395502 (2009);
         "P. Giannozzi et al., J. Phys.:Condens. Matter 29 465901 (2017);
          URL http://www.quantum-espresso.org", 
     in publications or presentations arising from this work. More details at
     http://www.quantum-espresso.org/quote

     Parallel version (MPI), running on     5 processors

     MPI processes distributed on     1 nodes
     R & G space division:  proc/nbgrp/npool/nimage =       5
     Waiting for input...
     Reading input from standard input

     Current dimensions of program PWSCF are:
     Max number of different atomic species (ntypx) = 10
     Max number of k-points (npk) =  40000
     Max angular momentum in pseudopotentials (lmaxx) =  3
               file Ag.pbe-n-kjpaw_psl.1.0.0.UPF: wavefunction(s)  5S 5P renormalized

     Subspace diagonalization in iterative solution of the eigenvalue problem:
     a serial algorithm will be used


     Parallelization info
     --------------------
     sticks:   dense  smooth     PW     G-vecs:    dense   smooth      PW
     Min          99      99     32                 1446     1446     272
     Max         100     100     33                 1449     1449     273
     Sum         499     499    163                 7239     7239    1363



     bravais-lattice index     =            2
     lattice parameter (alat)  =       7.7200  a.u.
     unit-cell volume          =     115.0249 (a.u.)^3
     number of atoms/cell      =            1
     number of atomic types    =            1
     number of electrons       =        11.00
     number of Kohn-Sham states=           10
     kinetic-energy cutoff     =      60.0000  Ry
     charge density cutoff     =     240.0000  Ry
     convergence threshold     =      1.0E-08
     mixing beta               =       0.7000
     number of iterations used =            8  plain     mixing
     Exchange-correlation      = SLA PW PBX PBC ( 1  4  3  4 0 0)

     celldm(1)=   7.720000  celldm(2)=   0.000000  celldm(3)=   0.000000
     celldm(4)=   0.000000  celldm(5)=   0.000000  celldm(6)=   0.000000

     crystal axes: (cart. coord. in units of alat)
               a(1) = (  -0.500000   0.000000   0.500000 )  
               a(2) = (   0.000000   0.500000   0.500000 )  
               a(3) = (  -0.500000   0.500000   0.000000 )  

     reciprocal axes: (cart. coord. in units 2 pi/alat)
               b(1) = ( -1.000000 -1.000000  1.000000 )  
               b(2) = (  1.000000  1.000000  1.000000 )  
               b(3) = ( -1.000000  1.000000 -1.000000 )  


     PseudoPot. # 1 for Ag read from file:
     /home/lorenzo/pseudos/Ag/Ag.pbe-n-kjpaw_psl.1.0.0.UPF
     MD5 check sum: 51099775af2a3182a6a1caffb86952a3
     Pseudo is Projector augmented-wave + core cor, Zval = 11.0
     Generated using "atomic" code by A. Dal Corso v.6.2.2
     Shape of augmentation charge: PSQ
     Using radial grid of 1237 points,  6 beta functions with: 
                l(1) =   0
                l(2) =   0
                l(3) =   1
                l(4) =   1
                l(5) =   2
                l(6) =   2
     Q(r) pseudized with 0 coefficients 


     atomic species   valence    mass     pseudopotential
        Ag            11.00   107.86820     Ag( 1.00)

     48 Sym. Ops., with inversion, found



   Cartesian axes

     site n.     atom                  positions (alat units)
         1           Ag  tau(   1) = (   0.0000000   0.0000000   0.0000000  )

     number of k points=    56  gaussian smearing, width (Ry)=  0.0100
                       cart. coord. in units 2pi/alat
        k(    1) = (   0.0000000   0.0000000   0.0000000), wk =   0.0015026
        k(    2) = (  -0.0909091   0.0909091  -0.0909091), wk =   0.0120210
        k(    3) = (  -0.1818182   0.1818182  -0.1818182), wk =   0.0120210
        k(    4) = (  -0.2727273   0.2727273  -0.2727273), wk =   0.0120210
        k(    5) = (  -0.3636364   0.3636364  -0.3636364), wk =   0.0120210
        k(    6) = (  -0.4545455   0.4545455  -0.4545455), wk =   0.0120210
        k(    7) = (   0.0000000   0.1818182   0.0000000), wk =   0.0090158
        k(    8) = (  -0.0909091   0.2727273  -0.0909091), wk =   0.0360631
        k(    9) = (  -0.1818182   0.3636364  -0.1818182), wk =   0.0360631
        k(   10) = (  -0.2727273   0.4545455  -0.2727273), wk =   0.0360631
        k(   11) = (  -0.3636364   0.5454545  -0.3636364), wk =   0.0360631
        k(   12) = (   0.5454545  -0.3636364   0.5454545), wk =   0.0360631
        k(   13) = (   0.4545455  -0.2727273   0.4545455), wk =   0.0360631
        k(   14) = (   0.3636364  -0.1818182   0.3636364), wk =   0.0360631
        k(   15) = (   0.2727273  -0.0909091   0.2727273), wk =   0.0360631
        k(   16) = (   0.1818182  -0.0000000   0.1818182), wk =   0.0180316
        k(   17) = (   0.0000000   0.3636364   0.0000000), wk =   0.0090158
        k(   18) = (  -0.0909091   0.4545455  -0.0909091), wk =   0.0360631
        k(   19) = (  -0.1818182   0.5454545  -0.1818182), wk =   0.0360631
        k(   20) = (  -0.2727273   0.6363636  -0.2727273), wk =   0.0360631
        k(   21) = (   0.6363636  -0.2727273   0.6363636), wk =   0.0360631
        k(   22) = (   0.5454545  -0.1818182   0.5454545), wk =   0.0360631
        k(   23) = (   0.4545455  -0.0909091   0.4545455), wk =   0.0360631
        k(   24) = (   0.3636364   0.0000000   0.3636364), wk =   0.0180316
        k(   25) = (   0.0000000   0.5454545   0.0000000), wk =   0.0090158
        k(   26) = (  -0.0909091   0.6363636  -0.0909091), wk =   0.0360631
        k(   27) = (  -0.1818182   0.7272727  -0.1818182), wk =   0.0360631
        k(   28) = (   0.7272727  -0.1818182   0.7272727), wk =   0.0360631
        k(   29) = (   0.6363636  -0.0909091   0.6363636), wk =   0.0360631
        k(   30) = (   0.5454545   0.0000000   0.5454545), wk =   0.0180316
        k(   31) = (   0.0000000   0.7272727   0.0000000), wk =   0.0090158
        k(   32) = (  -0.0909091   0.8181818  -0.0909091), wk =   0.0360631
        k(   33) = (   0.8181818  -0.0909091   0.8181818), wk =   0.0360631
        k(   34) = (   0.7272727   0.0000000   0.7272727), wk =   0.0180316
        k(   35) = (   0.0000000   0.9090909   0.0000000), wk =   0.0090158
        k(   36) = (   0.9090909  -0.0000000   0.9090909), wk =   0.0180316
        k(   37) = (  -0.1818182   0.3636364   0.0000000), wk =   0.0360631
        k(   38) = (  -0.2727273   0.4545455  -0.0909091), wk =   0.0721262
        k(   39) = (  -0.3636364   0.5454545  -0.1818182), wk =   0.0721262
        k(   40) = (   0.5454545  -0.3636364   0.7272727), wk =   0.0721262
        k(   41) = (  -0.1818182   0.5454545   0.0000000), wk =   0.0360631
        k(   42) = (  -0.2727273   0.6363636  -0.0909091), wk =   0.0721262
        k(   43) = (   0.6363636  -0.2727273   0.8181818), wk =   0.0721262
        k(   44) = (   0.5454545  -0.1818182   0.7272727), wk =   0.0721262
        k(   45) = (   0.4545455  -0.0909091   0.6363636), wk =   0.0721262
        k(   46) = (   0.3636364   0.0000000   0.5454545), wk =   0.0360631
        k(   47) = (  -0.1818182   0.7272727   0.0000000), wk =   0.0360631
        k(   48) = (   0.7272727  -0.1818182   0.9090909), wk =   0.0721262
        k(   49) = (   0.6363636  -0.0909091   0.8181818), wk =   0.0721262
        k(   50) = (   0.5454545   0.0000000   0.7272727), wk =   0.0360631
        k(   51) = (   0.8181818  -0.0909091   1.0000000), wk =   0.0360631
        k(   52) = (   0.7272727   0.0000000   0.9090909), wk =   0.0360631
        k(   53) = (   0.6363636  -0.2727273   1.0000000), wk =   0.0360631
        k(   54) = (   0.5454545  -0.1818182   0.9090909), wk =   0.0721262
        k(   55) = (   0.6363636  -0.0909091   1.0000000), wk =   0.0360631
        k(   56) = (   0.5454545   0.0000000   0.9090909), wk =   0.0360631

     Dense  grid:     7239 G-vectors     FFT dimensions: (  27,  27,  27)

     Estimated max dynamical RAM per process >       8.49 MB

     Estimated total dynamical RAM >      42.45 MB

     Initial potential from superposition of free atoms

     starting charge   10.99960, renormalised to   11.00000
     Starting wfcs are    9 randomized atomic wfcs +    1 random wfcs
     Checking if some PAW data can be deallocated... 

     total cpu time spent up to now is        1.3 secs

     Self-consistent Calculation

     iteration #  1     ecut=    60.00 Ry     beta= 0.70
     Davidson diagonalization with overlap
     ethr =  1.00E-02,  avg # of iterations =  4.7

     Threshold (ethr) on eigenvalues was too large:
     Diagonalizing with lowered threshold

     Davidson diagonalization with overlap
     ethr =  2.93E-05,  avg # of iterations =  2.4

     total cpu time spent up to now is        2.6 secs

     total energy              =    -355.30437000 Ry
     Harris-Foulkes estimate   =    -355.30640085 Ry
     estimated scf accuracy    <       0.00353115 Ry

     iteration #  2     ecut=    60.00 Ry     beta= 0.70
     Davidson diagonalization with overlap
     ethr =  3.21E-05,  avg # of iterations =  2.0

     total cpu time spent up to now is        3.3 secs

     total energy              =    -355.30536994 Ry
     Harris-Foulkes estimate   =    -355.30659478 Ry
     estimated scf accuracy    <       0.00262077 Ry

     iteration #  3     ecut=    60.00 Ry     beta= 0.70
     Davidson diagonalization with overlap
     ethr =  2.38E-05,  avg # of iterations =  1.6

     total cpu time spent up to now is        3.9 secs

     total energy              =    -355.30587889 Ry
     Harris-Foulkes estimate   =    -355.30585729 Ry
     estimated scf accuracy    <       0.00001521 Ry

     iteration #  4     ecut=    60.00 Ry     beta= 0.70
     Davidson diagonalization with overlap
     ethr =  1.38E-07,  avg # of iterations =  2.8

     total cpu time spent up to now is        4.5 secs

     total energy              =    -355.30588519 Ry
     Harris-Foulkes estimate   =    -355.30588496 Ry
     estimated scf accuracy    <       0.00000034 Ry

     iteration #  5     ecut=    60.00 Ry     beta= 0.70
     Davidson diagonalization with overlap
     ethr =  3.09E-09,  avg # of iterations =  1.4

     total cpu time spent up to now is        5.1 secs

     End of self-consistent calculation

          k = 0.0000 0.0000 0.0000 (   893 PWs)   bands (ev):

     5.0646   8.0728   8.0728   8.0728   9.1123   9.1123  29.7999  33.0871
    33.0871  37.3811

          k =-0.0909 0.0909-0.0909 (   914 PWs)   bands (ev):

     5.3196   8.0180   8.1418   8.1418   9.0879   9.0879  29.5722  31.1793
    33.0678  33.0678

          k =-0.1818 0.1818-0.1818 (   914 PWs)   bands (ev):

     5.9858   7.9810   8.2655   8.2655   9.0985   9.0985  26.7734  30.5186
    32.9218  32.9218

          k =-0.2727 0.2727-0.2727 (   905 PWs)   bands (ev):

     6.5352   8.2569   8.2569   8.5482   9.3128   9.3128  23.1782  30.0392
    32.4612  32.4612

          k =-0.3636 0.3636-0.3636 (   911 PWs)   bands (ev):

     6.5603   8.1459   8.1459   9.6456   9.6456  10.1336  19.7552  29.3413
    31.7274  31.7274

          k =-0.4545 0.4545-0.4545 (   899 PWs)   bands (ev):

     6.4803   8.0619   8.0619   9.8785   9.8785  12.0161  17.0051  28.8992
    31.1753  31.1753

          k = 0.0000 0.1818 0.0000 (   909 PWs)   bands (ev):

     5.4052   7.9398   8.1988   8.1988   8.9825   9.1700  29.8056  31.8539
    31.9511  31.9511

          k =-0.0909 0.2727-0.0909 (   907 PWs)   bands (ev):

     5.9474   7.8113   8.3393   8.3450   8.9156   9.2354  28.1238  30.2691
    31.0351  33.0051

          k =-0.1818 0.3636-0.1818 (   907 PWs)   bands (ev):

     6.6058   7.9238   8.2999   8.4011   9.2710   9.4204  24.5397  29.9047
    30.3171  33.1680

          k =-0.2727 0.4545-0.2727 (   907 PWs)   bands (ev):

     6.7302   8.1158   8.3181   8.6475   9.7098  10.3098  21.0086  29.2712
    29.8541  31.5891

          k =-0.3636 0.5455-0.3636 (   903 PWs)   bands (ev):

     6.6407   7.9900   8.2118   9.2445   9.9057  12.0640  17.8954  28.6410
    29.8203  30.3612

          k = 0.5455-0.3636 0.5455 (   899 PWs)   bands (ev):

     6.6127   7.9660   8.1659   9.4757   9.8677  13.0651  16.5878  28.1836
    29.8669  30.4131

          k = 0.4545-0.2727 0.4545 (   900 PWs)   bands (ev):

     6.6850   8.0439   8.2103   9.2730   9.5912  11.5035  18.8687  28.0182
    30.1739  31.7160

          k = 0.3636-0.1818 0.3636 (   903 PWs)   bands (ev):

     6.7644   8.1432   8.3252   8.5709   9.1957  10.1342  22.1723  28.1965
    31.1368  33.6572

          k = 0.2727-0.0909 0.2727 (   910 PWs)   bands (ev):

     6.4325   7.8582   8.3450   8.3870   8.9120   9.4723  25.7547  28.6202
    32.2902  34.3791

          k = 0.1818-0.0000 0.1818 (   911 PWs)   bands (ev):

     5.7225   7.9054   8.2421   8.2740   8.9566   9.1911  29.0185  29.3796
    32.2108  34.2722

          k = 0.0000 0.3636 0.0000 (   909 PWs)   bands (ev):

     6.2976   7.5961   8.5601   8.5601   8.7641   9.3278  29.5416  29.5416
    29.8296  30.2300

          k =-0.0909 0.4545-0.0909 (   899 PWs)   bands (ev):

     6.8301   7.4465   8.4605   8.7250   9.2994   9.4853  26.1806  28.4608
    29.4836  30.7887

          k =-0.1818 0.5455-0.1818 (   897 PWs)   bands (ev):

     6.9851   7.6796   8.2890   8.6991   9.7562  10.5786  22.5931  27.8548
    28.1957  30.1987

          k =-0.2727 0.6364-0.2727 (   898 PWs)   bands (ev):

     6.9179   7.8079   8.4680   8.5891   9.9389  12.4645  19.2637  26.7470
    27.8378  29.7803

          k = 0.6364-0.2727 0.6364 (   902 PWs)   bands (ev):

     6.9269   7.7695   8.5006   8.7387   9.8798  14.4330  16.7786  25.6017
    28.5141  29.6487

          k = 0.5455-0.1818 0.5455 (   906 PWs)   bands (ev):

     7.0364   7.8224   8.4863   8.6983   9.5749  13.2852  18.3670  24.9269
    29.8864  29.9390

          k = 0.4545-0.0909 0.4545 (   895 PWs)   bands (ev):

     7.2132   7.8958   8.3184   8.5626   9.1342  11.5035  21.5603  24.7777
    30.7447  31.8268

          k = 0.3636 0.0000 0.3636 (   917 PWs)   bands (ev):

     7.1107   7.6703   8.2851   8.6931   8.7227  10.2517  24.9161  25.2506
    32.0370  34.0807

          k = 0.0000 0.5455 0.0000 (   894 PWs)   bands (ev):

     6.9175   7.1719   9.0953   9.0953   9.3822   9.5399  27.0382  27.0382
    27.8717  29.8746

          k =-0.0909 0.6364-0.0909 (   895 PWs)   bands (ev):

     6.9245   7.0720   8.9998   9.2039   9.7634  10.7856  24.3213  25.9713
    26.1704  30.0037

          k =-0.1818 0.7273-0.1818 (   896 PWs)   bands (ev):

     6.8805   7.2439   8.7869   9.1109   9.9674  12.7917  21.0212  24.2445
    25.9889  29.8508

          k = 0.7273-0.1818 0.7273 (   904 PWs)   bands (ev):

     6.9601   7.4964   8.5583   8.9891   9.9176  15.2053  18.0526  22.8502
    26.5729  29.7551

          k = 0.6364-0.0909 0.6364 (   900 PWs)   bands (ev):

     7.1753   7.7483   8.2779   8.8890   9.6277  15.3115  18.2081  21.8919
    27.8725  29.8443

          k = 0.5455 0.0000 0.5455 (   895 PWs)   bands (ev):

     7.4435   7.8361   8.0684   8.7897   9.2725  13.2261  21.1768  21.6265
    29.7110  30.1980

          k = 0.0000 0.7273 0.0000 (   902 PWs)   bands (ev):

     6.7072   6.8046   9.6699   9.6699   9.7401  11.4678  23.7974  25.0159
    25.0159  29.9246

          k =-0.0909 0.8182-0.0909 (   904 PWs)   bands (ev):

     6.6412   6.7665   9.6025   9.6230   9.9881  13.1644  21.8996  23.0106
    24.5819  29.9564

          k = 0.8182-0.0909 0.8182 (   910 PWs)   bands (ev):

     6.7164   6.9900   9.1920   9.4844   9.9853  15.3872  19.9839  20.7813
    24.9780  29.8808

          k = 0.7273 0.0000 0.7273 (   903 PWs)   bands (ev):

     6.9267   7.3977   8.6460   9.2596   9.7866  17.5654  17.5723  20.0995
    26.1436  29.8257

          k = 0.0000 0.9091 0.0000 (   914 PWs)   bands (ev):

     6.4601   6.5953   9.8617  10.0634  10.0634  13.9150  20.2893  23.8657
    23.8657  29.9569

          k = 0.9091-0.0000 0.9091 (   914 PWs)   bands (ev):

     6.5084   6.6578   9.7887   9.8419  10.0809  14.9322  19.6207  22.4581
    24.0068  29.9733

          k =-0.1818 0.3636 0.0000 (   907 PWs)   bands (ev):

     6.5440   7.6430   8.3514   8.5617   8.9169   9.4962  27.1874  27.4015
    31.9574  32.0605

          k =-0.2727 0.4545-0.0909 (   903 PWs)   bands (ev):

     7.0318   7.7694   8.1601   8.6412   9.2067  10.2417  23.6704  26.7508
    30.3415  32.5970

          k =-0.3636 0.5455-0.1818 (   894 PWs)   bands (ev):

     6.9662   7.9471   8.3354   8.6026   9.6173  11.6467  20.2267  26.5547
    28.8334  31.7952

          k = 0.5455-0.3636 0.7273 (   899 PWs)   bands (ev):

     6.8741   7.8168   8.4073   8.8747   9.8348  13.5590  17.3080  26.8209
    27.6477  31.1344

          k =-0.1818 0.5455 0.0000 (   899 PWs)   bands (ev):

     7.1379   7.2738   8.4050   9.0889   9.3723  10.3190  25.2780  25.5077
    28.1494  31.6179

          k =-0.2727 0.6364-0.0909 (   901 PWs)   bands (ev):

     7.1078   7.4772   8.2663   9.0781   9.6732  11.8919  21.9222  25.0513
    26.3842  31.7304

          k = 0.6364-0.2727 0.8182 (   899 PWs)   bands (ev):

     7.0940   7.6098   8.2943   8.9120   9.8671  14.0079  18.7435  24.8673
    25.3124  31.5154

          k = 0.5455-0.1818 0.7273 (   901 PWs)   bands (ev):

     7.2012   7.6024   8.3726   8.7840   9.8009  15.4629  17.1064  23.8105
    26.0738  31.6627

          k = 0.4545-0.0909 0.6364 (   901 PWs)   bands (ev):

     7.3748   7.6832   8.0940   8.8682   9.5178  13.3921  19.8790  23.2338
    27.2922  32.3888

          k = 0.3636 0.0000 0.5455 (   900 PWs)   bands (ev):

     7.5417   7.5946   7.9209   9.0057   9.1074  11.5857  23.1510  23.2720
    28.7813  33.6545

          k =-0.1818 0.7273 0.0000 (   903 PWs)   bands (ev):

     6.9016   6.9463   8.9570   9.6651   9.6882  12.2655  23.5496  23.8121
    24.1687  31.3163

          k = 0.7273-0.1818 0.9091 (   905 PWs)   bands (ev):

     6.9086   7.1240   8.7327   9.4294   9.9368  14.3631  20.6440  22.4032
    23.8891  31.4870

          k = 0.6364-0.0909 0.8182 (   909 PWs)   bands (ev):

     7.0483   7.4358   8.4116   9.1773   9.9006  16.8594  17.8932  21.1623
    24.6074  31.5872

          k = 0.5455 0.0000 0.7273 (   898 PWs)   bands (ev):

     7.3074   7.7476   7.9863   9.0323   9.6712  15.4497  19.4542  20.7051
    25.8237  31.9609

          k = 0.8182-0.0909 1.0000 (   908 PWs)   bands (ev):

     6.6404   6.7583   9.4385   9.7368  10.0630  14.7226  20.3830  22.7958
    22.8929  31.1848

          k = 0.7273 0.0000 0.9091 (   911 PWs)   bands (ev):

     6.7947   7.0125   8.9970   9.4772  10.0579  16.3630  19.6604  20.4269
    23.4406  31.4492

          k = 0.6364-0.2727 1.0000 (   905 PWs)   bands (ev):

     7.3561   7.3593   8.0847   9.3023   9.6568  13.7203  21.6447  21.8800
    24.7281  34.1198

          k = 0.5455-0.1818 0.9091 (   901 PWs)   bands (ev):

     7.3314   7.5415   7.9998   9.0995   9.8880  15.9747  18.6971  22.1797
    23.4161  33.8767

          k = 0.6364-0.0909 1.0000 (   899 PWs)   bands (ev):

     7.0506   7.2413   8.4440   9.3123  10.0615  16.3893  20.5897  20.6813
    21.7078  33.8451

          k = 0.5455 0.0000 0.9091 (   905 PWs)   bands (ev):

     7.1833   7.5952   8.0180   9.1364  10.0588  18.2486  18.4202  20.2351
    22.1257  34.4859

     the Fermi energy is    13.1057 ev

!    total energy              =    -355.30588521 Ry
     Harris-Foulkes estimate   =    -355.30588521 Ry
     estimated scf accuracy    <          6.5E-09 Ry

     total all-electron energy =    -10632.271939 Ry

     The total energy is the sum of the following terms:

     one-electron contribution =       1.56397248 Ry
     hartree contribution      =      14.66030063 Ry
     xc contribution           =     -22.35238417 Ry
     ewald contribution        =     -71.86118019 Ry
     one-center paw contrib.   =    -277.31637236 Ry
     smearing contrib. (-TS)   =      -0.00022160 Ry

     convergence has been achieved in   5 iterations

     Forces acting on atoms (cartesian axes, Ry/au):

     atom    1 type  1   force =     0.00000000    0.00000000    0.00000000

     Total force =     0.000000     Total SCF correction =     0.000000


     Computing stress (Cartesian axis) and pressure

          total   stress  (Ry/bohr**3)                   (kbar)     P=   39.48
   0.00026841   0.00000000   0.00000000         39.48      0.00      0.00
   0.00000000   0.00026841  -0.00000000          0.00     39.48     -0.00
   0.00000000  -0.00000000   0.00026841          0.00     -0.00     39.48


     Writing output data file Ag.save/

     init_run     :      0.46s CPU      0.48s WALL (       1 calls)
     electrons    :      3.60s CPU      3.81s WALL (       1 calls)
     forces       :      0.06s CPU      0.06s WALL (       1 calls)
     stress       :      0.18s CPU      0.18s WALL (       1 calls)

     Called by init_run:
     wfcinit      :      0.16s CPU      0.16s WALL (       1 calls)
     potinit      :      0.12s CPU      0.14s WALL (       1 calls)
     hinit0       :      0.16s CPU      0.16s WALL (       1 calls)

     Called by electrons:
     c_bands      :      2.57s CPU      2.68s WALL (       6 calls)
     sum_band     :      0.49s CPU      0.51s WALL (       6 calls)
     v_of_rho     :      0.03s CPU      0.03s WALL (       6 calls)
     newd         :      0.04s CPU      0.05s WALL (       6 calls)
     PAW_pot      :      0.58s CPU      0.67s WALL (       6 calls)
     mix_rho      :      0.00s CPU      0.00s WALL (       6 calls)

     Called by c_bands:
     init_us_2    :      0.09s CPU      0.09s WALL (     840 calls)
     cegterg      :      2.46s CPU      2.56s WALL (     336 calls)

     Called by sum_band:
     sum_band:bec :      0.00s CPU      0.00s WALL (     336 calls)
     addusdens    :      0.04s CPU      0.04s WALL (       6 calls)

     Called by *egterg:
     h_psi        :      1.99s CPU      2.08s WALL (    1226 calls)
     s_psi        :      0.07s CPU      0.07s WALL (    1226 calls)
     g_psi        :      0.01s CPU      0.01s WALL (     834 calls)
     cdiaghg      :      0.23s CPU      0.24s WALL (    1114 calls)

     Called by h_psi:
     h_psi:pot    :      1.98s CPU      2.07s WALL (    1226 calls)
     h_psi:calbec :      0.09s CPU      0.09s WALL (    1226 calls)
     vloc_psi     :      1.82s CPU      1.90s WALL (    1226 calls)
     add_vuspsi   :      0.07s CPU      0.07s WALL (    1226 calls)

     General routines
     calbec       :      0.14s CPU      0.15s WALL (    1842 calls)
     fft          :      0.02s CPU      0.02s WALL (      93 calls)
     ffts         :      0.00s CPU      0.00s WALL (       6 calls)
     fftw         :      2.03s CPU      2.12s WALL (   20896 calls)

     Parallel routines
     fft_scatt_xy :      0.18s CPU      0.19s WALL (   20995 calls)
     fft_scatt_yz :      0.44s CPU      0.46s WALL (   20995 calls)

     PWSCF        :     5.13s CPU         5.47s WALL


   This run was terminated on:   0:25:26  27Mar2024            

=------------------------------------------------------------------------------=
   JOB DONE.
=------------------------------------------------------------------------------=
