
     Program PWSCF v.6.3MaX starts on 27Mar2024 at  0:24: 9 

     This program is part of the open-source Quantum ESPRESSO suite
     for quantum simulation of materials; please cite
         "P. Giannozzi et al., J. Phys.:Condens. Matter 21 395502 (2009);
         "P. Giannozzi et al., J. Phys.:Condens. Matter 29 465901 (2017);
          URL http://www.quantum-espresso.org", 
     in publications or presentations arising from this work. More details at
     http://www.quantum-espresso.org/quote

     Parallel version (MPI), running on     5 processors

     MPI processes distributed on     1 nodes
     R & G space division:  proc/nbgrp/npool/nimage =       5
     Waiting for input...
     Reading input from standard input

     Current dimensions of program PWSCF are:
     Max number of different atomic species (ntypx) = 10
     Max number of k-points (npk) =  40000
     Max angular momentum in pseudopotentials (lmaxx) =  3
               file Ag.pbesol-n-kjpaw_psl.1.0.0.UPF: wavefunction(s)  5S 5P renormalized

     Subspace diagonalization in iterative solution of the eigenvalue problem:
     a serial algorithm will be used


     Parallelization info
     --------------------
     sticks:   dense  smooth     PW     G-vecs:    dense   smooth      PW
     Min          90      90     30                 1274     1274     241
     Max          91      91     31                 1276     1276     244
     Sum         451     451    151                 6375     6375    1211



     bravais-lattice index     =            2
     lattice parameter (alat)  =       7.7200  a.u.
     unit-cell volume          =     115.0249 (a.u.)^3
     number of atoms/cell      =            1
     number of atomic types    =            1
     number of electrons       =        11.00
     number of Kohn-Sham states=           10
     kinetic-energy cutoff     =      55.0000  Ry
     charge density cutoff     =     220.0000  Ry
     convergence threshold     =      1.0E-08
     mixing beta               =       0.7000
     number of iterations used =            8  plain     mixing
     Exchange-correlation      = SLA PW PSX PSC ( 1  4 10  8 0 0)

     celldm(1)=   7.720000  celldm(2)=   0.000000  celldm(3)=   0.000000
     celldm(4)=   0.000000  celldm(5)=   0.000000  celldm(6)=   0.000000

     crystal axes: (cart. coord. in units of alat)
               a(1) = (  -0.500000   0.000000   0.500000 )  
               a(2) = (   0.000000   0.500000   0.500000 )  
               a(3) = (  -0.500000   0.500000   0.000000 )  

     reciprocal axes: (cart. coord. in units 2 pi/alat)
               b(1) = ( -1.000000 -1.000000  1.000000 )  
               b(2) = (  1.000000  1.000000  1.000000 )  
               b(3) = ( -1.000000  1.000000 -1.000000 )  


     PseudoPot. # 1 for Ag read from file:
     /home/lorenzo/pseudos/Ag/Ag.pbesol-n-kjpaw_psl.1.0.0.UPF
     MD5 check sum: 3b245e14fa22881b2ac493bfd23f605f
     Pseudo is Projector augmented-wave + core cor, Zval = 11.0
     Generated using "atomic" code by A. Dal Corso v.6.2.2
     Shape of augmentation charge: PSQ
     Using radial grid of 1237 points,  6 beta functions with: 
                l(1) =   0
                l(2) =   0
                l(3) =   1
                l(4) =   1
                l(5) =   2
                l(6) =   2
     Q(r) pseudized with 0 coefficients 


     atomic species   valence    mass     pseudopotential
        Ag            11.00   107.86820     Ag( 1.00)

     48 Sym. Ops., with inversion, found



   Cartesian axes

     site n.     atom                  positions (alat units)
         1           Ag  tau(   1) = (   0.0000000   0.0000000   0.0000000  )

     number of k points=    16  gaussian smearing, width (Ry)=  0.0100
                       cart. coord. in units 2pi/alat
        k(    1) = (   0.0000000   0.0000000   0.0000000), wk =   0.0092593
        k(    2) = (  -0.1666667   0.1666667  -0.1666667), wk =   0.0740741
        k(    3) = (  -0.3333333   0.3333333  -0.3333333), wk =   0.0740741
        k(    4) = (   0.5000000  -0.5000000   0.5000000), wk =   0.0370370
        k(    5) = (   0.0000000   0.3333333   0.0000000), wk =   0.0555556
        k(    6) = (  -0.1666667   0.5000000  -0.1666667), wk =   0.2222222
        k(    7) = (   0.6666667  -0.3333333   0.6666667), wk =   0.2222222
        k(    8) = (   0.5000000  -0.1666667   0.5000000), wk =   0.2222222
        k(    9) = (   0.3333333   0.0000000   0.3333333), wk =   0.1111111
        k(   10) = (   0.0000000   0.6666667   0.0000000), wk =   0.0555556
        k(   11) = (   0.8333333  -0.1666667   0.8333333), wk =   0.2222222
        k(   12) = (   0.6666667  -0.0000000   0.6666667), wk =   0.1111111
        k(   13) = (   0.0000000  -1.0000000   0.0000000), wk =   0.0277778
        k(   14) = (   0.6666667  -0.3333333   1.0000000), wk =   0.2222222
        k(   15) = (   0.5000000  -0.1666667   0.8333333), wk =   0.2222222
        k(   16) = (  -0.3333333  -1.0000000   0.0000000), wk =   0.1111111

     Dense  grid:     6375 G-vectors     FFT dimensions: (  25,  25,  25)

     Estimated max dynamical RAM per process >       6.57 MB

     Estimated total dynamical RAM >      32.87 MB

     Initial potential from superposition of free atoms

     starting charge   10.99964, renormalised to   11.00000
     Starting wfcs are    9 randomized atomic wfcs +    1 random wfcs
     Checking if some PAW data can be deallocated... 

     total cpu time spent up to now is        1.2 secs

     Self-consistent Calculation

     iteration #  1     ecut=    55.00 Ry     beta= 0.70
     Davidson diagonalization with overlap
     ethr =  1.00E-02,  avg # of iterations =  4.7

     Threshold (ethr) on eigenvalues was too large:
     Diagonalizing with lowered threshold

     Davidson diagonalization with overlap
     ethr =  4.62E-05,  avg # of iterations =  2.9

     total cpu time spent up to now is        1.6 secs

     total energy              =    -350.23084178 Ry
     Harris-Foulkes estimate   =    -350.23448769 Ry
     estimated scf accuracy    <       0.00552836 Ry

     iteration #  2     ecut=    55.00 Ry     beta= 0.70
     Davidson diagonalization with overlap
     ethr =  5.03E-05,  avg # of iterations =  2.0

     total cpu time spent up to now is        1.8 secs

     total energy              =    -350.23239959 Ry
     Harris-Foulkes estimate   =    -350.23442531 Ry
     estimated scf accuracy    <       0.00420540 Ry

     iteration #  3     ecut=    55.00 Ry     beta= 0.70
     Davidson diagonalization with overlap
     ethr =  3.82E-05,  avg # of iterations =  1.6

     total cpu time spent up to now is        2.1 secs

     total energy              =    -350.23321084 Ry
     Harris-Foulkes estimate   =    -350.23319347 Ry
     estimated scf accuracy    <       0.00001456 Ry

     iteration #  4     ecut=    55.00 Ry     beta= 0.70
     Davidson diagonalization with overlap
     ethr =  1.32E-07,  avg # of iterations =  3.0

     total cpu time spent up to now is        2.3 secs

     total energy              =    -350.23321977 Ry
     Harris-Foulkes estimate   =    -350.23321958 Ry
     estimated scf accuracy    <       0.00000052 Ry

     iteration #  5     ecut=    55.00 Ry     beta= 0.70
     Davidson diagonalization with overlap
     ethr =  4.77E-09,  avg # of iterations =  1.0

     total cpu time spent up to now is        2.5 secs

     End of self-consistent calculation

          k = 0.0000 0.0000 0.0000 (   821 PWs)   bands (ev):

     4.8053   7.9160   7.9160   7.9160   8.9691   8.9691  29.5445  32.8299
    32.8299  37.1509

          k =-0.1667 0.1667-0.1667 (   800 PWs)   bands (ev):

     5.6043   7.8060   8.0952   8.0952   8.9429   8.9429  27.1167  30.3032
    32.7113  32.7113

          k =-0.3333 0.3333-0.3333 (   805 PWs)   bands (ev):

     6.3819   8.0307   8.0307   9.2985   9.3947   9.3947  20.6235  29.3139
    31.7181  31.7181

          k = 0.5000-0.5000 0.5000 (   796 PWs)   bands (ev):

     6.2789   7.8953   7.8953   9.7732   9.7732  12.1897  16.2522  28.5904
    30.8276  30.8276

          k = 0.0000 0.3333 0.0000 (   805 PWs)   bands (ev):

     5.8748   7.5017   8.3315   8.3315   8.6321   9.1553  29.5830  29.7202
    29.7202  30.2463

          k =-0.1667 0.5000-0.1667 (   801 PWs)   bands (ev):

     6.7627   7.4970   8.1017   8.5002   9.5195   9.8696  23.2484  28.0525
    28.7002  30.3177

          k = 0.6667-0.3333 0.6667 (   792 PWs)   bands (ev):

     6.6862   7.6554   8.3129   8.5671   9.8009  13.2252  17.3605  26.3225
    28.1612  29.4196

          k = 0.5000-0.1667 0.5000 (   792 PWs)   bands (ev):

     6.8376   7.7397   8.2967   8.5035   9.2926  12.1363  19.2047  25.1270
    29.9359  30.5648

          k = 0.3333 0.0000 0.3333 (   801 PWs)   bands (ev):

     6.6601   7.5290   8.1605   8.4520   8.6027   9.7919  25.3598  25.7071
    32.2707  33.3835

          k = 0.0000 0.6667 0.0000 (   797 PWs)   bands (ev):

     6.6253   6.7446   9.3408   9.3408   9.5418  10.4377  24.9399  25.3531
    25.3531  29.6856

          k = 0.8333-0.1667 0.8333 (   788 PWs)   bands (ev):

     6.5721   6.8276   8.9992   9.2605   9.8690  13.9204  20.4984  21.7755
    24.8575  29.6519

          k = 0.6667-0.0000 0.6667 (   792 PWs)   bands (ev):

     6.9379   7.5156   8.1394   8.9246   9.4909  15.7952  18.4617  20.1917
    26.9536  29.6070

          k = 0.0000-1.0000 0.0000 (   790 PWs)   bands (ev):

     6.2487   6.3960   9.7430   9.9823   9.9823  14.2118  19.3762  23.4484
    23.4484  29.7442

          k = 0.6667-0.3333 1.0000 (   789 PWs)   bands (ev):

     7.1726   7.2406   7.8983   9.1631   9.3296  12.4589  22.2663  22.2832
    25.6736  33.4864

          k = 0.5000-0.1667 0.8333 (   794 PWs)   bands (ev):

     7.2359   7.2819   7.9402   8.8429   9.7341  16.3068  17.0443  22.8814
    23.5184  32.9905

          k =-0.3333-1.0000 0.0000 (   782 PWs)   bands (ev):

     6.7707   6.9513   8.5203   9.2197   9.9833  16.6063  19.5444  20.6822
    21.4107  33.0698

     the Fermi energy is    12.4896 ev

!    total energy              =    -350.23321979 Ry
     Harris-Foulkes estimate   =    -350.23321980 Ry
     estimated scf accuracy    <          3.9E-09 Ry

     total all-electron energy =    -10627.243629 Ry

     The total energy is the sum of the following terms:

     one-electron contribution =       1.61748952 Ry
     hartree contribution      =      14.56753852 Ry
     xc contribution           =     -22.14289189 Ry
     ewald contribution        =     -71.86118025 Ry
     one-center paw contrib.   =    -272.41357844 Ry
     smearing contrib. (-TS)   =      -0.00059726 Ry

     convergence has been achieved in   5 iterations

     Forces acting on atoms (cartesian axes, Ry/au):

     atom    1 type  1   force =     0.00000000    0.00000000    0.00000000

     Total force =     0.000000     Total SCF correction =     0.000000


     Computing stress (Cartesian axis) and pressure

          total   stress  (Ry/bohr**3)                   (kbar)     P=  -31.96
  -0.00021723  -0.00000000  -0.00000000        -31.96     -0.00     -0.00
  -0.00000000  -0.00021723   0.00000000         -0.00    -31.96      0.00
  -0.00000000   0.00000000  -0.00021723         -0.00      0.00    -31.96


     Writing output data file Ag.save/

     init_run     :      0.33s CPU      0.35s WALL (       1 calls)
     electrons    :      1.28s CPU      1.39s WALL (       1 calls)
     forces       :      0.03s CPU      0.03s WALL (       1 calls)
     stress       :      0.09s CPU      0.09s WALL (       1 calls)

     Called by init_run:
     wfcinit      :      0.04s CPU      0.04s WALL (       1 calls)
     potinit      :      0.11s CPU      0.13s WALL (       1 calls)
     hinit0       :      0.16s CPU      0.16s WALL (       1 calls)

     Called by electrons:
     c_bands      :      0.62s CPU      0.66s WALL (       6 calls)
     sum_band     :      0.15s CPU      0.15s WALL (       6 calls)
     v_of_rho     :      0.02s CPU      0.02s WALL (       6 calls)
     newd         :      0.03s CPU      0.04s WALL (       6 calls)
     PAW_pot      :      0.56s CPU      0.64s WALL (       6 calls)
     mix_rho      :      0.01s CPU      0.01s WALL (       6 calls)

     Called by c_bands:
     init_us_2    :      0.03s CPU      0.03s WALL (     240 calls)
     cegterg      :      0.59s CPU      0.62s WALL (      96 calls)

     Called by sum_band:
     sum_band:bec :      0.00s CPU      0.00s WALL (      96 calls)
     addusdens    :      0.04s CPU      0.04s WALL (       6 calls)

     Called by *egterg:
     h_psi        :      0.46s CPU      0.48s WALL (     355 calls)
     s_psi        :      0.02s CPU      0.02s WALL (     355 calls)
     g_psi        :      0.00s CPU      0.00s WALL (     243 calls)
     cdiaghg      :      0.07s CPU      0.07s WALL (     323 calls)

     Called by h_psi:
     h_psi:pot    :      0.45s CPU      0.48s WALL (     355 calls)
     h_psi:calbec :      0.02s CPU      0.02s WALL (     355 calls)
     vloc_psi     :      0.41s CPU      0.43s WALL (     355 calls)
     add_vuspsi   :      0.02s CPU      0.02s WALL (     355 calls)

     General routines
     calbec       :      0.04s CPU      0.04s WALL (     531 calls)
     fft          :      0.01s CPU      0.02s WALL (      93 calls)
     ffts         :      0.00s CPU      0.00s WALL (       6 calls)
     fftw         :      0.46s CPU      0.49s WALL (    5948 calls)

     Parallel routines
     fft_scatt_xy :      0.04s CPU      0.04s WALL (    6047 calls)
     fft_scatt_yz :      0.11s CPU      0.12s WALL (    6047 calls)

     PWSCF        :     2.54s CPU         2.73s WALL


   This run was terminated on:   0:24:12  27Mar2024            

=------------------------------------------------------------------------------=
   JOB DONE.
=------------------------------------------------------------------------------=
