
     Program PWSCF v.6.3MaX starts on 27Mar2024 at  0:20: 0 

     This program is part of the open-source Quantum ESPRESSO suite
     for quantum simulation of materials; please cite
         "P. Giannozzi et al., J. Phys.:Condens. Matter 21 395502 (2009);
         "P. Giannozzi et al., J. Phys.:Condens. Matter 29 465901 (2017);
          URL http://www.quantum-espresso.org", 
     in publications or presentations arising from this work. More details at
     http://www.quantum-espresso.org/quote

     Parallel version (MPI), running on     5 processors

     MPI processes distributed on     1 nodes
     R & G space division:  proc/nbgrp/npool/nimage =       5
     Waiting for input...
     Reading input from standard input

     Current dimensions of program PWSCF are:
     Max number of different atomic species (ntypx) = 10
     Max number of k-points (npk) =  40000
     Max angular momentum in pseudopotentials (lmaxx) =  3
               file Ag.pbe-n-kjpaw_psl.1.0.0.UPF: wavefunction(s)  5S 5P renormalized

     Subspace diagonalization in iterative solution of the eigenvalue problem:
     a serial algorithm will be used


     Parallelization info
     --------------------
     sticks:   dense  smooth     PW     G-vecs:    dense   smooth      PW
     Min          73      73     24                  928      928     178
     Max          74      74     25                  930      930     181
     Sum         367     367    121                 4645     4645     893



     bravais-lattice index     =            2
     lattice parameter (alat)  =       7.7200  a.u.
     unit-cell volume          =     115.0249 (a.u.)^3
     number of atoms/cell      =            1
     number of atomic types    =            1
     number of electrons       =        11.00
     number of Kohn-Sham states=           10
     kinetic-energy cutoff     =      45.0000  Ry
     charge density cutoff     =     180.0000  Ry
     convergence threshold     =      1.0E-08
     mixing beta               =       0.7000
     number of iterations used =            8  plain     mixing
     Exchange-correlation      = SLA PW PBX PBC ( 1  4  3  4 0 0)

     celldm(1)=   7.720000  celldm(2)=   0.000000  celldm(3)=   0.000000
     celldm(4)=   0.000000  celldm(5)=   0.000000  celldm(6)=   0.000000

     crystal axes: (cart. coord. in units of alat)
               a(1) = (  -0.500000   0.000000   0.500000 )  
               a(2) = (   0.000000   0.500000   0.500000 )  
               a(3) = (  -0.500000   0.500000   0.000000 )  

     reciprocal axes: (cart. coord. in units 2 pi/alat)
               b(1) = ( -1.000000 -1.000000  1.000000 )  
               b(2) = (  1.000000  1.000000  1.000000 )  
               b(3) = ( -1.000000  1.000000 -1.000000 )  


     PseudoPot. # 1 for Ag read from file:
     /home/lorenzo/pseudos/Ag/Ag.pbe-n-kjpaw_psl.1.0.0.UPF
     MD5 check sum: 51099775af2a3182a6a1caffb86952a3
     Pseudo is Projector augmented-wave + core cor, Zval = 11.0
     Generated using "atomic" code by A. Dal Corso v.6.2.2
     Shape of augmentation charge: PSQ
     Using radial grid of 1237 points,  6 beta functions with: 
                l(1) =   0
                l(2) =   0
                l(3) =   1
                l(4) =   1
                l(5) =   2
                l(6) =   2
     Q(r) pseudized with 0 coefficients 


     atomic species   valence    mass     pseudopotential
        Ag            11.00   107.86820     Ag( 1.00)

     48 Sym. Ops., with inversion, found



   Cartesian axes

     site n.     atom                  positions (alat units)
         1           Ag  tau(   1) = (   0.0000000   0.0000000   0.0000000  )

     number of k points=    35  gaussian smearing, width (Ry)=  0.0100
                       cart. coord. in units 2pi/alat
        k(    1) = (   0.0000000   0.0000000   0.0000000), wk =   0.0027435
        k(    2) = (  -0.1111111   0.1111111  -0.1111111), wk =   0.0219479
        k(    3) = (  -0.2222222   0.2222222  -0.2222222), wk =   0.0219479
        k(    4) = (  -0.3333333   0.3333333  -0.3333333), wk =   0.0219479
        k(    5) = (  -0.4444444   0.4444444  -0.4444444), wk =   0.0219479
        k(    6) = (   0.0000000   0.2222222   0.0000000), wk =   0.0164609
        k(    7) = (  -0.1111111   0.3333333  -0.1111111), wk =   0.0658436
        k(    8) = (  -0.2222222   0.4444444  -0.2222222), wk =   0.0658436
        k(    9) = (  -0.3333333   0.5555556  -0.3333333), wk =   0.0658436
        k(   10) = (   0.5555556  -0.3333333   0.5555556), wk =   0.0658436
        k(   11) = (   0.4444444  -0.2222222   0.4444444), wk =   0.0658436
        k(   12) = (   0.3333333  -0.1111111   0.3333333), wk =   0.0658436
        k(   13) = (   0.2222222  -0.0000000   0.2222222), wk =   0.0329218
        k(   14) = (   0.0000000   0.4444444   0.0000000), wk =   0.0164609
        k(   15) = (  -0.1111111   0.5555556  -0.1111111), wk =   0.0658436
        k(   16) = (  -0.2222222   0.6666667  -0.2222222), wk =   0.0658436
        k(   17) = (   0.6666667  -0.2222222   0.6666667), wk =   0.0658436
        k(   18) = (   0.5555556  -0.1111111   0.5555556), wk =   0.0658436
        k(   19) = (   0.4444444   0.0000000   0.4444444), wk =   0.0329218
        k(   20) = (   0.0000000   0.6666667   0.0000000), wk =   0.0164609
        k(   21) = (  -0.1111111   0.7777778  -0.1111111), wk =   0.0658436
        k(   22) = (   0.7777778  -0.1111111   0.7777778), wk =   0.0658436
        k(   23) = (   0.6666667  -0.0000000   0.6666667), wk =   0.0329218
        k(   24) = (   0.0000000   0.8888889   0.0000000), wk =   0.0164609
        k(   25) = (   0.8888889   0.0000000   0.8888889), wk =   0.0329218
        k(   26) = (  -0.2222222   0.4444444   0.0000000), wk =   0.0658436
        k(   27) = (  -0.3333333   0.5555556  -0.1111111), wk =   0.1316872
        k(   28) = (   0.5555556  -0.3333333   0.7777778), wk =   0.1316872
        k(   29) = (  -0.2222222   0.6666667   0.0000000), wk =   0.0658436
        k(   30) = (   0.6666667  -0.2222222   0.8888889), wk =   0.1316872
        k(   31) = (   0.5555556  -0.1111111   0.7777778), wk =   0.1316872
        k(   32) = (   0.4444444   0.0000000   0.6666667), wk =   0.0658436
        k(   33) = (   0.7777778  -0.1111111   1.0000000), wk =   0.0658436
        k(   34) = (   0.6666667  -0.0000000   0.8888889), wk =   0.0658436
        k(   35) = (   0.5555556  -0.1111111   1.0000000), wk =   0.0658436

     Dense  grid:     4645 G-vectors     FFT dimensions: (  24,  24,  24)

     Estimated max dynamical RAM per process >       5.44 MB

     Estimated total dynamical RAM >      27.18 MB

     Initial potential from superposition of free atoms

     starting charge   10.99960, renormalised to   11.00000
     Starting wfcs are    9 randomized atomic wfcs +    1 random wfcs
     Checking if some PAW data can be deallocated... 

     total cpu time spent up to now is        1.1 secs

     Self-consistent Calculation

     iteration #  1     ecut=    45.00 Ry     beta= 0.70
     Davidson diagonalization with overlap
     ethr =  1.00E-02,  avg # of iterations =  4.6

     Threshold (ethr) on eigenvalues was too large:
     Diagonalizing with lowered threshold

     Davidson diagonalization with overlap
     ethr =  2.83E-05,  avg # of iterations =  2.7

     total cpu time spent up to now is        1.9 secs

     total energy              =    -355.29982445 Ry
     Harris-Foulkes estimate   =    -355.30163503 Ry
     estimated scf accuracy    <       0.00341244 Ry

     iteration #  2     ecut=    45.00 Ry     beta= 0.70
     Davidson diagonalization with overlap
     ethr =  3.10E-05,  avg # of iterations =  2.0

     total cpu time spent up to now is        2.2 secs

     total energy              =    -355.30074980 Ry
     Harris-Foulkes estimate   =    -355.30185879 Ry
     estimated scf accuracy    <       0.00234459 Ry

     iteration #  3     ecut=    45.00 Ry     beta= 0.70
     Davidson diagonalization with overlap
     ethr =  2.13E-05,  avg # of iterations =  1.7

     total cpu time spent up to now is        2.5 secs

     total energy              =    -355.30122371 Ry
     Harris-Foulkes estimate   =    -355.30120040 Ry
     estimated scf accuracy    <       0.00001597 Ry

     iteration #  4     ecut=    45.00 Ry     beta= 0.70
     Davidson diagonalization with overlap
     ethr =  1.45E-07,  avg # of iterations =  2.8

     total cpu time spent up to now is        2.8 secs

     total energy              =    -355.30122969 Ry
     Harris-Foulkes estimate   =    -355.30122942 Ry
     estimated scf accuracy    <       0.00000029 Ry

     iteration #  5     ecut=    45.00 Ry     beta= 0.70
     Davidson diagonalization with overlap
     ethr =  2.59E-09,  avg # of iterations =  1.9

     total cpu time spent up to now is        3.2 secs

     End of self-consistent calculation

          k = 0.0000 0.0000 0.0000 (   561 PWs)   bands (ev):

     5.0665   8.0870   8.0870   8.0870   9.1256   9.1256  29.8012  33.0897
    33.0897  37.3881

          k =-0.1111 0.1111-0.1111 (   576 PWs)   bands (ev):

     5.4427   8.0115   8.1853   8.1853   9.0949   9.0949  29.2106  30.8301
    33.0557  33.0557

          k =-0.2222 0.2222-0.2222 (   582 PWs)   bands (ev):

     6.3014   8.1140   8.2975   8.2975   9.1792   9.1792  25.1822  30.3687
    32.7683  32.7683

          k =-0.3333 0.3333-0.3333 (   589 PWs)   bands (ev):

     6.5910   8.1984   8.1984   9.5310   9.5501   9.5501  20.8618  29.5656
    31.9816  31.9816

          k =-0.4444 0.4444-0.4444 (   592 PWs)   bands (ev):

     6.4964   8.0809   8.0809   9.8767   9.8767  11.8398  17.2447  28.9308
    31.2156  31.2156

          k = 0.0000 0.2222 0.0000 (   569 PWs)   bands (ev):

     5.5693   7.8917   8.2744   8.2744   8.9409   9.2113  29.8111  31.4746
    31.4746  31.4750

          k =-0.1111 0.3333-0.1111 (   580 PWs)   bands (ev):

     6.3122   7.7379   8.3957   8.4533   8.9869   9.3321  26.9094  30.0828
    30.2852  32.8133

          k =-0.2222 0.4444-0.2222 (   592 PWs)   bands (ev):

     6.8118   8.1825   8.1882   8.4349   9.6421   9.9413  22.4988  29.4280
    29.5156  31.6556

          k =-0.3333 0.5556-0.3333 (   588 PWs)   bands (ev):

     6.7252   7.9830   8.3020   8.9965   9.9159  11.9430  18.4836  28.4777
    29.3662  30.1865

          k = 0.5556-0.3333 0.5556 (   583 PWs)   bands (ev):

     6.6905   7.9413   8.2344   9.3295   9.8613  13.3127  16.6628  27.6555
    29.7391  30.1466

          k = 0.4444-0.2222 0.4444 (   588 PWs)   bands (ev):

     6.7993   8.0538   8.2994   8.9897   9.4663  11.3163  19.7666  27.3694
    30.3480  31.9775

          k = 0.3333-0.1111 0.3333 (   587 PWs)   bands (ev):

     6.7959   7.9526   8.3507   8.4449   8.9810   9.9101  23.9722  27.6622
    31.8471  34.4872

          k = 0.2222-0.0000 0.2222 (   578 PWs)   bands (ev):

     6.0188   7.8553   8.3365   8.3405   8.9102   9.2992  28.3336  28.3389
    32.4056  34.6728

          k = 0.0000 0.4444 0.0000 (   576 PWs)   bands (ev):

     6.7011   7.4222   8.7964   8.7964   8.8495   9.4329  28.4020  28.4020
    29.4671  29.8513

          k =-0.1111 0.5556-0.1111 (   587 PWs)   bands (ev):

     7.0175   7.3108   8.6031   8.9460   9.6860  10.1435  24.5475  27.2300
    27.8252  30.1501

          k =-0.2222 0.6667-0.2222 (   587 PWs)   bands (ev):

     6.9616   7.5856   8.4798   8.8369   9.9565  12.3853  20.3692  25.7938
    26.9550  29.8220

          k = 0.6667-0.2222 0.6667 (   580 PWs)   bands (ev):

     7.0284   7.7054   8.5374   8.7101   9.8844  15.0779  17.0025  24.2342
    27.7486  29.6966

          k = 0.5556-0.1111 0.5556 (   591 PWs)   bands (ev):

     7.2577   7.7958   8.3914   8.6709   9.4642  13.4777  19.2724  23.3794
    29.5623  30.0484

          k = 0.4444 0.0000 0.4444 (   586 PWs)   bands (ev):

     7.4806   7.6847   8.1940   8.7128   8.9605  11.3553  23.2581  23.4121
    30.9958  32.0783

          k = 0.0000 0.6667 0.0000 (   576 PWs)   bands (ev):

     6.8202   6.9262   9.5001   9.5001   9.6930  10.6755  25.1812  25.6139
    25.6139  29.9138

          k =-0.1111 0.7778-0.1111 (   593 PWs)   bands (ev):

     6.7374   6.8853   9.3828   9.4929   9.9793  12.7829  22.4769  23.0514
    24.9871  29.9416

          k = 0.7778-0.1111 0.7778 (   588 PWs)   bands (ev):

     6.8310   7.2032   8.9123   9.3270   9.9541  15.6655  19.0678  21.1736
    25.5570  29.8394

          k = 0.6667-0.0000 0.6667 (   598 PWs)   bands (ev):

     7.1187   7.6982   8.3165   9.0825   9.6477  16.0312  18.7008  20.4311
    27.2132  29.8483

          k = 0.0000 0.8889 0.0000 (   596 PWs)   bands (ev):

     6.4873   6.6211   9.8675  10.0508  10.0508  13.6845  20.5948  23.9422
    23.9422  29.9604

          k = 0.8889 0.0000 0.8889 (   598 PWs)   bands (ev):

     6.5539   6.7183   9.7376   9.7600  10.0768  15.1423  19.6384  21.9796
    24.1513  29.9642

          k =-0.2222 0.4444 0.0000 (   587 PWs)   bands (ev):

     7.0200   7.5268   8.2530   8.7958   9.0561   9.9508  25.7730  26.0689
    30.4972  32.4512

          k =-0.3333 0.5556-0.1111 (   586 PWs)   bands (ev):

     7.1627   7.9099   8.0200   8.7896   9.4876  11.4850  21.5881  25.4782
    28.4465  32.4250

          k = 0.5556-0.3333 0.7778 (   586 PWs)   bands (ev):

     7.0460   7.7378   8.5029   8.6875   9.8182  13.8566  17.7827  25.7451
    26.7897  31.6169

          k =-0.2222 0.6667 0.0000 (   587 PWs)   bands (ev):

     7.1176   7.1199   8.5765   9.4920   9.5606  11.8038  23.6975  23.8619
    25.5065  31.9690

          k = 0.6667-0.2222 0.8889 (   583 PWs)   bands (ev):

     7.0898   7.3822   8.3730   9.2430   9.8853  14.3228  19.8653  23.4110
    24.0232  32.1142

          k = 0.5556-0.1111 0.7778 (   587 PWs)   bands (ev):

     7.2760   7.5911   8.1639   9.0159   9.8370  16.3403  17.6408  22.0918
    24.9185  32.3208

          k = 0.4444 0.0000 0.6667 (   579 PWs)   bands (ev):

     7.6120   7.6568   7.7906   9.0725   9.4977  13.6470  21.1518  21.5972
    26.5161  33.1049

          k = 0.7778-0.1111 1.0000 (   587 PWs)   bands (ev):

     6.7509   6.8621   9.1986   9.6713  10.0495  14.8052  20.7442  22.4364
    22.6375  31.7099

          k = 0.6667-0.0000 0.8889 (   594 PWs)   bands (ev):

     6.9490   7.2260   8.6608   9.3416  10.0435  17.0878  19.1541  20.0505
    23.3663  32.1052

          k = 0.5556-0.1111 1.0000 (   587 PWs)   bands (ev):

     7.2188   7.5699   8.0259   9.1783  10.0460  16.9041  19.7392  20.6192
    21.9755  35.2895

     the Fermi energy is    13.1646 ev

!    total energy              =    -355.30122972 Ry
     Harris-Foulkes estimate   =    -355.30122973 Ry
     estimated scf accuracy    <          2.0E-09 Ry

     total all-electron energy =    -10632.267284 Ry

     The total energy is the sum of the following terms:

     one-electron contribution =       1.56556794 Ry
     hartree contribution      =      14.66200055 Ry
     xc contribution           =     -22.35209305 Ry
     ewald contribution        =     -71.86118027 Ry
     one-center paw contrib.   =    -277.31546700 Ry
     smearing contrib. (-TS)   =      -0.00005788 Ry

     convergence has been achieved in   5 iterations

     Forces acting on atoms (cartesian axes, Ry/au):

     atom    1 type  1   force =     0.00000000    0.00000000    0.00000000

     Total force =     0.000000     Total SCF correction =     0.000000


     Computing stress (Cartesian axis) and pressure

          total   stress  (Ry/bohr**3)                   (kbar)     P=   44.18
   0.00030032  -0.00000000  -0.00000000         44.18     -0.00     -0.00
  -0.00000000   0.00030032   0.00000000         -0.00     44.18      0.00
  -0.00000000   0.00000000   0.00030032         -0.00      0.00     44.18


     Writing output data file Ag.save/

     init_run     :      0.31s CPU      0.34s WALL (       1 calls)
     electrons    :      1.87s CPU      2.03s WALL (       1 calls)
     forces       :      0.03s CPU      0.03s WALL (       1 calls)
     stress       :      0.08s CPU      0.09s WALL (       1 calls)

     Called by init_run:
     wfcinit      :      0.06s CPU      0.07s WALL (       1 calls)
     potinit      :      0.10s CPU      0.12s WALL (       1 calls)
     hinit0       :      0.13s CPU      0.13s WALL (       1 calls)

     Called by electrons:
     c_bands      :      1.17s CPU      1.24s WALL (       6 calls)
     sum_band     :      0.21s CPU      0.22s WALL (       6 calls)
     v_of_rho     :      0.01s CPU      0.02s WALL (       6 calls)
     newd         :      0.02s CPU      0.03s WALL (       6 calls)
     PAW_pot      :      0.55s CPU      0.63s WALL (       6 calls)
     mix_rho      :      0.00s CPU      0.00s WALL (       6 calls)

     Called by c_bands:
     init_us_2    :      0.04s CPU      0.04s WALL (     525 calls)
     cegterg      :      1.12s CPU      1.19s WALL (     210 calls)

     Called by sum_band:
     sum_band:bec :      0.00s CPU      0.00s WALL (     210 calls)
     addusdens    :      0.03s CPU      0.03s WALL (       6 calls)

     Called by *egterg:
     h_psi        :      0.83s CPU      0.89s WALL (     796 calls)
     s_psi        :      0.03s CPU      0.03s WALL (     796 calls)
     g_psi        :      0.00s CPU      0.00s WALL (     551 calls)
     cdiaghg      :      0.16s CPU      0.17s WALL (     726 calls)

     Called by h_psi:
     h_psi:pot    :      0.83s CPU      0.89s WALL (     796 calls)
     h_psi:calbec :      0.04s CPU      0.04s WALL (     796 calls)
     vloc_psi     :      0.75s CPU      0.80s WALL (     796 calls)
     add_vuspsi   :      0.03s CPU      0.04s WALL (     796 calls)

     General routines
     calbec       :      0.07s CPU      0.07s WALL (    1181 calls)
     fft          :      0.01s CPU      0.01s WALL (      93 calls)
     ffts         :      0.00s CPU      0.00s WALL (       6 calls)
     fftw         :      0.82s CPU      0.87s WALL (   13136 calls)

     Parallel routines
     fft_scatt_xy :      0.08s CPU      0.09s WALL (   13235 calls)
     fft_scatt_yz :      0.20s CPU      0.21s WALL (   13235 calls)

     PWSCF        :     3.12s CPU         3.35s WALL


   This run was terminated on:   0:20: 3  27Mar2024            

=------------------------------------------------------------------------------=
   JOB DONE.
=------------------------------------------------------------------------------=
