
     Program PWSCF v.6.3MaX starts on 27Mar2024 at  0: 5:25 

     This program is part of the open-source Quantum ESPRESSO suite
     for quantum simulation of materials; please cite
         "P. Giannozzi et al., J. Phys.:Condens. Matter 21 395502 (2009);
         "P. Giannozzi et al., J. Phys.:Condens. Matter 29 465901 (2017);
          URL http://www.quantum-espresso.org", 
     in publications or presentations arising from this work. More details at
     http://www.quantum-espresso.org/quote

     Parallel version (MPI), running on     5 processors

     MPI processes distributed on     1 nodes
     R & G space division:  proc/nbgrp/npool/nimage =       5
     Waiting for input...
     Reading input from standard input

     Current dimensions of program PWSCF are:
     Max number of different atomic species (ntypx) = 10
     Max number of k-points (npk) =  40000
     Max angular momentum in pseudopotentials (lmaxx) =  3

     Subspace diagonalization in iterative solution of the eigenvalue problem:
     a serial algorithm will be used


     Parallelization info
     --------------------
     sticks:   dense  smooth     PW     G-vecs:    dense   smooth      PW
     Min          17      17      7                  106      106      27
     Max          17      17      8                  107      107      28
     Sum          85      85     37                  531      531     137



     bravais-lattice index     =            2
     lattice parameter (alat)  =       7.7200  a.u.
     unit-cell volume          =     115.0249 (a.u.)^3
     number of atoms/cell      =            1
     number of atomic types    =            1
     number of electrons       =        11.00
     number of Kohn-Sham states=           10
     kinetic-energy cutoff     =      10.0000  Ry
     charge density cutoff     =      40.0000  Ry
     convergence threshold     =      1.0E-08
     mixing beta               =       0.7000
     number of iterations used =            8  plain     mixing
     Exchange-correlation      = PBESOL ( 1  4 10  8 0 0)

     celldm(1)=   7.720000  celldm(2)=   0.000000  celldm(3)=   0.000000
     celldm(4)=   0.000000  celldm(5)=   0.000000  celldm(6)=   0.000000

     crystal axes: (cart. coord. in units of alat)
               a(1) = (  -0.500000   0.000000   0.500000 )  
               a(2) = (   0.000000   0.500000   0.500000 )  
               a(3) = (  -0.500000   0.500000   0.000000 )  

     reciprocal axes: (cart. coord. in units 2 pi/alat)
               b(1) = ( -1.000000 -1.000000  1.000000 )  
               b(2) = (  1.000000  1.000000  1.000000 )  
               b(3) = ( -1.000000  1.000000 -1.000000 )  


     PseudoPot. # 1 for Ag read from file:
     /home/lorenzo/pseudos/Ag/Ag.pbesol-n-rrkjus_psl.1.0.0.UPF
     MD5 check sum: 3b43e8aa747a56f565f44d11355b8b45
     Pseudo is Ultrasoft + core correction, Zval = 11.0
     Generated using "atomic" code by A. Dal Corso v.6.2.2
     Using radial grid of 1237 points,  6 beta functions with: 
                l(1) =   0
                l(2) =   0
                l(3) =   1
                l(4) =   1
                l(5) =   2
                l(6) =   2
     Q(r) pseudized with 0 coefficients 


     atomic species   valence    mass     pseudopotential
        Ag            11.00   107.86820     Ag( 1.00)

     48 Sym. Ops., with inversion, found



   Cartesian axes

     site n.     atom                  positions (alat units)
         1           Ag  tau(   1) = (   0.0000000   0.0000000   0.0000000  )

     number of k points=    16  gaussian smearing, width (Ry)=  0.0100
                       cart. coord. in units 2pi/alat
        k(    1) = (   0.0000000   0.0000000   0.0000000), wk =   0.0092593
        k(    2) = (  -0.1666667   0.1666667  -0.1666667), wk =   0.0740741
        k(    3) = (  -0.3333333   0.3333333  -0.3333333), wk =   0.0740741
        k(    4) = (   0.5000000  -0.5000000   0.5000000), wk =   0.0370370
        k(    5) = (   0.0000000   0.3333333   0.0000000), wk =   0.0555556
        k(    6) = (  -0.1666667   0.5000000  -0.1666667), wk =   0.2222222
        k(    7) = (   0.6666667  -0.3333333   0.6666667), wk =   0.2222222
        k(    8) = (   0.5000000  -0.1666667   0.5000000), wk =   0.2222222
        k(    9) = (   0.3333333   0.0000000   0.3333333), wk =   0.1111111
        k(   10) = (   0.0000000   0.6666667   0.0000000), wk =   0.0555556
        k(   11) = (   0.8333333  -0.1666667   0.8333333), wk =   0.2222222
        k(   12) = (   0.6666667  -0.0000000   0.6666667), wk =   0.1111111
        k(   13) = (   0.0000000  -1.0000000   0.0000000), wk =   0.0277778
        k(   14) = (   0.6666667  -0.3333333   1.0000000), wk =   0.2222222
        k(   15) = (   0.5000000  -0.1666667   0.8333333), wk =   0.2222222
        k(   16) = (  -0.3333333  -1.0000000   0.0000000), wk =   0.1111111

     Dense  grid:      531 G-vectors     FFT dimensions: (  12,  12,  12)

     Estimated max dynamical RAM per process >       1.06 MB

     Estimated total dynamical RAM >       5.31 MB

     Initial potential from superposition of free atoms
     Check: negative starting charge=   -0.000249

     starting charge   10.99964, renormalised to   11.00000

     negative rho (up, down):  2.491E-04 0.000E+00
     Starting wfcs are    9 randomized atomic wfcs +    1 random wfcs

     total cpu time spent up to now is        0.8 secs

     Self-consistent Calculation

     iteration #  1     ecut=    10.00 Ry     beta= 0.70
     Davidson diagonalization with overlap
     ethr =  1.00E-02,  avg # of iterations =  4.4

     total cpu time spent up to now is        0.9 secs

     total energy              =     -69.24754204 Ry
     Harris-Foulkes estimate   =     -77.32402220 Ry
     estimated scf accuracy    <      10.33216402 Ry

     iteration #  2     ecut=    10.00 Ry     beta= 0.70
     Davidson diagonalization with overlap
     ethr =  1.00E-02,  avg # of iterations =  3.1

     total cpu time spent up to now is        1.0 secs

     total energy              =     -71.64893299 Ry
     Harris-Foulkes estimate   =     -71.78851107 Ry
     estimated scf accuracy    <       0.48809771 Ry

     iteration #  3     ecut=    10.00 Ry     beta= 0.70
     Davidson diagonalization with overlap
     ethr =  4.44E-03,  avg # of iterations =  1.0

     total cpu time spent up to now is        1.0 secs

     total energy              =     -71.66885229 Ry
     Harris-Foulkes estimate   =     -71.67070816 Ry
     estimated scf accuracy    <       0.03602674 Ry

     iteration #  4     ecut=    10.00 Ry     beta= 0.70
     Davidson diagonalization with overlap
     ethr =  3.28E-04,  avg # of iterations =  1.6

     total cpu time spent up to now is        1.1 secs

     total energy              =     -71.66978958 Ry
     Harris-Foulkes estimate   =     -71.66982279 Ry
     estimated scf accuracy    <       0.00006276 Ry

     iteration #  5     ecut=    10.00 Ry     beta= 0.70
     Davidson diagonalization with overlap
     ethr =  5.71E-07,  avg # of iterations =  3.5

     total cpu time spent up to now is        1.1 secs

     total energy              =     -71.67031609 Ry
     Harris-Foulkes estimate   =     -71.67032322 Ry
     estimated scf accuracy    <       0.00001160 Ry

     iteration #  6     ecut=    10.00 Ry     beta= 0.70
     Davidson diagonalization with overlap
     ethr =  1.05E-07,  avg # of iterations =  1.6

     total cpu time spent up to now is        1.1 secs

     total energy              =     -71.67031632 Ry
     Harris-Foulkes estimate   =     -71.67031708 Ry
     estimated scf accuracy    <       0.00000123 Ry

     iteration #  7     ecut=    10.00 Ry     beta= 0.70
     Davidson diagonalization with overlap
     ethr =  1.12E-08,  avg # of iterations =  3.0

     total cpu time spent up to now is        1.2 secs

     total energy              =     -71.67031668 Ry
     Harris-Foulkes estimate   =     -71.67031681 Ry
     estimated scf accuracy    <       0.00000020 Ry

     iteration #  8     ecut=    10.00 Ry     beta= 0.70
     Davidson diagonalization with overlap
     ethr =  1.79E-09,  avg # of iterations =  2.6

     total cpu time spent up to now is        1.2 secs

     total energy              =     -71.67031672 Ry
     Harris-Foulkes estimate   =     -71.67031673 Ry
     estimated scf accuracy    <       0.00000003 Ry

     iteration #  9     ecut=    10.00 Ry     beta= 0.70
     Davidson diagonalization with overlap
     ethr =  2.46E-10,  avg # of iterations =  1.9

     total cpu time spent up to now is        1.3 secs

     End of self-consistent calculation

          k = 0.0000 0.0000 0.0000 (    59 PWs)   bands (ev):

     2.4501  10.8434  10.8434  10.8434  14.5875  14.5875  28.2880  28.2880
    28.2880  32.8748

          k =-0.1667 0.1667-0.1667 (    62 PWs)   bands (ev):

     3.2286  10.5617  11.0457  11.0457  12.1629  12.1629  25.0328  27.9681
    27.9681  34.0182

          k =-0.3333 0.3333-0.3333 (    64 PWs)   bands (ev):

     5.1363   9.8924  10.8187  10.8187  12.8255  12.8255  18.6687  26.7680
    26.7680  32.9438

          k = 0.5000-0.5000 0.5000 (    70 PWs)   bands (ev):

     6.6144   8.1287   8.1287   9.6529   9.6529  11.3190  15.8275  25.2579
    25.2579  32.0373

          k = 0.0000 0.3333 0.0000 (    60 PWs)   bands (ev):

     3.5086  10.4418  11.5780  11.5780  11.9511  15.1526  25.7586  26.9169
    26.9169  34.6042

          k =-0.1667 0.5000-0.1667 (    63 PWs)   bands (ev):

     5.1451  10.3373  10.6172  11.5041  12.6270  13.1791  20.5600  25.4994
    26.2955  34.0959

          k = 0.6667-0.3333 0.6667 (    61 PWs)   bands (ev):

     7.1880  10.5402  11.0342  12.1120  15.0155  15.6424  16.0621  24.4297
    24.5584  33.3725

          k = 0.5000-0.1667 0.5000 (    61 PWs)   bands (ev):

     6.5456  10.1736  11.8348  11.8679  13.5429  15.4627  17.7258  23.8686
    26.2849  33.7799

          k = 0.3333 0.0000 0.3333 (    61 PWs)   bands (ev):

     4.4805  10.3415  11.3515  11.3970  12.1522  14.7419  22.3397  25.7041
    28.0503  35.1916

          k = 0.0000 0.6667 0.0000 (    52 PWs)   bands (ev):

     6.4254  10.9538  14.0444  16.6593  16.9877  16.9877  20.6054  24.6509
    24.6509  36.9640

          k = 0.8333-0.1667 0.8333 (    61 PWs)   bands (ev):

     8.3461  10.0046  10.7974  13.4879  14.8905  15.6175  16.1146  21.7573
    22.2873  36.4456

          k = 0.6667-0.0000 0.6667 (    63 PWs)   bands (ev):

     8.5314   9.9505  10.0784  11.8597  13.4366  14.1893  19.1240  19.5001
    24.2154  35.2288

          k = 0.0000-1.0000 0.0000 (    64 PWs)   bands (ev):

     8.6329   9.2571  12.5166  12.5166  12.6444  13.9443  15.3569  20.2979
    20.2979  36.8554

          k = 0.6667-0.3333 1.0000 (    62 PWs)   bands (ev):

     7.0431  10.2025  10.5740  12.6524  13.5602  14.6885  18.1143  22.1951
    25.2789  35.0207

          k = 0.5000-0.1667 0.8333 (    62 PWs)   bands (ev):

     8.7786  10.3560  11.3880  11.7665  11.9092  14.8458  17.8093  20.9155
    24.0797  36.2412

          k =-0.3333-1.0000 0.0000 (    62 PWs)   bands (ev):

     9.6051  10.2159  11.2842  11.9031  13.2080  14.2557  17.3322  19.9766
    22.6810  37.7004

     the Fermi energy is    15.0325 ev

!    total energy              =     -71.67031672 Ry
     Harris-Foulkes estimate   =     -71.67031672 Ry
     estimated scf accuracy    <          6.1E-12 Ry

     The total energy is the sum of the following terms:

     one-electron contribution =      14.98000191 Ry
     hartree contribution      =       4.27844874 Ry
     xc contribution           =     -19.06658751 Ry
     ewald contribution        =     -71.86118018 Ry
     smearing contrib. (-TS)   =      -0.00099967 Ry

     convergence has been achieved in   9 iterations

     Forces acting on atoms (cartesian axes, Ry/au):

     atom    1 type  1   force =     0.00000000    0.00000000    0.00000000

     Total force =     0.000000     Total SCF correction =     0.000000


     Computing stress (Cartesian axis) and pressure

          total   stress  (Ry/bohr**3)                   (kbar)     P=********
  -0.10887504   0.00000000  -0.00000000     -16016.07      0.00     -0.00
   0.00000000  -0.10887504  -0.00000000          0.00 -16016.07     -0.00
  -0.00000000  -0.00000000  -0.10887504         -0.00     -0.00 -16016.07


     Writing output data file Ag.save/

     init_run     :      0.07s CPU      0.07s WALL (       1 calls)
     electrons    :      0.40s CPU      0.46s WALL (       1 calls)
     forces       :      0.00s CPU      0.00s WALL (       1 calls)
     stress       :      0.01s CPU      0.01s WALL (       1 calls)

     Called by init_run:
     wfcinit      :      0.01s CPU      0.01s WALL (       1 calls)
     potinit      :      0.00s CPU      0.00s WALL (       1 calls)
     hinit0       :      0.06s CPU      0.06s WALL (       1 calls)

     Called by electrons:
     c_bands      :      0.35s CPU      0.39s WALL (       9 calls)
     sum_band     :      0.04s CPU      0.05s WALL (       9 calls)
     v_of_rho     :      0.00s CPU      0.01s WALL (      10 calls)
     newd         :      0.01s CPU      0.01s WALL (      10 calls)
     mix_rho      :      0.00s CPU      0.00s WALL (       9 calls)

     Called by c_bands:
     init_us_2    :      0.00s CPU      0.01s WALL (     336 calls)
     cegterg      :      0.34s CPU      0.38s WALL (     144 calls)

     Called by sum_band:
     sum_band:bec :      0.00s CPU      0.00s WALL (     144 calls)
     addusdens    :      0.00s CPU      0.01s WALL (       9 calls)

     Called by *egterg:
     h_psi        :      0.18s CPU      0.21s WALL (     523 calls)
     s_psi        :      0.01s CPU      0.01s WALL (     523 calls)
     g_psi        :      0.00s CPU      0.00s WALL (     363 calls)
     cdiaghg      :      0.12s CPU      0.13s WALL (     507 calls)

     Called by h_psi:
     h_psi:pot    :      0.18s CPU      0.20s WALL (     523 calls)
     h_psi:calbec :      0.01s CPU      0.01s WALL (     523 calls)
     vloc_psi     :      0.16s CPU      0.18s WALL (     523 calls)
     add_vuspsi   :      0.01s CPU      0.01s WALL (     523 calls)

     General routines
     calbec       :      0.02s CPU      0.02s WALL (     747 calls)
     fft          :      0.00s CPU      0.00s WALL (     136 calls)
     ffts         :      0.00s CPU      0.00s WALL (       9 calls)
     fftw         :      0.16s CPU      0.19s WALL (    9196 calls)

     Parallel routines
     fft_scatt_xy :      0.02s CPU      0.02s WALL (    9341 calls)
     fft_scatt_yz :      0.06s CPU      0.07s WALL (    9341 calls)

     PWSCF        :     1.23s CPU         1.33s WALL


   This run was terminated on:   0: 5:26  27Mar2024            

=------------------------------------------------------------------------------=
   JOB DONE.
=------------------------------------------------------------------------------=
