
     Program PWSCF v.6.3MaX starts on 27Mar2024 at  0:17:31 

     This program is part of the open-source Quantum ESPRESSO suite
     for quantum simulation of materials; please cite
         "P. Giannozzi et al., J. Phys.:Condens. Matter 21 395502 (2009);
         "P. Giannozzi et al., J. Phys.:Condens. Matter 29 465901 (2017);
          URL http://www.quantum-espresso.org", 
     in publications or presentations arising from this work. More details at
     http://www.quantum-espresso.org/quote

     Parallel version (MPI), running on     5 processors

     MPI processes distributed on     1 nodes
     R & G space division:  proc/nbgrp/npool/nimage =       5
     Waiting for input...
     Reading input from standard input

     Current dimensions of program PWSCF are:
     Max number of different atomic species (ntypx) = 10
     Max number of k-points (npk) =  40000
     Max angular momentum in pseudopotentials (lmaxx) =  3

     Subspace diagonalization in iterative solution of the eigenvalue problem:
     a serial algorithm will be used


     Parallelization info
     --------------------
     sticks:   dense  smooth     PW     G-vecs:    dense   smooth      PW
     Min          62      62     21                  765      765     148
     Max          63      63     22                  770      770     151
     Sum         313     313    109                 3839     3839     749



     bravais-lattice index     =            2
     lattice parameter (alat)  =       7.7200  a.u.
     unit-cell volume          =     115.0249 (a.u.)^3
     number of atoms/cell      =            1
     number of atomic types    =            1
     number of electrons       =        11.00
     number of Kohn-Sham states=           10
     kinetic-energy cutoff     =      40.0000  Ry
     charge density cutoff     =     160.0000  Ry
     convergence threshold     =      1.0E-08
     mixing beta               =       0.7000
     number of iterations used =            8  plain     mixing
     Exchange-correlation      = PBE ( 1  4  3  4 0 0)

     celldm(1)=   7.720000  celldm(2)=   0.000000  celldm(3)=   0.000000
     celldm(4)=   0.000000  celldm(5)=   0.000000  celldm(6)=   0.000000

     crystal axes: (cart. coord. in units of alat)
               a(1) = (  -0.500000   0.000000   0.500000 )  
               a(2) = (   0.000000   0.500000   0.500000 )  
               a(3) = (  -0.500000   0.500000   0.000000 )  

     reciprocal axes: (cart. coord. in units 2 pi/alat)
               b(1) = ( -1.000000 -1.000000  1.000000 )  
               b(2) = (  1.000000  1.000000  1.000000 )  
               b(3) = ( -1.000000  1.000000 -1.000000 )  


     PseudoPot. # 1 for Ag read from file:
     /home/lorenzo/pseudos/Ag/Ag.pbe-n-rrkjus_psl.1.0.0.UPF
     MD5 check sum: d841cbfac2b0861aec33b46768a516bf
     Pseudo is Ultrasoft + core correction, Zval = 11.0
     Generated using "atomic" code by A. Dal Corso v.6.2.2
     Using radial grid of 1237 points,  6 beta functions with: 
                l(1) =   0
                l(2) =   0
                l(3) =   1
                l(4) =   1
                l(5) =   2
                l(6) =   2
     Q(r) pseudized with 0 coefficients 


     atomic species   valence    mass     pseudopotential
        Ag            11.00   107.86820     Ag( 1.00)

     48 Sym. Ops., with inversion, found



   Cartesian axes

     site n.     atom                  positions (alat units)
         1           Ag  tau(   1) = (   0.0000000   0.0000000   0.0000000  )

     number of k points=    20  gaussian smearing, width (Ry)=  0.0100
                       cart. coord. in units 2pi/alat
        k(    1) = (   0.0000000   0.0000000   0.0000000), wk =   0.0058309
        k(    2) = (  -0.1428571   0.1428571  -0.1428571), wk =   0.0466472
        k(    3) = (  -0.2857143   0.2857143  -0.2857143), wk =   0.0466472
        k(    4) = (  -0.4285714   0.4285714  -0.4285714), wk =   0.0466472
        k(    5) = (   0.0000000   0.2857143   0.0000000), wk =   0.0349854
        k(    6) = (  -0.1428571   0.4285714  -0.1428571), wk =   0.1399417
        k(    7) = (  -0.2857143   0.5714286  -0.2857143), wk =   0.1399417
        k(    8) = (   0.5714286  -0.2857143   0.5714286), wk =   0.1399417
        k(    9) = (   0.4285714  -0.1428571   0.4285714), wk =   0.1399417
        k(   10) = (   0.2857143  -0.0000000   0.2857143), wk =   0.0699708
        k(   11) = (   0.0000000   0.5714286   0.0000000), wk =   0.0349854
        k(   12) = (  -0.1428571   0.7142857  -0.1428571), wk =   0.1399417
        k(   13) = (   0.7142857  -0.1428571   0.7142857), wk =   0.1399417
        k(   14) = (   0.5714286   0.0000000   0.5714286), wk =   0.0699708
        k(   15) = (   0.0000000   0.8571429   0.0000000), wk =   0.0349854
        k(   16) = (   0.8571429  -0.0000000   0.8571429), wk =   0.0699708
        k(   17) = (  -0.2857143   0.5714286   0.0000000), wk =   0.1399417
        k(   18) = (   0.5714286  -0.2857143   0.8571429), wk =   0.2798834
        k(   19) = (   0.7142857  -0.1428571   1.0000000), wk =   0.1399417
        k(   20) = (   0.5714286   0.0000000   0.8571429), wk =   0.1399417

     Dense  grid:     3839 G-vectors     FFT dimensions: (  24,  24,  24)

     Estimated max dynamical RAM per process >       4.47 MB

     Estimated total dynamical RAM >      22.34 MB

     Initial potential from superposition of free atoms

     starting charge   10.99960, renormalised to   11.00000
     Starting wfcs are    9 randomized atomic wfcs +    1 random wfcs

     total cpu time spent up to now is        0.9 secs

     Self-consistent Calculation

     iteration #  1     ecut=    40.00 Ry     beta= 0.70
     Davidson diagonalization with overlap
     ethr =  1.00E-02,  avg # of iterations =  4.3

     Threshold (ethr) on eigenvalues was too large:
     Diagonalizing with lowered threshold

     Davidson diagonalization with overlap
     ethr =  2.44E-05,  avg # of iterations =  3.1

     total cpu time spent up to now is        1.3 secs

     total energy              =     -84.26925439 Ry
     Harris-Foulkes estimate   =     -84.27075234 Ry
     estimated scf accuracy    <       0.00296976 Ry

     iteration #  2     ecut=    40.00 Ry     beta= 0.70
     Davidson diagonalization with overlap
     ethr =  2.70E-05,  avg # of iterations =  2.0

     total cpu time spent up to now is        1.4 secs

     total energy              =     -84.26986393 Ry
     Harris-Foulkes estimate   =     -84.27080544 Ry
     estimated scf accuracy    <       0.00172473 Ry

     iteration #  3     ecut=    40.00 Ry     beta= 0.70
     Davidson diagonalization with overlap
     ethr =  1.57E-05,  avg # of iterations =  2.0

     total cpu time spent up to now is        1.5 secs

     total energy              =     -84.27028170 Ry
     Harris-Foulkes estimate   =     -84.27027882 Ry
     estimated scf accuracy    <       0.00003351 Ry

     iteration #  4     ecut=    40.00 Ry     beta= 0.70
     Davidson diagonalization with overlap
     ethr =  3.05E-07,  avg # of iterations =  2.1

     total cpu time spent up to now is        1.6 secs

     total energy              =     -84.27028804 Ry
     Harris-Foulkes estimate   =     -84.27028790 Ry
     estimated scf accuracy    <       0.00000020 Ry

     iteration #  5     ecut=    40.00 Ry     beta= 0.70
     Davidson diagonalization with overlap
     ethr =  1.79E-09,  avg # of iterations =  2.8

     total cpu time spent up to now is        1.8 secs

     total energy              =     -84.27028816 Ry
     Harris-Foulkes estimate   =     -84.27028819 Ry
     estimated scf accuracy    <       0.00000007 Ry

     iteration #  6     ecut=    40.00 Ry     beta= 0.70
     Davidson diagonalization with overlap
     ethr =  5.93E-10,  avg # of iterations =  2.3

     total cpu time spent up to now is        1.9 secs

     End of self-consistent calculation

          k = 0.0000 0.0000 0.0000 (   531 PWs)   bands (ev):

     5.0702   8.0990   8.0990   8.0990   9.1349   9.1349  29.8022  33.0939
    33.0939  33.0939

          k =-0.1429 0.1429-0.1429 (   507 PWs)   bands (ev):

     5.6746   7.9976   8.2448   8.2448   9.1010   9.1010  28.2467  30.6178
    33.0213  33.0213

          k =-0.2857 0.2857-0.2857 (   492 PWs)   bands (ev):

     6.5767   8.2684   8.2684   8.7379   9.3836   9.3836  22.6843  29.9440
    32.3775  32.3775

          k =-0.4286 0.4286-0.4286 (   489 PWs)   bands (ev):

     6.5173   8.1019   8.1019   9.8586   9.8586  11.5329  17.6716  28.9887
    31.2959  31.2959

          k = 0.0000 0.2857 0.0000 (   504 PWs)   bands (ev):

     5.8790   7.7871   8.4056   8.4056   8.8600   9.2737  29.8226  30.6462
    30.6462  30.9039

          k =-0.1429 0.4286-0.1429 (   492 PWs)   bands (ev):

     6.8124   7.6747   8.3314   8.5955   9.4458   9.5247  24.9500  29.1197
    29.6504  31.5892

          k =-0.2857 0.5714-0.2857 (   491 PWs)   bands (ev):

     6.8555   7.9629   8.4580   8.6071   9.9188  11.7441  19.5122  28.0864
    28.6405  30.0283

          k = 0.5714-0.2857 0.5714 (   493 PWs)   bands (ev):

     6.8243   7.8844   8.3500   9.0869   9.8352  13.7274  16.8233  26.6211
    29.6991  29.7006

          k = 0.4286-0.1429 0.4286 (   499 PWs)   bands (ev):

     7.0085   8.0358   8.4521   8.5318   9.2363  11.0844  21.2955  26.2564
    30.7854  32.4200

          k = 0.2857-0.0000 0.2857 (   499 PWs)   bands (ev):

     6.5342   7.7721   8.3747   8.5002   8.8280   9.6042  26.7519  27.0245
    33.0223  33.3937

          k = 0.0000 0.5714 0.0000 (   488 PWs)   bands (ev):

     6.9319   7.1369   9.2062   9.2062   9.5946   9.6238  26.7202  26.7202
    27.3414  29.8950

          k =-0.1429 0.7143-0.1429 (   488 PWs)   bands (ev):

     6.8746   7.1189   8.9928   9.2471   9.9584  12.2286  22.2177  24.3869
    25.7473  29.9204

          k = 0.7143-0.1429 0.7143 (   486 PWs)   bands (ev):

     7.0021   7.5318   8.5569   9.0528   9.8910  15.9954  17.5944  22.1720
    26.6259  29.7832

          k = 0.5714 0.0000 0.5714 (   492 PWs)   bands (ev):

     7.4047   7.9342   8.0346   8.8570   9.3820  13.7993  20.6379  21.3134
    29.1512  30.0843

          k = 0.0000 0.8571 0.0000 (   488 PWs)   bands (ev):

     6.5278   6.6579   9.8619  10.0125  10.0125  13.2844  21.1383  24.0934
    24.0934  29.9666

          k = 0.8571-0.0000 0.8571 (   482 PWs)   bands (ev):

     6.6238   6.8267   9.5447   9.6916  10.0542  15.5306  19.6620  21.1867
    24.4336  29.9452

          k =-0.2857 0.5714 0.0000 (   494 PWs)   bands (ev):

     7.3959   7.4330   8.1000   9.1991   9.2632  11.2644  23.7830  23.9837
    27.8728  33.1687

          k = 0.5714-0.2857 0.8571 (   489 PWs)   bands (ev):

     7.2904   7.6090   8.2005   8.9375   9.7914  14.2791  18.7424  23.9956
    25.5030  32.6005

          k = 0.7143-0.1429 1.0000 (   489 PWs)   bands (ev):

     6.9425   7.0486   8.7936   9.5414  10.0089  14.9255  21.3126  21.8340
    22.3762  32.6516

          k = 0.5714 0.0000 0.8571 (   491 PWs)   bands (ev):

     7.1879   7.5570   8.1640   9.1674  10.0027  17.6894  18.3255  20.2725
    23.2970  33.2809

     the Fermi energy is    13.2641 ev

!    total energy              =     -84.27028817 Ry
     Harris-Foulkes estimate   =     -84.27028817 Ry
     estimated scf accuracy    <          7.9E-10 Ry

     The total energy is the sum of the following terms:

     one-electron contribution =      -4.71372766 Ry
     hartree contribution      =      14.65491640 Ry
     xc contribution           =     -22.35020014 Ry
     ewald contribution        =     -71.86118024 Ry
     smearing contrib. (-TS)   =      -0.00009653 Ry

     convergence has been achieved in   6 iterations

     Forces acting on atoms (cartesian axes, Ry/au):

     atom    1 type  1   force =     0.00000000    0.00000000    0.00000000

     Total force =     0.000000     Total SCF correction =     0.000000


     Computing stress (Cartesian axis) and pressure

          total   stress  (Ry/bohr**3)                   (kbar)     P=   41.34
   0.00028105  -0.00000000  -0.00000000         41.34     -0.00     -0.00
  -0.00000000   0.00028105   0.00000000         -0.00     41.34      0.00
  -0.00000000   0.00000000   0.00028105         -0.00      0.00     41.34


     Writing output data file Ag.save/

     init_run     :      0.17s CPU      0.18s WALL (       1 calls)
     electrons    :      0.93s CPU      0.99s WALL (       1 calls)
     forces       :      0.02s CPU      0.02s WALL (       1 calls)
     stress       :      0.06s CPU      0.06s WALL (       1 calls)

     Called by init_run:
     wfcinit      :      0.04s CPU      0.04s WALL (       1 calls)
     potinit      :      0.01s CPU      0.01s WALL (       1 calls)
     hinit0       :      0.12s CPU      0.12s WALL (       1 calls)

     Called by electrons:
     c_bands      :      0.75s CPU      0.80s WALL (       7 calls)
     sum_band     :      0.14s CPU      0.15s WALL (       7 calls)
     v_of_rho     :      0.02s CPU      0.02s WALL (       7 calls)
     newd         :      0.03s CPU      0.03s WALL (       7 calls)
     mix_rho      :      0.00s CPU      0.00s WALL (       7 calls)

     Called by c_bands:
     init_us_2    :      0.02s CPU      0.02s WALL (     340 calls)
     cegterg      :      0.72s CPU      0.77s WALL (     140 calls)

     Called by sum_band:
     sum_band:bec :      0.00s CPU      0.00s WALL (     140 calls)
     addusdens    :      0.02s CPU      0.03s WALL (       7 calls)

     Called by *egterg:
     h_psi        :      0.54s CPU      0.58s WALL (     532 calls)
     s_psi        :      0.02s CPU      0.02s WALL (     532 calls)
     g_psi        :      0.00s CPU      0.00s WALL (     372 calls)
     cdiaghg      :      0.10s CPU      0.11s WALL (     492 calls)

     Called by h_psi:
     h_psi:pot    :      0.54s CPU      0.58s WALL (     532 calls)
     h_psi:calbec :      0.02s CPU      0.03s WALL (     532 calls)
     vloc_psi     :      0.49s CPU      0.53s WALL (     532 calls)
     add_vuspsi   :      0.02s CPU      0.02s WALL (     532 calls)

     General routines
     calbec       :      0.04s CPU      0.04s WALL (     772 calls)
     fft          :      0.01s CPU      0.01s WALL (     104 calls)
     ffts         :      0.00s CPU      0.00s WALL (       7 calls)
     fftw         :      0.54s CPU      0.58s WALL (    8842 calls)

     Parallel routines
     fft_scatt_xy :      0.05s CPU      0.05s WALL (    8953 calls)
     fft_scatt_yz :      0.15s CPU      0.16s WALL (    8953 calls)

     PWSCF        :     1.93s CPU         2.05s WALL


   This run was terminated on:   0:17:33  27Mar2024            

=------------------------------------------------------------------------------=
   JOB DONE.
=------------------------------------------------------------------------------=
