
     Program PWSCF v.6.3MaX starts on 27Mar2024 at  0:28:48 

     This program is part of the open-source Quantum ESPRESSO suite
     for quantum simulation of materials; please cite
         "P. Giannozzi et al., J. Phys.:Condens. Matter 21 395502 (2009);
         "P. Giannozzi et al., J. Phys.:Condens. Matter 29 465901 (2017);
          URL http://www.quantum-espresso.org", 
     in publications or presentations arising from this work. More details at
     http://www.quantum-espresso.org/quote

     Parallel version (MPI), running on     5 processors

     MPI processes distributed on     1 nodes
     R & G space division:  proc/nbgrp/npool/nimage =       5
     Waiting for input...
     Reading input from standard input

     Current dimensions of program PWSCF are:
     Max number of different atomic species (ntypx) = 10
     Max number of k-points (npk) =  40000
     Max angular momentum in pseudopotentials (lmaxx) =  3
               file Ag.pbe-n-kjpaw_psl.1.0.0.UPF: wavefunction(s)  5S 5P renormalized

     Subspace diagonalization in iterative solution of the eigenvalue problem:
     a serial algorithm will be used


     Parallelization info
     --------------------
     sticks:   dense  smooth     PW     G-vecs:    dense   smooth      PW
     Min         106     106     32                 1619     1619     280
     Max         108     108     33                 1620     1620     283
     Sum         535     535    163                 8099     8099    1411



     bravais-lattice index     =            2
     lattice parameter (alat)  =       7.7200  a.u.
     unit-cell volume          =     115.0249 (a.u.)^3
     number of atoms/cell      =            1
     number of atomic types    =            1
     number of electrons       =        11.00
     number of Kohn-Sham states=           10
     kinetic-energy cutoff     =      65.0000  Ry
     charge density cutoff     =     260.0000  Ry
     convergence threshold     =      1.0E-08
     mixing beta               =       0.7000
     number of iterations used =            8  plain     mixing
     Exchange-correlation      = SLA PW PBX PBC ( 1  4  3  4 0 0)

     celldm(1)=   7.720000  celldm(2)=   0.000000  celldm(3)=   0.000000
     celldm(4)=   0.000000  celldm(5)=   0.000000  celldm(6)=   0.000000

     crystal axes: (cart. coord. in units of alat)
               a(1) = (  -0.500000   0.000000   0.500000 )  
               a(2) = (   0.000000   0.500000   0.500000 )  
               a(3) = (  -0.500000   0.500000   0.000000 )  

     reciprocal axes: (cart. coord. in units 2 pi/alat)
               b(1) = ( -1.000000 -1.000000  1.000000 )  
               b(2) = (  1.000000  1.000000  1.000000 )  
               b(3) = ( -1.000000  1.000000 -1.000000 )  


     PseudoPot. # 1 for Ag read from file:
     /home/lorenzo/pseudos/Ag/Ag.pbe-n-kjpaw_psl.1.0.0.UPF
     MD5 check sum: 51099775af2a3182a6a1caffb86952a3
     Pseudo is Projector augmented-wave + core cor, Zval = 11.0
     Generated using "atomic" code by A. Dal Corso v.6.2.2
     Shape of augmentation charge: PSQ
     Using radial grid of 1237 points,  6 beta functions with: 
                l(1) =   0
                l(2) =   0
                l(3) =   1
                l(4) =   1
                l(5) =   2
                l(6) =   2
     Q(r) pseudized with 0 coefficients 


     atomic species   valence    mass     pseudopotential
        Ag            11.00   107.86820     Ag( 1.00)

     48 Sym. Ops., with inversion, found



   Cartesian axes

     site n.     atom                  positions (alat units)
         1           Ag  tau(   1) = (   0.0000000   0.0000000   0.0000000  )

     number of k points=     8  gaussian smearing, width (Ry)=  0.0100
                       cart. coord. in units 2pi/alat
        k(    1) = (   0.0000000   0.0000000   0.0000000), wk =   0.0312500
        k(    2) = (  -0.2500000   0.2500000  -0.2500000), wk =   0.2500000
        k(    3) = (   0.5000000  -0.5000000   0.5000000), wk =   0.1250000
        k(    4) = (   0.0000000   0.5000000   0.0000000), wk =   0.1875000
        k(    5) = (   0.7500000  -0.2500000   0.7500000), wk =   0.7500000
        k(    6) = (   0.5000000   0.0000000   0.5000000), wk =   0.3750000
        k(    7) = (   0.0000000  -1.0000000   0.0000000), wk =   0.0937500
        k(    8) = (  -0.5000000  -1.0000000   0.0000000), wk =   0.1875000

     Dense  grid:     8099 G-vectors     FFT dimensions: (  30,  30,  30)

     Estimated max dynamical RAM per process >       7.94 MB

     Estimated total dynamical RAM >      39.69 MB

     Initial potential from superposition of free atoms

     starting charge   10.99960, renormalised to   11.00000
     Starting wfcs are    9 randomized atomic wfcs +    1 random wfcs
     Checking if some PAW data can be deallocated... 

     total cpu time spent up to now is        1.2 secs

     Self-consistent Calculation

     iteration #  1     ecut=    65.00 Ry     beta= 0.70
     Davidson diagonalization with overlap
     ethr =  1.00E-02,  avg # of iterations =  5.9

     Threshold (ethr) on eigenvalues was too large:
     Diagonalizing with lowered threshold

     Davidson diagonalization with overlap
     ethr =  2.92E-05,  avg # of iterations =  1.9

     total cpu time spent up to now is        1.5 secs

     total energy              =    -355.29149482 Ry
     Harris-Foulkes estimate   =    -355.29356718 Ry
     estimated scf accuracy    <       0.00359755 Ry

     iteration #  2     ecut=    65.00 Ry     beta= 0.70
     Davidson diagonalization with overlap
     ethr =  3.27E-05,  avg # of iterations =  2.0

     total cpu time spent up to now is        1.7 secs

     total energy              =    -355.29251366 Ry
     Harris-Foulkes estimate   =    -355.29369991 Ry
     estimated scf accuracy    <       0.00252036 Ry

     iteration #  3     ecut=    65.00 Ry     beta= 0.70
     Davidson diagonalization with overlap
     ethr =  2.29E-05,  avg # of iterations =  2.0

     total cpu time spent up to now is        1.9 secs

     total energy              =    -355.29300505 Ry
     Harris-Foulkes estimate   =    -355.29298455 Ry
     estimated scf accuracy    <       0.00001583 Ry

     iteration #  4     ecut=    65.00 Ry     beta= 0.70
     Davidson diagonalization with overlap
     ethr =  1.44E-07,  avg # of iterations =  3.0

     total cpu time spent up to now is        2.1 secs

     total energy              =    -355.29301081 Ry
     Harris-Foulkes estimate   =    -355.29301055 Ry
     estimated scf accuracy    <       0.00000030 Ry

     iteration #  5     ecut=    65.00 Ry     beta= 0.70
     Davidson diagonalization with overlap
     ethr =  2.70E-09,  avg # of iterations =  2.1

     total cpu time spent up to now is        2.3 secs

     End of self-consistent calculation

          k = 0.0000 0.0000 0.0000 (   965 PWs)   bands (ev):

     5.0612   8.0641   8.0641   8.0641   9.1053   9.1053  29.7981  33.0852
    33.0852  37.3710

          k =-0.2500 0.2500-0.2500 (  1001 PWs)   bands (ev):

     6.4500   8.2667   8.2667   8.2942   9.2317   9.2317  24.0700  30.1979
    32.6091  32.6091

          k = 0.5000-0.5000 0.5000 (  1008 PWs)   bands (ev):

     6.4603   8.0430   8.0430   9.9020   9.9020  12.4430  16.4620  28.8359
    31.0937  31.0937

          k = 0.0000 0.5000 0.0000 (   998 PWs)   bands (ev):

     6.8609   7.2690   8.9414   8.9414   9.0609   9.4786  27.6329  27.6329
    28.6982  29.8593

          k = 0.7500-0.2500 0.7500 (  1014 PWs)   bands (ev):

     6.9346   7.5013   8.5435   8.9063   9.9593  13.8690  19.0092  24.1283
    26.6312  29.7469

          k = 0.5000 0.0000 0.5000 (  1019 PWs)   bands (ev):

     7.5027   7.7293   8.1226   8.7255   9.1167  12.3120  22.1619  22.2845
    30.4845  30.7448

          k = 0.0000-1.0000 0.0000 (  1034 PWs)   bands (ev):

     6.4192   6.5597   9.8712  10.1094  10.1094  14.4710  19.5918  23.7108
    23.7108  29.9581

          k =-0.5000-1.0000 0.0000 (  1036 PWs)   bands (ev):

     7.1732   7.7869   7.7869   9.1160  10.1104  18.8369  18.8369  19.9278
    21.0591  36.2658

     the Fermi energy is    13.7024 ev

!    total energy              =    -355.29301084 Ry
     Harris-Foulkes estimate   =    -355.29301084 Ry
     estimated scf accuracy    <          8.9E-09 Ry

     total all-electron energy =    -10632.259065 Ry

     The total energy is the sum of the following terms:

     one-electron contribution =       1.58282288 Ry
     hartree contribution      =      14.65521060 Ry
     xc contribution           =     -22.35180590 Ry
     ewald contribution        =     -71.86118018 Ry
     one-center paw contrib.   =    -277.31758584 Ry
     smearing contrib. (-TS)   =      -0.00047239 Ry

     convergence has been achieved in   5 iterations

     Forces acting on atoms (cartesian axes, Ry/au):

     atom    1 type  1   force =     0.00000000    0.00000000    0.00000000

     Total force =     0.000000     Total SCF correction =     0.000000


     Computing stress (Cartesian axis) and pressure

          total   stress  (Ry/bohr**3)                   (kbar)     P=   60.53
   0.00041145   0.00000000   0.00000000         60.53      0.00      0.00
   0.00000000   0.00041145  -0.00000000          0.00     60.53     -0.00
   0.00000000  -0.00000000   0.00041145          0.00     -0.00     60.53


     Writing output data file Ag.save/

     init_run     :      0.33s CPU      0.36s WALL (       1 calls)
     electrons    :      1.06s CPU      1.15s WALL (       1 calls)
     forces       :      0.03s CPU      0.03s WALL (       1 calls)
     stress       :      0.09s CPU      0.09s WALL (       1 calls)

     Called by init_run:
     wfcinit      :      0.03s CPU      0.03s WALL (       1 calls)
     potinit      :      0.11s CPU      0.12s WALL (       1 calls)
     hinit0       :      0.18s CPU      0.18s WALL (       1 calls)

     Called by electrons:
     c_bands      :      0.40s CPU      0.42s WALL (       6 calls)
     sum_band     :      0.12s CPU      0.13s WALL (       6 calls)
     v_of_rho     :      0.03s CPU      0.03s WALL (       6 calls)
     newd         :      0.05s CPU      0.06s WALL (       6 calls)
     PAW_pot      :      0.56s CPU      0.63s WALL (       6 calls)
     mix_rho      :      0.00s CPU      0.00s WALL (       6 calls)

     Called by c_bands:
     init_us_2    :      0.02s CPU      0.02s WALL (     120 calls)
     cegterg      :      0.38s CPU      0.40s WALL (      48 calls)

     Called by sum_band:
     sum_band:bec :      0.00s CPU      0.00s WALL (      48 calls)
     addusdens    :      0.04s CPU      0.05s WALL (       6 calls)

     Called by *egterg:
     h_psi        :      0.31s CPU      0.32s WALL (     191 calls)
     s_psi        :      0.01s CPU      0.01s WALL (     191 calls)
     g_psi        :      0.00s CPU      0.00s WALL (     135 calls)
     cdiaghg      :      0.04s CPU      0.04s WALL (     175 calls)

     Called by h_psi:
     h_psi:pot    :      0.31s CPU      0.32s WALL (     191 calls)
     h_psi:calbec :      0.01s CPU      0.01s WALL (     191 calls)
     vloc_psi     :      0.28s CPU      0.30s WALL (     191 calls)
     add_vuspsi   :      0.01s CPU      0.01s WALL (     191 calls)

     General routines
     calbec       :      0.03s CPU      0.03s WALL (     279 calls)
     fft          :      0.02s CPU      0.02s WALL (      93 calls)
     ffts         :      0.00s CPU      0.00s WALL (       6 calls)
     fftw         :      0.32s CPU      0.33s WALL (    3024 calls)

     Parallel routines
     fft_scatt_xy :      0.03s CPU      0.03s WALL (    3123 calls)
     fft_scatt_yz :      0.08s CPU      0.08s WALL (    3123 calls)

     PWSCF        :     2.32s CPU         2.48s WALL


   This run was terminated on:   0:28:50  27Mar2024            

=------------------------------------------------------------------------------=
   JOB DONE.
=------------------------------------------------------------------------------=
