
     Program PWSCF v.6.3MaX starts on 27Mar2024 at  0:43: 3 

     This program is part of the open-source Quantum ESPRESSO suite
     for quantum simulation of materials; please cite
         "P. Giannozzi et al., J. Phys.:Condens. Matter 21 395502 (2009);
         "P. Giannozzi et al., J. Phys.:Condens. Matter 29 465901 (2017);
          URL http://www.quantum-espresso.org", 
     in publications or presentations arising from this work. More details at
     http://www.quantum-espresso.org/quote

     Parallel version (MPI), running on     5 processors

     MPI processes distributed on     1 nodes
     R & G space division:  proc/nbgrp/npool/nimage =       5
     Waiting for input...
     Reading input from standard input

     Current dimensions of program PWSCF are:
     Max number of different atomic species (ntypx) = 10
     Max number of k-points (npk) =  40000
     Max angular momentum in pseudopotentials (lmaxx) =  3
               file Ag.pbesol-n-kjpaw_psl.1.0.0.UPF: wavefunction(s)  5S 5P renormalized

     Subspace diagonalization in iterative solution of the eigenvalue problem:
     a serial algorithm will be used


     Parallelization info
     --------------------
     sticks:   dense  smooth     PW     G-vecs:    dense   smooth      PW
     Min         149     149     43                 2664     2664     445
     Max         149     149     45                 2665     2665     446
     Sum         745     745    223                13323    13323    2229



     bravais-lattice index     =            2
     lattice parameter (alat)  =       7.7200  a.u.
     unit-cell volume          =     115.0249 (a.u.)^3
     number of atoms/cell      =            1
     number of atomic types    =            1
     number of electrons       =        11.00
     number of Kohn-Sham states=           10
     kinetic-energy cutoff     =      90.0000  Ry
     charge density cutoff     =     360.0000  Ry
     convergence threshold     =      1.0E-08
     mixing beta               =       0.7000
     number of iterations used =            8  plain     mixing
     Exchange-correlation      = SLA PW PSX PSC ( 1  4 10  8 0 0)

     celldm(1)=   7.720000  celldm(2)=   0.000000  celldm(3)=   0.000000
     celldm(4)=   0.000000  celldm(5)=   0.000000  celldm(6)=   0.000000

     crystal axes: (cart. coord. in units of alat)
               a(1) = (  -0.500000   0.000000   0.500000 )  
               a(2) = (   0.000000   0.500000   0.500000 )  
               a(3) = (  -0.500000   0.500000   0.000000 )  

     reciprocal axes: (cart. coord. in units 2 pi/alat)
               b(1) = ( -1.000000 -1.000000  1.000000 )  
               b(2) = (  1.000000  1.000000  1.000000 )  
               b(3) = ( -1.000000  1.000000 -1.000000 )  


     PseudoPot. # 1 for Ag read from file:
     /home/lorenzo/pseudos/Ag/Ag.pbesol-n-kjpaw_psl.1.0.0.UPF
     MD5 check sum: 3b245e14fa22881b2ac493bfd23f605f
     Pseudo is Projector augmented-wave + core cor, Zval = 11.0
     Generated using "atomic" code by A. Dal Corso v.6.2.2
     Shape of augmentation charge: PSQ
     Using radial grid of 1237 points,  6 beta functions with: 
                l(1) =   0
                l(2) =   0
                l(3) =   1
                l(4) =   1
                l(5) =   2
                l(6) =   2
     Q(r) pseudized with 0 coefficients 


     atomic species   valence    mass     pseudopotential
        Ag            11.00   107.86820     Ag( 1.00)

     48 Sym. Ops., with inversion, found



   Cartesian axes

     site n.     atom                  positions (alat units)
         1           Ag  tau(   1) = (   0.0000000   0.0000000   0.0000000  )

     number of k points=    56  gaussian smearing, width (Ry)=  0.0100
                       cart. coord. in units 2pi/alat
        k(    1) = (   0.0000000   0.0000000   0.0000000), wk =   0.0015026
        k(    2) = (  -0.0909091   0.0909091  -0.0909091), wk =   0.0120210
        k(    3) = (  -0.1818182   0.1818182  -0.1818182), wk =   0.0120210
        k(    4) = (  -0.2727273   0.2727273  -0.2727273), wk =   0.0120210
        k(    5) = (  -0.3636364   0.3636364  -0.3636364), wk =   0.0120210
        k(    6) = (  -0.4545455   0.4545455  -0.4545455), wk =   0.0120210
        k(    7) = (   0.0000000   0.1818182   0.0000000), wk =   0.0090158
        k(    8) = (  -0.0909091   0.2727273  -0.0909091), wk =   0.0360631
        k(    9) = (  -0.1818182   0.3636364  -0.1818182), wk =   0.0360631
        k(   10) = (  -0.2727273   0.4545455  -0.2727273), wk =   0.0360631
        k(   11) = (  -0.3636364   0.5454545  -0.3636364), wk =   0.0360631
        k(   12) = (   0.5454545  -0.3636364   0.5454545), wk =   0.0360631
        k(   13) = (   0.4545455  -0.2727273   0.4545455), wk =   0.0360631
        k(   14) = (   0.3636364  -0.1818182   0.3636364), wk =   0.0360631
        k(   15) = (   0.2727273  -0.0909091   0.2727273), wk =   0.0360631
        k(   16) = (   0.1818182  -0.0000000   0.1818182), wk =   0.0180316
        k(   17) = (   0.0000000   0.3636364   0.0000000), wk =   0.0090158
        k(   18) = (  -0.0909091   0.4545455  -0.0909091), wk =   0.0360631
        k(   19) = (  -0.1818182   0.5454545  -0.1818182), wk =   0.0360631
        k(   20) = (  -0.2727273   0.6363636  -0.2727273), wk =   0.0360631
        k(   21) = (   0.6363636  -0.2727273   0.6363636), wk =   0.0360631
        k(   22) = (   0.5454545  -0.1818182   0.5454545), wk =   0.0360631
        k(   23) = (   0.4545455  -0.0909091   0.4545455), wk =   0.0360631
        k(   24) = (   0.3636364   0.0000000   0.3636364), wk =   0.0180316
        k(   25) = (   0.0000000   0.5454545   0.0000000), wk =   0.0090158
        k(   26) = (  -0.0909091   0.6363636  -0.0909091), wk =   0.0360631
        k(   27) = (  -0.1818182   0.7272727  -0.1818182), wk =   0.0360631
        k(   28) = (   0.7272727  -0.1818182   0.7272727), wk =   0.0360631
        k(   29) = (   0.6363636  -0.0909091   0.6363636), wk =   0.0360631
        k(   30) = (   0.5454545   0.0000000   0.5454545), wk =   0.0180316
        k(   31) = (   0.0000000   0.7272727   0.0000000), wk =   0.0090158
        k(   32) = (  -0.0909091   0.8181818  -0.0909091), wk =   0.0360631
        k(   33) = (   0.8181818  -0.0909091   0.8181818), wk =   0.0360631
        k(   34) = (   0.7272727   0.0000000   0.7272727), wk =   0.0180316
        k(   35) = (   0.0000000   0.9090909   0.0000000), wk =   0.0090158
        k(   36) = (   0.9090909  -0.0000000   0.9090909), wk =   0.0180316
        k(   37) = (  -0.1818182   0.3636364   0.0000000), wk =   0.0360631
        k(   38) = (  -0.2727273   0.4545455  -0.0909091), wk =   0.0721262
        k(   39) = (  -0.3636364   0.5454545  -0.1818182), wk =   0.0721262
        k(   40) = (   0.5454545  -0.3636364   0.7272727), wk =   0.0721262
        k(   41) = (  -0.1818182   0.5454545   0.0000000), wk =   0.0360631
        k(   42) = (  -0.2727273   0.6363636  -0.0909091), wk =   0.0721262
        k(   43) = (   0.6363636  -0.2727273   0.8181818), wk =   0.0721262
        k(   44) = (   0.5454545  -0.1818182   0.7272727), wk =   0.0721262
        k(   45) = (   0.4545455  -0.0909091   0.6363636), wk =   0.0721262
        k(   46) = (   0.3636364   0.0000000   0.5454545), wk =   0.0360631
        k(   47) = (  -0.1818182   0.7272727   0.0000000), wk =   0.0360631
        k(   48) = (   0.7272727  -0.1818182   0.9090909), wk =   0.0721262
        k(   49) = (   0.6363636  -0.0909091   0.8181818), wk =   0.0721262
        k(   50) = (   0.5454545   0.0000000   0.7272727), wk =   0.0360631
        k(   51) = (   0.8181818  -0.0909091   1.0000000), wk =   0.0360631
        k(   52) = (   0.7272727   0.0000000   0.9090909), wk =   0.0360631
        k(   53) = (   0.6363636  -0.2727273   1.0000000), wk =   0.0360631
        k(   54) = (   0.5454545  -0.1818182   0.9090909), wk =   0.0721262
        k(   55) = (   0.6363636  -0.0909091   1.0000000), wk =   0.0360631
        k(   56) = (   0.5454545   0.0000000   0.9090909), wk =   0.0360631

     Dense  grid:    13323 G-vectors     FFT dimensions: (  36,  36,  36)

     Estimated max dynamical RAM per process >      14.83 MB

     Estimated total dynamical RAM >      74.17 MB

     Initial potential from superposition of free atoms

     starting charge   10.99964, renormalised to   11.00000
     Starting wfcs are    9 randomized atomic wfcs +    1 random wfcs
     Checking if some PAW data can be deallocated... 

     total cpu time spent up to now is        1.6 secs

     Self-consistent Calculation

     iteration #  1     ecut=    90.00 Ry     beta= 0.70
     Davidson diagonalization with overlap
     ethr =  1.00E-02,  avg # of iterations =  4.6

     Threshold (ethr) on eigenvalues was too large:
     Diagonalizing with lowered threshold

     Davidson diagonalization with overlap
     ethr =  4.92E-05,  avg # of iterations =  2.0

     total cpu time spent up to now is        3.8 secs

     total energy              =    -350.23848057 Ry
     Harris-Foulkes estimate   =    -350.24236897 Ry
     estimated scf accuracy    <       0.00583646 Ry

     iteration #  2     ecut=    90.00 Ry     beta= 0.70
     Davidson diagonalization with overlap
     ethr =  5.31E-05,  avg # of iterations =  2.1

     total cpu time spent up to now is        5.4 secs

     total energy              =    -350.24012850 Ry
     Harris-Foulkes estimate   =    -350.24229876 Ry
     estimated scf accuracy    <       0.00451197 Ry

     iteration #  3     ecut=    90.00 Ry     beta= 0.70
     Davidson diagonalization with overlap
     ethr =  4.10E-05,  avg # of iterations =  1.6

     total cpu time spent up to now is        6.4 secs

     total energy              =    -350.24099361 Ry
     Harris-Foulkes estimate   =    -350.24097680 Ry
     estimated scf accuracy    <       0.00001560 Ry

     iteration #  4     ecut=    90.00 Ry     beta= 0.70
     Davidson diagonalization with overlap
     ethr =  1.42E-07,  avg # of iterations =  2.9

     total cpu time spent up to now is        7.6 secs

     total energy              =    -350.24100285 Ry
     Harris-Foulkes estimate   =    -350.24100268 Ry
     estimated scf accuracy    <       0.00000052 Ry

     iteration #  5     ecut=    90.00 Ry     beta= 0.70
     Davidson diagonalization with overlap
     ethr =  4.72E-09,  avg # of iterations =  1.1

     total cpu time spent up to now is        8.5 secs

     End of self-consistent calculation

          k = 0.0000 0.0000 0.0000 (  1639 PWs)   bands (ev):

     4.8041   7.9066   7.9066   7.9066   8.9582   8.9582  29.5441  32.8280
    32.8280  32.8280

          k =-0.0909 0.0909-0.0909 (  1669 PWs)   bands (ev):

     5.0593   7.8504   7.9761   7.9761   8.9340   8.9340  29.3213  30.9248
    32.8107  32.8107

          k =-0.1818 0.1818-0.1818 (  1666 PWs)   bands (ev):

     5.7304   7.8062   8.1009   8.1009   8.9440   8.9440  26.5294  30.2673
    32.6673  32.6673

          k =-0.2727 0.2727-0.2727 (  1643 PWs)   bands (ev):

     6.3100   8.0933   8.0933   8.3390   9.1586   9.1586  22.9383  29.7899
    32.2036  32.2036

          k =-0.3636 0.3636-0.3636 (  1655 PWs)   bands (ev):

     6.3586   7.9818   7.9818   9.4937   9.4937   9.8959  19.5202  29.0913
    31.4622  31.4622

          k =-0.4545 0.4545-0.4545 (  1673 PWs)   bands (ev):

     6.2844   7.8972   7.8972   9.7282   9.7282  11.7628  16.7797  28.6486
    30.9049  30.9049

          k = 0.0000 0.1818 0.0000 (  1671 PWs)   bands (ev):

     5.1449   7.7722   8.0332   8.0332   8.8273   9.0167  29.5542  31.6033
    31.6956  31.6956

          k =-0.0909 0.2727-0.0909 (  1659 PWs)   bands (ev):

     5.6894   7.6412   8.1744   8.1804   8.7575   9.0824  27.8781  30.0208
    30.7809  32.7526

          k =-0.1818 0.3636-0.1818 (  1656 PWs)   bands (ev):

     6.3695   7.7391   8.1356   8.2377   9.1025   9.2677  24.2976  29.6600
    30.0619  32.9124

          k =-0.2727 0.4545-0.2727 (  1652 PWs)   bands (ev):

     6.5266   7.9511   8.1549   8.4589   9.5588  10.1101  20.7705  29.0264
    29.5952  31.3291

          k =-0.3636 0.5455-0.3636 (  1661 PWs)   bands (ev):

     6.4455   7.8242   8.0481   9.0751   9.7557  11.8330  17.6641  28.3949
    29.5572  30.0989

          k = 0.5455-0.3636 0.5455 (  1662 PWs)   bands (ev):

     6.4186   7.8000   8.0019   9.3111   9.7172  12.8222  16.3642  27.9356
    29.6050  30.1475

          k = 0.4545-0.2727 0.4545 (  1657 PWs)   bands (ev):

     6.4880   7.8784   8.0468   9.0965   9.4383  11.2856  18.6349  27.7699
    29.9139  31.4505

          k = 0.3636-0.1818 0.3636 (  1652 PWs)   bands (ev):

     6.5526   7.9750   8.1625   8.3746   9.0399   9.9583  21.9329  27.9496
    30.8787  33.3932

          k = 0.2727-0.0909 0.2727 (  1654 PWs)   bands (ev):

     6.1836   7.6823   8.1779   8.2237   8.7555   9.3146  25.5115  28.3740
    32.0333  34.1234

          k = 0.1818-0.0000 0.1818 (  1667 PWs)   bands (ev):

     5.4632   7.7365   8.0772   8.1082   8.8015   9.0371  28.7726  29.1298
    31.9524  34.0158

          k = 0.0000 0.3636 0.0000 (  1656 PWs)   bands (ev):

     6.0432   7.4251   8.3966   8.3966   8.5993   9.1759  29.2873  29.2873
    29.5879  29.9892

          k =-0.0909 0.4545-0.0909 (  1655 PWs)   bands (ev):

     6.5943   7.2716   8.2923   8.5631   9.1213   9.3339  25.9342  28.2054
    29.2458  30.5408

          k =-0.1818 0.5455-0.1818 (  1655 PWs)   bands (ev):

     6.7878   7.4955   8.1120   8.5380   9.6057  10.3779  22.3498  27.5970
    27.9542  29.9519

          k =-0.2727 0.6364-0.2727 (  1659 PWs)   bands (ev):

     6.7285   7.6368   8.2872   8.4278   9.7894  12.2445  19.0248  26.5027
    27.5778  29.5338

          k = 0.6364-0.2727 0.6364 (  1665 PWs)   bands (ev):

     6.7381   7.5991   8.3391   8.5644   9.7293  14.1992  16.5489  25.3557
    28.2535  29.4003

          k = 0.5455-0.1818 0.5455 (  1655 PWs)   bands (ev):

     6.8461   7.6533   8.3250   8.5199   9.4215  13.0633  18.1326  24.6807
    29.6269  29.6884

          k = 0.4545-0.0909 0.4545 (  1657 PWs)   bands (ev):

     7.0159   7.7237   8.1308   8.4021   8.9767  11.3065  21.3203  24.5332
    30.4919  31.5694

          k = 0.3636 0.0000 0.3636 (  1656 PWs)   bands (ev):

     6.8758   7.4969   8.1148   8.5317   8.5648  10.0798  24.6688  25.0115
    31.7823  33.8249

          k = 0.0000 0.5455 0.0000 (  1656 PWs)   bands (ev):

     6.7046   6.9971   8.9352   8.9352   9.1700   9.3896  26.7811  26.7811
    27.6343  29.6421

          k =-0.0909 0.6364-0.0909 (  1663 PWs)   bands (ev):

     6.7333   6.8919   8.8255   9.0464   9.6132  10.5689  24.0693  25.7315
    25.9111  29.7680

          k =-0.1818 0.7273-0.1818 (  1655 PWs)   bands (ev):

     6.6975   7.0645   8.6107   8.9537   9.8180  12.5671  20.7731  24.0055
    25.7280  29.6145

          k = 0.7273-0.1818 0.7273 (  1660 PWs)   bands (ev):

     6.7791   7.3188   8.3830   8.8313   9.7672  14.9746  17.8107  22.6104
    26.3125  29.5166

          k = 0.6364-0.0909 0.6364 (  1656 PWs)   bands (ev):

     6.9957   7.5692   8.1019   8.7310   9.4741  15.0806  17.9722  21.6503
    27.6139  29.6021

          k = 0.5455 0.0000 0.5455 (  1650 PWs)   bands (ev):

     7.2622   7.6599   7.8833   8.6312   9.1154  13.0106  20.9396  21.3817
    29.4541  29.9511

          k = 0.0000 0.7273 0.0000 (  1664 PWs)   bands (ev):

     6.5186   6.6267   9.5150   9.5150   9.5915  11.2244  23.5586  24.7539
    24.7539  29.6983

          k =-0.0909 0.8182-0.0909 (  1655 PWs)   bands (ev):

     6.4572   6.5872   9.4409   9.4712   9.8383  12.9223  21.6584  22.7592
    24.3182  29.7264

          k = 0.8182-0.0909 0.8182 (  1664 PWs)   bands (ev):

     6.5356   6.8102   9.0238   9.3320   9.8350  15.1464  19.7288  20.5535
    24.7150  29.6490

          k = 0.7273 0.0000 0.7273 (  1666 PWs)   bands (ev):

     6.7479   7.2179   8.4731   9.1052   9.6339  17.3250  17.3294  19.8670
    25.8831  29.5898

          k = 0.0000 0.9091 0.0000 (  1664 PWs)   bands (ev):

     6.2758   6.4159   9.7141   9.9130   9.9130  13.6566  20.0586  23.5994
    23.5994  29.7338

          k = 0.9091-0.0000 0.9091 (  1664 PWs)   bands (ev):

     6.3255   6.4781   9.6400   9.6849   9.9310  14.6761  19.3920  22.2011
    23.7410  29.7454

          k =-0.1818 0.3636 0.0000 (  1655 PWs)   bands (ev):

     6.2926   7.4714   8.1877   8.3985   8.7541   9.3391  26.9392  27.1588
    31.7083  31.8068

          k =-0.2727 0.4545-0.0909 (  1659 PWs)   bands (ev):

     6.8149   7.5818   7.9950   8.4784   9.0452  10.0650  23.4278  26.5048
    30.0915  32.3422

          k =-0.3636 0.5455-0.1818 (  1656 PWs)   bands (ev):

     6.7715   7.7800   8.1584   8.4318   9.4625  11.4389  19.9882  26.3067
    28.5830  31.5356

          k = 0.5455-0.3636 0.7273 (  1657 PWs)   bands (ev):

     6.6829   7.6486   8.2447   8.7008   9.6836  13.3291  17.0770  26.5730
    27.3950  30.8724

          k =-0.1818 0.5455 0.0000 (  1666 PWs)   bands (ev):

     6.9267   7.0989   8.2307   8.9291   9.2095  10.1316  25.0271  25.2620
    27.9054  31.3732

          k =-0.2727 0.6364-0.0909 (  1658 PWs)   bands (ev):

     6.9227   7.2963   8.0880   8.9176   9.5191  11.6806  21.6770  24.8006
    26.1419  31.4816

          k = 0.6364-0.2727 0.8182 (  1661 PWs)   bands (ev):

     6.9103   7.4355   8.1169   8.7514   9.7159  13.7825  18.5032  24.6188
    25.0671  31.2632

          k = 0.5455-0.1818 0.7273 (  1658 PWs)   bands (ev):

     7.0172   7.4286   8.1966   8.6243   9.6490  15.2305  16.8727  23.5650
    25.8258  31.4073

          k = 0.4545-0.0909 0.6364 (  1654 PWs)   bands (ev):

     7.1889   7.5125   7.9120   8.7075   9.3628  13.1734  19.6398  22.9885
    27.0451  32.1308

          k = 0.3636 0.0000 0.5455 (  1661 PWs)   bands (ev):

     7.3662   7.3867   7.7526   8.8436   8.9484  11.3870  22.9030  23.0329
    28.5335  33.3944

          k =-0.1818 0.7273 0.0000 (  1668 PWs)   bands (ev):

     6.7152   6.7687   8.7871   9.5103   9.5346  12.0389  23.2889  23.5607
    23.9347  31.0784

          k = 0.7273-0.1818 0.9091 (  1663 PWs)   bands (ev):

     6.7279   6.9450   8.5605   9.2742   9.7857  14.1310  20.3929  22.1653
    23.6390  31.2444

          k = 0.6364-0.0909 0.8182 (  1656 PWs)   bands (ev):

     6.8701   7.2567   8.2375   9.0214   9.7489  16.6235  17.6503  20.9241
    24.3578  31.3409

          k = 0.5455 0.0000 0.7273 (  1659 PWs)   bands (ev):

     7.1318   7.5650   7.8104   8.8751   9.5171  15.2187  19.2153  20.4635
    25.5764  31.7094

          k = 0.8182-0.0909 1.0000 (  1661 PWs)   bands (ev):

     6.4576   6.5790   9.2770   9.5855   9.9125  14.4761  20.1472  22.5395
    22.6394  30.9504

          k = 0.7273 0.0000 0.9091 (  1658 PWs)   bands (ev):

     6.6146   6.8331   8.8282   9.3247   9.9076  16.1176  19.4160  20.1910
    23.1877  31.2090

          k = 0.6364-0.2727 1.0000 (  1657 PWs)   bands (ev):

     7.1765   7.1822   7.9048   9.1454   9.5023  13.4972  21.4024  21.6287
    24.4889  33.8690

          k = 0.5455-0.1818 0.9091 (  1662 PWs)   bands (ev):

     7.1553   7.3626   7.8220   8.9423   9.7358  15.7419  18.4563  21.9292
    23.1802  33.6203

          k = 0.6364-0.0909 1.0000 (  1653 PWs)   bands (ev):

     6.8717   7.0631   8.2703   9.1573   9.9109  16.1507  20.3354  20.4352
    21.4791  33.5967

          k = 0.5455 0.0000 0.9091 (  1656 PWs)   bands (ev):

     7.0061   7.4171   7.8424   8.9799   9.9084  18.0063  18.1778  19.9922
    21.8896  34.2330

     the Fermi energy is    12.8675 ev

!    total energy              =    -350.24100287 Ry
     Harris-Foulkes estimate   =    -350.24100287 Ry
     estimated scf accuracy    <          4.2E-09 Ry

     total all-electron energy =    -10627.251412 Ry

     The total energy is the sum of the following terms:

     one-electron contribution =       1.61244860 Ry
     hartree contribution      =      14.56281424 Ry
     xc contribution           =     -22.14154217 Ry
     ewald contribution        =     -71.86118018 Ry
     one-center paw contrib.   =    -272.41333409 Ry
     smearing contrib. (-TS)   =      -0.00020928 Ry

     convergence has been achieved in   5 iterations

     Forces acting on atoms (cartesian axes, Ry/au):

     atom    1 type  1   force =     0.00000000    0.00000000    0.00000000

     Total force =     0.000000     Total SCF correction =     0.000000


     Computing stress (Cartesian axis) and pressure

          total   stress  (Ry/bohr**3)                   (kbar)     P=  -25.58
  -0.00017386   0.00000000   0.00000000        -25.58      0.00      0.00
   0.00000000  -0.00017386  -0.00000000          0.00    -25.58     -0.00
   0.00000000  -0.00000000  -0.00017386          0.00     -0.00    -25.58


     Writing output data file Ag.save/

     init_run     :      0.73s CPU      0.77s WALL (       1 calls)
     electrons    :      6.49s CPU      6.90s WALL (       1 calls)
     forces       :      0.09s CPU      0.09s WALL (       1 calls)
     stress       :      0.32s CPU      0.33s WALL (       1 calls)

     Called by init_run:
     wfcinit      :      0.30s CPU      0.32s WALL (       1 calls)
     potinit      :      0.11s CPU      0.13s WALL (       1 calls)
     hinit0       :      0.28s CPU      0.28s WALL (       1 calls)

     Called by electrons:
     c_bands      :      4.94s CPU      5.26s WALL (       6 calls)
     sum_band     :      0.92s CPU      0.98s WALL (       6 calls)
     v_of_rho     :      0.06s CPU      0.07s WALL (       6 calls)
     newd         :      0.08s CPU      0.08s WALL (       6 calls)
     PAW_pot      :      0.60s CPU      0.64s WALL (       6 calls)
     mix_rho      :      0.00s CPU      0.00s WALL (       6 calls)

     Called by c_bands:
     init_us_2    :      0.16s CPU      0.16s WALL (     840 calls)
     cegterg      :      4.72s CPU      5.03s WALL (     336 calls)

     Called by sum_band:
     sum_band:bec :      0.00s CPU      0.00s WALL (     336 calls)
     addusdens    :      0.07s CPU      0.08s WALL (       6 calls)

     Called by *egterg:
     h_psi        :      4.06s CPU      4.35s WALL (    1196 calls)
     s_psi        :      0.11s CPU      0.12s WALL (    1196 calls)
     g_psi        :      0.01s CPU      0.01s WALL (     804 calls)
     cdiaghg      :      0.25s CPU      0.26s WALL (    1084 calls)

     Called by h_psi:
     h_psi:pot    :      4.04s CPU      4.33s WALL (    1196 calls)
     h_psi:calbec :      0.18s CPU      0.19s WALL (    1196 calls)
     vloc_psi     :      3.73s CPU      4.00s WALL (    1196 calls)
     add_vuspsi   :      0.12s CPU      0.13s WALL (    1196 calls)

     General routines
     calbec       :      0.29s CPU      0.31s WALL (    1812 calls)
     fft          :      0.04s CPU      0.04s WALL (      93 calls)
     ffts         :      0.00s CPU      0.00s WALL (       6 calls)
     fftw         :      4.13s CPU      4.43s WALL (   20808 calls)

     Parallel routines
     fft_scatt_xy :      0.34s CPU      0.37s WALL (   20907 calls)
     fft_scatt_yz :      1.02s CPU      1.10s WALL (   20907 calls)

     PWSCF        :     8.55s CPU         9.08s WALL


   This run was terminated on:   0:43:12  27Mar2024            

=------------------------------------------------------------------------------=
   JOB DONE.
=------------------------------------------------------------------------------=
