
     Program PWSCF v.6.3MaX starts on 27Mar2024 at  0: 3:11 

     This program is part of the open-source Quantum ESPRESSO suite
     for quantum simulation of materials; please cite
         "P. Giannozzi et al., J. Phys.:Condens. Matter 21 395502 (2009);
         "P. Giannozzi et al., J. Phys.:Condens. Matter 29 465901 (2017);
          URL http://www.quantum-espresso.org", 
     in publications or presentations arising from this work. More details at
     http://www.quantum-espresso.org/quote

     Parallel version (MPI), running on     5 processors

     MPI processes distributed on     1 nodes
     R & G space division:  proc/nbgrp/npool/nimage =       5
     Waiting for input...
     Reading input from standard input

     Current dimensions of program PWSCF are:
     Max number of different atomic species (ntypx) = 10
     Max number of k-points (npk) =  40000
     Max angular momentum in pseudopotentials (lmaxx) =  3
               file Ag.pbesol-n-kjpaw_psl.1.0.0.UPF: wavefunction(s)  5S 5P renormalized

     Subspace diagonalization in iterative solution of the eigenvalue problem:
     a serial algorithm will be used


     Parallelization info
     --------------------
     sticks:   dense  smooth     PW     G-vecs:    dense   smooth      PW
     Min         164     164     50                 3117     3117     527
     Max         165     165     51                 3120     3120     528
     Sum         823     823    253                15593    15593    2637



     bravais-lattice index     =            2
     lattice parameter (alat)  =       7.7200  a.u.
     unit-cell volume          =     115.0249 (a.u.)^3
     number of atoms/cell      =            1
     number of atomic types    =            1
     number of electrons       =        11.00
     number of Kohn-Sham states=           10
     kinetic-energy cutoff     =     100.0000  Ry
     charge density cutoff     =     400.0000  Ry
     convergence threshold     =      1.0E-08
     mixing beta               =       0.7000
     number of iterations used =            8  plain     mixing
     Exchange-correlation      = SLA PW PSX PSC ( 1  4 10  8 0 0)

     celldm(1)=   7.720000  celldm(2)=   0.000000  celldm(3)=   0.000000
     celldm(4)=   0.000000  celldm(5)=   0.000000  celldm(6)=   0.000000

     crystal axes: (cart. coord. in units of alat)
               a(1) = (  -0.500000   0.000000   0.500000 )  
               a(2) = (   0.000000   0.500000   0.500000 )  
               a(3) = (  -0.500000   0.500000   0.000000 )  

     reciprocal axes: (cart. coord. in units 2 pi/alat)
               b(1) = ( -1.000000 -1.000000  1.000000 )  
               b(2) = (  1.000000  1.000000  1.000000 )  
               b(3) = ( -1.000000  1.000000 -1.000000 )  


     PseudoPot. # 1 for Ag read from file:
     /home/lorenzo/pseudos/Ag/Ag.pbesol-n-kjpaw_psl.1.0.0.UPF
     MD5 check sum: 3b245e14fa22881b2ac493bfd23f605f
     Pseudo is Projector augmented-wave + core cor, Zval = 11.0
     Generated using "atomic" code by A. Dal Corso v.6.2.2
     Shape of augmentation charge: PSQ
     Using radial grid of 1237 points,  6 beta functions with: 
                l(1) =   0
                l(2) =   0
                l(3) =   1
                l(4) =   1
                l(5) =   2
                l(6) =   2
     Q(r) pseudized with 0 coefficients 


     atomic species   valence    mass     pseudopotential
        Ag            11.00   107.86820     Ag( 1.00)

     48 Sym. Ops., with inversion, found



   Cartesian axes

     site n.     atom                  positions (alat units)
         1           Ag  tau(   1) = (   0.0000000   0.0000000   0.0000000  )

     number of k points=    20  gaussian smearing, width (Ry)=  0.0100
                       cart. coord. in units 2pi/alat
        k(    1) = (   0.0000000   0.0000000   0.0000000), wk =   0.0058309
        k(    2) = (  -0.1428571   0.1428571  -0.1428571), wk =   0.0466472
        k(    3) = (  -0.2857143   0.2857143  -0.2857143), wk =   0.0466472
        k(    4) = (  -0.4285714   0.4285714  -0.4285714), wk =   0.0466472
        k(    5) = (   0.0000000   0.2857143   0.0000000), wk =   0.0349854
        k(    6) = (  -0.1428571   0.4285714  -0.1428571), wk =   0.1399417
        k(    7) = (  -0.2857143   0.5714286  -0.2857143), wk =   0.1399417
        k(    8) = (   0.5714286  -0.2857143   0.5714286), wk =   0.1399417
        k(    9) = (   0.4285714  -0.1428571   0.4285714), wk =   0.1399417
        k(   10) = (   0.2857143  -0.0000000   0.2857143), wk =   0.0699708
        k(   11) = (   0.0000000   0.5714286   0.0000000), wk =   0.0349854
        k(   12) = (  -0.1428571   0.7142857  -0.1428571), wk =   0.1399417
        k(   13) = (   0.7142857  -0.1428571   0.7142857), wk =   0.1399417
        k(   14) = (   0.5714286   0.0000000   0.5714286), wk =   0.0699708
        k(   15) = (   0.0000000   0.8571429   0.0000000), wk =   0.0349854
        k(   16) = (   0.8571429  -0.0000000   0.8571429), wk =   0.0699708
        k(   17) = (  -0.2857143   0.5714286   0.0000000), wk =   0.1399417
        k(   18) = (   0.5714286  -0.2857143   0.8571429), wk =   0.2798834
        k(   19) = (   0.7142857  -0.1428571   1.0000000), wk =   0.1399417
        k(   20) = (   0.5714286   0.0000000   0.8571429), wk =   0.1399417

     Dense  grid:    15593 G-vectors     FFT dimensions: (  36,  36,  36)

     Estimated max dynamical RAM per process >      14.90 MB

     Estimated total dynamical RAM >      74.50 MB

     Initial potential from superposition of free atoms

     starting charge   10.99964, renormalised to   11.00000
     Starting wfcs are    9 randomized atomic wfcs +    1 random wfcs
     Checking if some PAW data can be deallocated... 

     total cpu time spent up to now is        1.3 secs

     Self-consistent Calculation

     iteration #  1     ecut=   100.00 Ry     beta= 0.70
     Davidson diagonalization with overlap
     ethr =  1.00E-02,  avg # of iterations =  4.5

     Threshold (ethr) on eigenvalues was too large:
     Diagonalizing with lowered threshold

     Davidson diagonalization with overlap
     ethr =  4.57E-05,  avg # of iterations =  2.5

     total cpu time spent up to now is        2.2 secs

     total energy              =    -350.24226968 Ry
     Harris-Foulkes estimate   =    -350.24587882 Ry
     estimated scf accuracy    <       0.00544554 Ry

     iteration #  2     ecut=   100.00 Ry     beta= 0.70
     Davidson diagonalization with overlap
     ethr =  4.95E-05,  avg # of iterations =  2.2

     total cpu time spent up to now is        2.7 secs

     total energy              =    -350.24382728 Ry
     Harris-Foulkes estimate   =    -350.24581148 Ry
     estimated scf accuracy    <       0.00412396 Ry

     iteration #  3     ecut=   100.00 Ry     beta= 0.70
     Davidson diagonalization with overlap
     ethr =  3.75E-05,  avg # of iterations =  1.7

     total cpu time spent up to now is        3.2 secs

     total energy              =    -350.24461516 Ry
     Harris-Foulkes estimate   =    -350.24459850 Ry
     estimated scf accuracy    <       0.00001530 Ry

     iteration #  4     ecut=   100.00 Ry     beta= 0.70
     Davidson diagonalization with overlap
     ethr =  1.39E-07,  avg # of iterations =  3.0

     total cpu time spent up to now is        3.7 secs

     total energy              =    -350.24462385 Ry
     Harris-Foulkes estimate   =    -350.24462369 Ry
     estimated scf accuracy    <       0.00000052 Ry

     iteration #  5     ecut=   100.00 Ry     beta= 0.70
     Davidson diagonalization with overlap
     ethr =  4.70E-09,  avg # of iterations =  1.1

     total cpu time spent up to now is        4.1 secs

     End of self-consistent calculation

          k = 0.0000 0.0000 0.0000 (  1917 PWs)   bands (ev):

     4.8055   7.9163   7.9163   7.9163   8.9676   8.9676  29.5460  32.8283
    32.8283  32.8283

          k =-0.1429 0.1429-0.1429 (  1940 PWs)   bands (ev):

     5.4110   7.8118   8.0632   8.0632   8.9327   8.9327  27.9929  30.3611
    32.7579  32.7580

          k =-0.2857 0.2857-0.2857 (  1934 PWs)   bands (ev):

     6.3473   8.0894   8.0894   8.5126   9.2145   9.2145  22.4349  29.6906
    32.1098  32.1098

          k =-0.4286 0.4286-0.4286 (  1937 PWs)   bands (ev):

     6.3087   7.9231   7.9231   9.6920   9.6920  11.2766  17.4317  28.7340
    31.0199  31.0199

          k = 0.0000 0.2857 0.0000 (  1953 PWs)   bands (ev):

     5.6156   7.6018   8.2244   8.2244   8.6881   9.1071  29.5732  30.3832
    30.3832  30.6507

          k =-0.1429 0.4286-0.1429 (  1948 PWs)   bands (ev):

     6.5717   7.4794   8.1521   8.4173   9.2554   9.3581  24.6963  28.8554
    29.4035  31.3289

          k =-0.2857 0.5714-0.2857 (  1939 PWs)   bands (ev):

     6.6495   7.7820   8.2810   8.4115   9.7529  11.5171  19.2648  27.8345
    28.3728  29.7678

          k = 0.5714-0.2857 0.5714 (  1948 PWs)   bands (ev):

     6.6201   7.7029   8.1731   8.9010   9.6679  13.4838  16.5853  26.3652
    29.4313  29.4392

          k = 0.4286-0.1429 0.4286 (  1941 PWs)   bands (ev):

     6.7962   7.8527   8.2761   8.3294   9.0642  10.8792  21.0466  26.0015
    30.5247  32.1522

          k = 0.2857-0.0000 0.2857 (  1945 PWs)   bands (ev):

     6.2768   7.5851   8.1928   8.3203   8.6576   9.4306  26.4946  26.7741
    32.7612  33.1323

          k = 0.0000 0.5714 0.0000 (  1960 PWs)   bands (ev):

     6.7159   6.9467   9.0302   9.0302   9.3963   9.4305  26.4545  26.4545
    27.0941  29.6547

          k =-0.1429 0.7143-0.1429 (  1938 PWs)   bands (ev):

     6.6783   6.9257   8.8038   9.0758   9.7930  11.9946  21.9581  24.1388
    25.4793  29.6753

          k = 0.7143-0.1429 0.7143 (  1941 PWs)   bands (ev):

     6.8089   7.3410   8.3675   8.8815   9.7229  15.7535  17.3441  21.9231
    26.3585  29.5353

          k = 0.5714 0.0000 0.5714 (  1939 PWs)   bands (ev):

     7.2120   7.7438   7.8388   8.6858   9.2085  13.5687  20.3913  21.0601
    28.8857  29.8316

          k = 0.0000 0.8571 0.0000 (  1948 PWs)   bands (ev):

     6.3321   6.4645   9.7003   9.8438   9.8438  13.0242  20.8942  23.8219
    23.8219  29.7318

          k = 0.8571-0.0000 0.8571 (  1948 PWs)   bands (ev):

     6.4303   6.6332   9.3657   9.5279   9.8858  15.2737  19.4180  20.9308
    24.1628  29.7034

          k =-0.2857 0.5714 0.0000 (  1937 PWs)   bands (ev):

     7.2056   7.2202   7.9123   9.0236   9.0888  11.0547  23.5239  23.7324
    27.6190  32.9137

          k = 0.5714-0.2857 0.8571 (  1945 PWs)   bands (ev):

     7.0930   7.4238   8.0080   8.7635   9.6223  14.0436  18.4940  23.7379
    25.2510  32.3365

          k = 0.7143-0.1429 1.0000 (  1938 PWs)   bands (ev):

     6.7503   6.8559   8.6077   9.3743   9.8400  14.6810  21.0508  21.5772
    22.1321  32.4014

          k = 0.5714 0.0000 0.8571 (  1929 PWs)   bands (ev):

     6.9991   7.3640   7.9743   8.9978   9.8338  17.4399  18.0756  20.0241
    23.0452  33.0228

     the Fermi energy is    13.0039 ev

!    total energy              =    -350.24462387 Ry
     Harris-Foulkes estimate   =    -350.24462388 Ry
     estimated scf accuracy    <          6.4E-09 Ry

     total all-electron energy =    -10627.255033 Ry

     The total energy is the sum of the following terms:

     one-electron contribution =       1.60322841 Ry
     hartree contribution      =      14.57027199 Ry
     xc contribution           =     -22.14320977 Ry
     ewald contribution        =     -71.86118018 Ry
     one-center paw contrib.   =    -272.41363778 Ry
     smearing contrib. (-TS)   =      -0.00009653 Ry

     convergence has been achieved in   5 iterations

     Forces acting on atoms (cartesian axes, Ry/au):

     atom    1 type  1   force =     0.00000000    0.00000000    0.00000000

     Total force =     0.000000     Total SCF correction =     0.000000


     Computing stress (Cartesian axis) and pressure

          total   stress  (Ry/bohr**3)                   (kbar)     P=  -24.97
  -0.00016973  -0.00000000  -0.00000000        -24.97     -0.00     -0.00
  -0.00000000  -0.00016973  -0.00000000         -0.00    -24.97     -0.00
   0.00000000   0.00000000  -0.00016973          0.00      0.00    -24.97


     Writing output data file Ag.save/

     init_run     :      0.46s CPU      0.49s WALL (       1 calls)
     electrons    :      2.68s CPU      2.82s WALL (       1 calls)
     forces       :      0.06s CPU      0.06s WALL (       1 calls)
     stress       :      0.22s CPU      0.22s WALL (       1 calls)

     Called by init_run:
     wfcinit      :      0.10s CPU      0.11s WALL (       1 calls)
     potinit      :      0.11s CPU      0.12s WALL (       1 calls)
     hinit0       :      0.22s CPU      0.22s WALL (       1 calls)

     Called by electrons:
     c_bands      :      1.68s CPU      1.78s WALL (       6 calls)
     sum_band     :      0.42s CPU      0.44s WALL (       6 calls)
     v_of_rho     :      0.05s CPU      0.06s WALL (       6 calls)
     newd         :      0.09s CPU      0.09s WALL (       6 calls)
     PAW_pot      :      0.54s CPU      0.57s WALL (       6 calls)
     mix_rho      :      0.00s CPU      0.00s WALL (       6 calls)

     Called by c_bands:
     init_us_2    :      0.07s CPU      0.07s WALL (     300 calls)
     cegterg      :      1.60s CPU      1.70s WALL (     120 calls)

     Called by sum_band:
     sum_band:bec :      0.00s CPU      0.00s WALL (     120 calls)
     addusdens    :      0.09s CPU      0.09s WALL (       6 calls)

     Called by *egterg:
     h_psi        :      1.36s CPU      1.45s WALL (     438 calls)
     s_psi        :      0.04s CPU      0.05s WALL (     438 calls)
     g_psi        :      0.00s CPU      0.00s WALL (     298 calls)
     cdiaghg      :      0.08s CPU      0.09s WALL (     398 calls)

     Called by h_psi:
     h_psi:pot    :      1.36s CPU      1.45s WALL (     438 calls)
     h_psi:calbec :      0.06s CPU      0.07s WALL (     438 calls)
     vloc_psi     :      1.24s CPU      1.33s WALL (     438 calls)
     add_vuspsi   :      0.04s CPU      0.05s WALL (     438 calls)

     General routines
     calbec       :      0.10s CPU      0.11s WALL (     658 calls)
     fft          :      0.03s CPU      0.03s WALL (      93 calls)
     ffts         :      0.00s CPU      0.00s WALL (       6 calls)
     fftw         :      1.40s CPU      1.50s WALL (    7450 calls)

     Parallel routines
     fft_scatt_xy :      0.12s CPU      0.13s WALL (    7549 calls)
     fft_scatt_yz :      0.33s CPU      0.35s WALL (    7549 calls)

     PWSCF        :     4.23s CPU         4.47s WALL


   This run was terminated on:   0: 3:15  27Mar2024            

=------------------------------------------------------------------------------=
   JOB DONE.
=------------------------------------------------------------------------------=
