
     Program PWSCF v.6.3MaX starts on 27Mar2024 at  0:38:34 

     This program is part of the open-source Quantum ESPRESSO suite
     for quantum simulation of materials; please cite
         "P. Giannozzi et al., J. Phys.:Condens. Matter 21 395502 (2009);
         "P. Giannozzi et al., J. Phys.:Condens. Matter 29 465901 (2017);
          URL http://www.quantum-espresso.org", 
     in publications or presentations arising from this work. More details at
     http://www.quantum-espresso.org/quote

     Parallel version (MPI), running on     5 processors

     MPI processes distributed on     1 nodes
     R & G space division:  proc/nbgrp/npool/nimage =       5
     Waiting for input...
     Reading input from standard input

     Current dimensions of program PWSCF are:
     Max number of different atomic species (ntypx) = 10
     Max number of k-points (npk) =  40000
     Max angular momentum in pseudopotentials (lmaxx) =  3
               file Ag.pbesol-n-kjpaw_psl.1.0.0.UPF: wavefunction(s)  5S 5P renormalized

     Subspace diagonalization in iterative solution of the eigenvalue problem:
     a serial algorithm will be used


     Parallelization info
     --------------------
     sticks:   dense  smooth     PW     G-vecs:    dense   smooth      PW
     Min         131     131     39                 2222     2222     381
     Max         134     134     40                 2223     2223     384
     Sum         661     661    199                11113    11113    1917



     bravais-lattice index     =            2
     lattice parameter (alat)  =       7.7200  a.u.
     unit-cell volume          =     115.0249 (a.u.)^3
     number of atoms/cell      =            1
     number of atomic types    =            1
     number of electrons       =        11.00
     number of Kohn-Sham states=           10
     kinetic-energy cutoff     =      80.0000  Ry
     charge density cutoff     =     320.0000  Ry
     convergence threshold     =      1.0E-08
     mixing beta               =       0.7000
     number of iterations used =            8  plain     mixing
     Exchange-correlation      = SLA PW PSX PSC ( 1  4 10  8 0 0)

     celldm(1)=   7.720000  celldm(2)=   0.000000  celldm(3)=   0.000000
     celldm(4)=   0.000000  celldm(5)=   0.000000  celldm(6)=   0.000000

     crystal axes: (cart. coord. in units of alat)
               a(1) = (  -0.500000   0.000000   0.500000 )  
               a(2) = (   0.000000   0.500000   0.500000 )  
               a(3) = (  -0.500000   0.500000   0.000000 )  

     reciprocal axes: (cart. coord. in units 2 pi/alat)
               b(1) = ( -1.000000 -1.000000  1.000000 )  
               b(2) = (  1.000000  1.000000  1.000000 )  
               b(3) = ( -1.000000  1.000000 -1.000000 )  


     PseudoPot. # 1 for Ag read from file:
     /home/lorenzo/pseudos/Ag/Ag.pbesol-n-kjpaw_psl.1.0.0.UPF
     MD5 check sum: 3b245e14fa22881b2ac493bfd23f605f
     Pseudo is Projector augmented-wave + core cor, Zval = 11.0
     Generated using "atomic" code by A. Dal Corso v.6.2.2
     Shape of augmentation charge: PSQ
     Using radial grid of 1237 points,  6 beta functions with: 
                l(1) =   0
                l(2) =   0
                l(3) =   1
                l(4) =   1
                l(5) =   2
                l(6) =   2
     Q(r) pseudized with 0 coefficients 


     atomic species   valence    mass     pseudopotential
        Ag            11.00   107.86820     Ag( 1.00)

     48 Sym. Ops., with inversion, found



   Cartesian axes

     site n.     atom                  positions (alat units)
         1           Ag  tau(   1) = (   0.0000000   0.0000000   0.0000000  )

     number of k points=    35  gaussian smearing, width (Ry)=  0.0100
                       cart. coord. in units 2pi/alat
        k(    1) = (   0.0000000   0.0000000   0.0000000), wk =   0.0027435
        k(    2) = (  -0.1111111   0.1111111  -0.1111111), wk =   0.0219479
        k(    3) = (  -0.2222222   0.2222222  -0.2222222), wk =   0.0219479
        k(    4) = (  -0.3333333   0.3333333  -0.3333333), wk =   0.0219479
        k(    5) = (  -0.4444444   0.4444444  -0.4444444), wk =   0.0219479
        k(    6) = (   0.0000000   0.2222222   0.0000000), wk =   0.0164609
        k(    7) = (  -0.1111111   0.3333333  -0.1111111), wk =   0.0658436
        k(    8) = (  -0.2222222   0.4444444  -0.2222222), wk =   0.0658436
        k(    9) = (  -0.3333333   0.5555556  -0.3333333), wk =   0.0658436
        k(   10) = (   0.5555556  -0.3333333   0.5555556), wk =   0.0658436
        k(   11) = (   0.4444444  -0.2222222   0.4444444), wk =   0.0658436
        k(   12) = (   0.3333333  -0.1111111   0.3333333), wk =   0.0658436
        k(   13) = (   0.2222222  -0.0000000   0.2222222), wk =   0.0329218
        k(   14) = (   0.0000000   0.4444444   0.0000000), wk =   0.0164609
        k(   15) = (  -0.1111111   0.5555556  -0.1111111), wk =   0.0658436
        k(   16) = (  -0.2222222   0.6666667  -0.2222222), wk =   0.0658436
        k(   17) = (   0.6666667  -0.2222222   0.6666667), wk =   0.0658436
        k(   18) = (   0.5555556  -0.1111111   0.5555556), wk =   0.0658436
        k(   19) = (   0.4444444   0.0000000   0.4444444), wk =   0.0329218
        k(   20) = (   0.0000000   0.6666667   0.0000000), wk =   0.0164609
        k(   21) = (  -0.1111111   0.7777778  -0.1111111), wk =   0.0658436
        k(   22) = (   0.7777778  -0.1111111   0.7777778), wk =   0.0658436
        k(   23) = (   0.6666667  -0.0000000   0.6666667), wk =   0.0329218
        k(   24) = (   0.0000000   0.8888889   0.0000000), wk =   0.0164609
        k(   25) = (   0.8888889   0.0000000   0.8888889), wk =   0.0329218
        k(   26) = (  -0.2222222   0.4444444   0.0000000), wk =   0.0658436
        k(   27) = (  -0.3333333   0.5555556  -0.1111111), wk =   0.1316872
        k(   28) = (   0.5555556  -0.3333333   0.7777778), wk =   0.1316872
        k(   29) = (  -0.2222222   0.6666667   0.0000000), wk =   0.0658436
        k(   30) = (   0.6666667  -0.2222222   0.8888889), wk =   0.1316872
        k(   31) = (   0.5555556  -0.1111111   0.7777778), wk =   0.1316872
        k(   32) = (   0.4444444   0.0000000   0.6666667), wk =   0.0658436
        k(   33) = (   0.7777778  -0.1111111   1.0000000), wk =   0.0658436
        k(   34) = (   0.6666667  -0.0000000   0.8888889), wk =   0.0658436
        k(   35) = (   0.5555556  -0.1111111   1.0000000), wk =   0.0658436

     Dense  grid:    11113 G-vectors     FFT dimensions: (  32,  32,  32)

     Estimated max dynamical RAM per process >      11.60 MB

     Estimated total dynamical RAM >      57.99 MB

     Initial potential from superposition of free atoms

     starting charge   10.99964, renormalised to   11.00000
     Starting wfcs are    9 randomized atomic wfcs +    1 random wfcs
     Checking if some PAW data can be deallocated... 

     total cpu time spent up to now is        1.3 secs

     Self-consistent Calculation

     iteration #  1     ecut=    80.00 Ry     beta= 0.70
     Davidson diagonalization with overlap
     ethr =  1.00E-02,  avg # of iterations =  4.7

     Threshold (ethr) on eigenvalues was too large:
     Diagonalizing with lowered threshold

     Davidson diagonalization with overlap
     ethr =  4.72E-05,  avg # of iterations =  2.4

     total cpu time spent up to now is        2.7 secs

     total energy              =    -350.23938626 Ry
     Harris-Foulkes estimate   =    -350.24309252 Ry
     estimated scf accuracy    <       0.00558717 Ry

     iteration #  2     ecut=    80.00 Ry     beta= 0.70
     Davidson diagonalization with overlap
     ethr =  5.08E-05,  avg # of iterations =  2.0

     total cpu time spent up to now is        3.2 secs

     total energy              =    -350.24097928 Ry
     Harris-Foulkes estimate   =    -350.24302305 Ry
     estimated scf accuracy    <       0.00424465 Ry

     iteration #  3     ecut=    80.00 Ry     beta= 0.70
     Davidson diagonalization with overlap
     ethr =  3.86E-05,  avg # of iterations =  1.6

     total cpu time spent up to now is        3.8 secs

     total energy              =    -350.24179080 Ry
     Harris-Foulkes estimate   =    -350.24177405 Ry
     estimated scf accuracy    <       0.00001543 Ry

     iteration #  4     ecut=    80.00 Ry     beta= 0.70
     Davidson diagonalization with overlap
     ethr =  1.40E-07,  avg # of iterations =  3.0

     total cpu time spent up to now is        4.4 secs

     total energy              =    -350.24179959 Ry
     Harris-Foulkes estimate   =    -350.24179942 Ry
     estimated scf accuracy    <       0.00000051 Ry

     iteration #  5     ecut=    80.00 Ry     beta= 0.70
     Davidson diagonalization with overlap
     ethr =  4.61E-09,  avg # of iterations =  1.2

     total cpu time spent up to now is        4.9 secs

     End of self-consistent calculation

          k = 0.0000 0.0000 0.0000 (  1411 PWs)   bands (ev):

     4.8052   7.9136   7.9136   7.9136   8.9648   8.9648  29.5459  32.8281
    32.8281  32.8281

          k =-0.1111 0.1111-0.1111 (  1399 PWs)   bands (ev):

     5.1818   7.8363   8.0126   8.0126   8.9337   8.9337  28.9610  30.5736
    32.7968  32.7968

          k =-0.2222 0.2222-0.2222 (  1387 PWs)   bands (ev):

     6.0537   7.9224   8.1264   8.1264   9.0176   9.0176  24.9372  30.1175
    32.5111  32.5112

          k =-0.3333 0.3333-0.3333 (  1399 PWs)   bands (ev):

     6.3805   8.0276   8.0276   9.2973   9.3906   9.3906  20.6219  29.3139
    31.7176  31.7176

          k =-0.4444 0.4444-0.4444 (  1392 PWs)   bands (ev):

     6.2956   7.9094   7.9094   9.7199   9.7199  11.5861  17.0147  28.6779
    30.9450  30.9450

          k = 0.0000 0.2222 0.0000 (  1399 PWs)   bands (ev):

     5.3085   7.7164   8.1020   8.1020   8.7777   9.0513  29.5617  31.2175
    31.2175  31.2227

          k =-0.1111 0.3333-0.1111 (  1384 PWs)   bands (ev):

     6.0574   7.5588   8.2251   8.2826   8.8172   9.1725  26.6620  29.8362
    30.0288  32.5603

          k =-0.2222 0.4444-0.2222 (  1396 PWs)   bands (ev):

     6.5968   7.9903   8.0113   8.2652   9.4839   9.7488  22.2556  29.1827
    29.2568  31.3975

          k =-0.3333 0.5556-0.3333 (  1398 PWs)   bands (ev):

     6.5256   7.8101   8.1319   8.8158   9.7595  11.7155  18.2469  28.2299
    29.1033  29.9262

          k = 0.5556-0.3333 0.5556 (  1402 PWs)   bands (ev):

     6.4923   7.7680   8.0641   9.1558   9.7040  13.0707  16.4349  27.4049
    29.4792  29.8816

          k = 0.4444-0.2222 0.4444 (  1391 PWs)   bands (ev):

     6.5968   7.8811   8.1296   8.7998   9.3055  11.1059  19.5275  27.1195
    30.0886  31.7132

          k = 0.3333-0.1111 0.3333 (  1377 PWs)   bands (ev):

     6.5638   7.7643   8.1719   8.2757   8.8170   9.7381  23.7276  27.4143
    31.5885  34.2310

          k = 0.2222-0.0000 0.2222 (  1387 PWs)   bands (ev):

     5.7601   7.6787   8.1650   8.1675   8.7473   9.1375  28.0868  28.0887
    32.1461  34.4166

          k = 0.0000 0.4444 0.0000 (  1375 PWs)   bands (ev):

     6.4577   7.2428   8.6275   8.6275   8.6636   9.2746  28.1449  28.1449
    29.2263  29.6132

          k =-0.1111 0.5556-0.1111 (  1384 PWs)   bands (ev):

     6.8106   7.1235   8.4202   8.7797   9.5287   9.9407  24.2976  26.9709
    27.5815  29.9067

          k =-0.2222 0.6667-0.2222 (  1393 PWs)   bands (ev):

     6.7704   7.4031   8.2945   8.6707   9.8006  12.1631  20.1234  25.5487
    26.6938  29.5782

          k = 0.6667-0.2222 0.6667 (  1388 PWs)   bands (ev):

     6.8382   7.5254   8.3562   8.5434   9.7270  14.8429  16.7660  23.9878
    27.4873  29.4501

          k = 0.5556-0.1111 0.5556 (  1393 PWs)   bands (ev):

     7.0660   7.6177   8.2051   8.5046   9.3028  13.2548  19.0328  23.1326
    29.3028  29.7982

          k = 0.4444 0.0000 0.4444 (  1392 PWs)   bands (ev):

     7.2698   7.5037   8.0093   8.5476   8.7941  11.1585  23.0079  23.1721
    30.7415  31.8203

          k = 0.0000 0.6667 0.0000 (  1379 PWs)   bands (ev):

     6.6223   6.7429   9.3370   9.3370   9.5369  10.4366  24.9385  25.3523
    25.3523  29.6843

          k =-0.1111 0.7778-0.1111 (  1395 PWs)   bands (ev):

     6.5480   6.6998   9.2102   9.3328   9.8233  12.5455  22.2187  22.8133
    24.7233  29.7068

          k = 0.7778-0.1111 0.7778 (  1385 PWs)   bands (ev):

     6.6452   7.0181   8.7351   9.1661   9.7969  15.4269  18.8168  20.9370
    25.2940  29.6022

          k = 0.6667-0.0000 0.6667 (  1382 PWs)   bands (ev):

     6.9351   7.5123   8.1364   8.9200   9.4873  15.7937  18.4604  20.1899
    26.9528  29.6059

          k = 0.0000 0.8889 0.0000 (  1383 PWs)   bands (ev):

     6.2975   6.4358   9.7132   9.8936   9.8936  13.4268  20.3592  23.6753
    23.6753  29.7353

          k = 0.8889 0.0000 0.8889 (  1384 PWs)   bands (ev):

     6.3660   6.5325   9.5721   9.6046   9.9199  14.8876  19.4045  21.7240
    23.8849  29.7322

          k =-0.2222 0.4444 0.0000 (  1379 PWs)   bands (ev):

     6.7805   7.3471   8.0815   8.6273   8.8853   9.7765  25.5215  25.8249
    30.2465  32.1990

          k =-0.3333 0.5556-0.1111 (  1388 PWs)   bands (ev):

     6.9648   7.7274   7.8345   8.6199   9.3243  11.2794  21.3440  25.2288
    28.1965  32.1668

          k = 0.5556-0.3333 0.7778 (  1394 PWs)   bands (ev):

     6.8520   7.5618   8.3274   8.5126   9.6600  13.6267  17.5455  25.4939
    26.5395  31.3554

          k =-0.2222 0.6667 0.0000 (  1380 PWs)   bands (ev):

     6.9232   6.9370   8.3953   9.3290   9.3978  11.5855  23.4402  23.6131
    25.2644  31.7253

          k = 0.6667-0.2222 0.8889 (  1395 PWs)   bands (ev):

     6.9036   7.1988   8.1911   9.0792   9.7271  14.0921  19.6177  23.1600
    23.7796  31.8640

          k = 0.5556-0.1111 0.7778 (  1394 PWs)   bands (ev):

     7.0929   7.4059   7.9823   8.8519   9.6780  16.1032  17.4012  21.8457
    24.6703  32.0662

          k = 0.4444 0.0000 0.6667 (  1393 PWs)   bands (ev):

     7.4340   7.4746   7.5955   8.9074   9.3352  13.4236  20.9107  21.3476
    26.2685  32.8456

          k = 0.7778-0.1111 1.0000 (  1389 PWs)   bands (ev):

     6.5631   6.6772   9.0269   9.5129   9.8922  14.5615  20.5006  22.1818
    22.3868  31.4706

          k = 0.6667-0.0000 0.8889 (  1386 PWs)   bands (ev):

     6.7644   7.0412   8.4833   9.1809   9.8862  16.8430  18.9015  19.8178
    23.1154  31.8586

          k = 0.5556-0.1111 1.0000 (  1391 PWs)   bands (ev):

     7.0359   7.3869   7.8436   9.0153   9.8886  16.6643  19.4940  20.3638
    21.7426  35.0361

     the Fermi energy is    12.9230 ev

!    total energy              =    -350.24179961 Ry
     Harris-Foulkes estimate   =    -350.24179961 Ry
     estimated scf accuracy    <          5.6E-09 Ry

     total all-electron energy =    -10627.252208 Ry

     The total energy is the sum of the following terms:

     one-electron contribution =       1.60797310 Ry
     hartree contribution      =      14.56756483 Ry
     xc contribution           =     -22.14251360 Ry
     ewald contribution        =     -71.86118018 Ry
     one-center paw contrib.   =    -272.41358611 Ry
     smearing contrib. (-TS)   =      -0.00005766 Ry

     convergence has been achieved in   5 iterations

     Forces acting on atoms (cartesian axes, Ry/au):

     atom    1 type  1   force =     0.00000000    0.00000000    0.00000000

     Total force =     0.000000     Total SCF correction =     0.000000


     Computing stress (Cartesian axis) and pressure

          total   stress  (Ry/bohr**3)                   (kbar)     P=  -24.28
  -0.00016508  -0.00000000  -0.00000000        -24.28     -0.00     -0.00
  -0.00000000  -0.00016508   0.00000000         -0.00    -24.28      0.00
  -0.00000000   0.00000000  -0.00016508         -0.00      0.00    -24.28


     Writing output data file Ag.save/

     init_run     :      0.44s CPU      0.47s WALL (       1 calls)
     electrons    :      3.34s CPU      3.58s WALL (       1 calls)
     forces       :      0.07s CPU      0.07s WALL (       1 calls)
     stress       :      0.24s CPU      0.25s WALL (       1 calls)

     Called by init_run:
     wfcinit      :      0.12s CPU      0.14s WALL (       1 calls)
     potinit      :      0.10s CPU      0.11s WALL (       1 calls)
     hinit0       :      0.18s CPU      0.19s WALL (       1 calls)

     Called by electrons:
     c_bands      :      2.23s CPU      2.41s WALL (       6 calls)
     sum_band     :      0.52s CPU      0.55s WALL (       6 calls)
     v_of_rho     :      0.04s CPU      0.04s WALL (       6 calls)
     newd         :      0.06s CPU      0.06s WALL (       6 calls)
     PAW_pot      :      0.59s CPU      0.62s WALL (       6 calls)
     mix_rho      :      0.00s CPU      0.00s WALL (       6 calls)

     Called by c_bands:
     init_us_2    :      0.08s CPU      0.09s WALL (     525 calls)
     cegterg      :      2.11s CPU      2.29s WALL (     210 calls)

     Called by sum_band:
     sum_band:bec :      0.00s CPU      0.00s WALL (     210 calls)
     addusdens    :      0.07s CPU      0.07s WALL (       6 calls)

     Called by *egterg:
     h_psi        :      1.69s CPU      1.86s WALL (     765 calls)
     s_psi        :      0.06s CPU      0.07s WALL (     765 calls)
     g_psi        :      0.01s CPU      0.01s WALL (     520 calls)
     cdiaghg      :      0.15s CPU      0.16s WALL (     695 calls)

     Called by h_psi:
     h_psi:pot    :      1.68s CPU      1.85s WALL (     765 calls)
     h_psi:calbec :      0.08s CPU      0.09s WALL (     765 calls)
     vloc_psi     :      1.53s CPU      1.68s WALL (     765 calls)
     add_vuspsi   :      0.06s CPU      0.07s WALL (     765 calls)

     General routines
     calbec       :      0.17s CPU      0.18s WALL (    1150 calls)
     fft          :      0.03s CPU      0.03s WALL (      93 calls)
     ffts         :      0.00s CPU      0.00s WALL (       6 calls)
     fftw         :      1.73s CPU      1.89s WALL (   13032 calls)

     Parallel routines
     fft_scatt_xy :      0.17s CPU      0.19s WALL (   13131 calls)
     fft_scatt_yz :      0.52s CPU      0.58s WALL (   13131 calls)

     PWSCF        :     4.95s CPU         5.30s WALL


   This run was terminated on:   0:38:39  27Mar2024            

=------------------------------------------------------------------------------=
   JOB DONE.
=------------------------------------------------------------------------------=
