
     Program PWSCF v.6.3MaX starts on 27Mar2024 at  0: 7:51 

     This program is part of the open-source Quantum ESPRESSO suite
     for quantum simulation of materials; please cite
         "P. Giannozzi et al., J. Phys.:Condens. Matter 21 395502 (2009);
         "P. Giannozzi et al., J. Phys.:Condens. Matter 29 465901 (2017);
          URL http://www.quantum-espresso.org", 
     in publications or presentations arising from this work. More details at
     http://www.quantum-espresso.org/quote

     Parallel version (MPI), running on     5 processors

     MPI processes distributed on     1 nodes
     R & G space division:  proc/nbgrp/npool/nimage =       5
     Waiting for input...
     Reading input from standard input

     Current dimensions of program PWSCF are:
     Max number of different atomic species (ntypx) = 10
     Max number of k-points (npk) =  40000
     Max angular momentum in pseudopotentials (lmaxx) =  3

     Subspace diagonalization in iterative solution of the eigenvalue problem:
     a serial algorithm will be used


     Parallelization info
     --------------------
     sticks:   dense  smooth     PW     G-vecs:    dense   smooth      PW
     Min          32      32     12                  280      280      66
     Max          33      33     13                  283      283      67
     Sum         163     163     61                 1411     1411     331



     bravais-lattice index     =            2
     lattice parameter (alat)  =       7.7200  a.u.
     unit-cell volume          =     115.0249 (a.u.)^3
     number of atoms/cell      =            1
     number of atomic types    =            1
     number of electrons       =        11.00
     number of Kohn-Sham states=           10
     kinetic-energy cutoff     =      20.0000  Ry
     charge density cutoff     =      80.0000  Ry
     convergence threshold     =      1.0E-08
     mixing beta               =       0.7000
     number of iterations used =            8  plain     mixing
     Exchange-correlation      = PBE ( 1  4  3  4 0 0)

     celldm(1)=   7.720000  celldm(2)=   0.000000  celldm(3)=   0.000000
     celldm(4)=   0.000000  celldm(5)=   0.000000  celldm(6)=   0.000000

     crystal axes: (cart. coord. in units of alat)
               a(1) = (  -0.500000   0.000000   0.500000 )  
               a(2) = (   0.000000   0.500000   0.500000 )  
               a(3) = (  -0.500000   0.500000   0.000000 )  

     reciprocal axes: (cart. coord. in units 2 pi/alat)
               b(1) = ( -1.000000 -1.000000  1.000000 )  
               b(2) = (  1.000000  1.000000  1.000000 )  
               b(3) = ( -1.000000  1.000000 -1.000000 )  


     PseudoPot. # 1 for Ag read from file:
     /home/lorenzo/pseudos/Ag/Ag.pbe-n-rrkjus_psl.1.0.0.UPF
     MD5 check sum: d841cbfac2b0861aec33b46768a516bf
     Pseudo is Ultrasoft + core correction, Zval = 11.0
     Generated using "atomic" code by A. Dal Corso v.6.2.2
     Using radial grid of 1237 points,  6 beta functions with: 
                l(1) =   0
                l(2) =   0
                l(3) =   1
                l(4) =   1
                l(5) =   2
                l(6) =   2
     Q(r) pseudized with 0 coefficients 


     atomic species   valence    mass     pseudopotential
        Ag            11.00   107.86820     Ag( 1.00)

     48 Sym. Ops., with inversion, found



   Cartesian axes

     site n.     atom                  positions (alat units)
         1           Ag  tau(   1) = (   0.0000000   0.0000000   0.0000000  )

     number of k points=    47  gaussian smearing, width (Ry)=  0.0100
                       cart. coord. in units 2pi/alat
        k(    1) = (   0.0000000   0.0000000   0.0000000), wk =   0.0020000
        k(    2) = (  -0.1000000   0.1000000  -0.1000000), wk =   0.0160000
        k(    3) = (  -0.2000000   0.2000000  -0.2000000), wk =   0.0160000
        k(    4) = (  -0.3000000   0.3000000  -0.3000000), wk =   0.0160000
        k(    5) = (  -0.4000000   0.4000000  -0.4000000), wk =   0.0160000
        k(    6) = (   0.5000000  -0.5000000   0.5000000), wk =   0.0080000
        k(    7) = (   0.0000000   0.2000000   0.0000000), wk =   0.0120000
        k(    8) = (  -0.1000000   0.3000000  -0.1000000), wk =   0.0480000
        k(    9) = (  -0.2000000   0.4000000  -0.2000000), wk =   0.0480000
        k(   10) = (  -0.3000000   0.5000000  -0.3000000), wk =   0.0480000
        k(   11) = (   0.6000000  -0.4000000   0.6000000), wk =   0.0480000
        k(   12) = (   0.5000000  -0.3000000   0.5000000), wk =   0.0480000
        k(   13) = (   0.4000000  -0.2000000   0.4000000), wk =   0.0480000
        k(   14) = (   0.3000000  -0.1000000   0.3000000), wk =   0.0480000
        k(   15) = (   0.2000000   0.0000000   0.2000000), wk =   0.0240000
        k(   16) = (   0.0000000   0.4000000   0.0000000), wk =   0.0120000
        k(   17) = (  -0.1000000   0.5000000  -0.1000000), wk =   0.0480000
        k(   18) = (  -0.2000000   0.6000000  -0.2000000), wk =   0.0480000
        k(   19) = (   0.7000000  -0.3000000   0.7000000), wk =   0.0480000
        k(   20) = (   0.6000000  -0.2000000   0.6000000), wk =   0.0480000
        k(   21) = (   0.5000000  -0.1000000   0.5000000), wk =   0.0480000
        k(   22) = (   0.4000000   0.0000000   0.4000000), wk =   0.0240000
        k(   23) = (   0.0000000   0.6000000   0.0000000), wk =   0.0120000
        k(   24) = (  -0.1000000   0.7000000  -0.1000000), wk =   0.0480000
        k(   25) = (   0.8000000  -0.2000000   0.8000000), wk =   0.0480000
        k(   26) = (   0.7000000  -0.1000000   0.7000000), wk =   0.0480000
        k(   27) = (   0.6000000  -0.0000000   0.6000000), wk =   0.0240000
        k(   28) = (   0.0000000   0.8000000   0.0000000), wk =   0.0120000
        k(   29) = (   0.9000000  -0.1000000   0.9000000), wk =   0.0480000
        k(   30) = (   0.8000000   0.0000000   0.8000000), wk =   0.0240000
        k(   31) = (   0.0000000  -1.0000000   0.0000000), wk =   0.0060000
        k(   32) = (  -0.2000000   0.4000000   0.0000000), wk =   0.0480000
        k(   33) = (  -0.3000000   0.5000000  -0.1000000), wk =   0.0960000
        k(   34) = (   0.6000000  -0.4000000   0.8000000), wk =   0.0960000
        k(   35) = (   0.5000000  -0.3000000   0.7000000), wk =   0.0480000
        k(   36) = (  -0.2000000   0.6000000   0.0000000), wk =   0.0480000
        k(   37) = (   0.7000000  -0.3000000   0.9000000), wk =   0.0960000
        k(   38) = (   0.6000000  -0.2000000   0.8000000), wk =   0.0960000
        k(   39) = (   0.5000000  -0.1000000   0.7000000), wk =   0.0960000
        k(   40) = (   0.4000000   0.0000000   0.6000000), wk =   0.0480000
        k(   41) = (   0.8000000  -0.2000000   1.0000000), wk =   0.0480000
        k(   42) = (   0.7000000  -0.1000000   0.9000000), wk =   0.0960000
        k(   43) = (   0.6000000   0.0000000   0.8000000), wk =   0.0480000
        k(   44) = (  -0.2000000  -1.0000000   0.0000000), wk =   0.0240000
        k(   45) = (   0.6000000  -0.2000000   1.0000000), wk =   0.0480000
        k(   46) = (   0.5000000  -0.1000000   0.9000000), wk =   0.0480000
        k(   47) = (  -0.4000000  -1.0000000   0.0000000), wk =   0.0240000

     Dense  grid:     1411 G-vectors     FFT dimensions: (  15,  15,  15)

     Estimated max dynamical RAM per process >       2.17 MB

     Estimated total dynamical RAM >      10.85 MB

     Initial potential from superposition of free atoms

     starting charge   10.99960, renormalised to   11.00000
     Starting wfcs are    9 randomized atomic wfcs +    1 random wfcs

     total cpu time spent up to now is        1.1 secs

     Self-consistent Calculation

     iteration #  1     ecut=    20.00 Ry     beta= 0.70
     Davidson diagonalization with overlap
     ethr =  1.00E-02,  avg # of iterations =  4.6

     total cpu time spent up to now is        1.3 secs

     total energy              =     -82.28771360 Ry
     Harris-Foulkes estimate   =     -82.76393988 Ry
     estimated scf accuracy    <       0.63157634 Ry

     iteration #  2     ecut=    20.00 Ry     beta= 0.70
     Davidson diagonalization with overlap
     ethr =  5.74E-03,  avg # of iterations =  2.0

     total cpu time spent up to now is        1.5 secs

     total energy              =     -82.50922795 Ry
     Harris-Foulkes estimate   =     -82.66240060 Ry
     estimated scf accuracy    <       0.28935833 Ry

     iteration #  3     ecut=    20.00 Ry     beta= 0.70
     Davidson diagonalization with overlap
     ethr =  2.63E-03,  avg # of iterations =  1.6

     total cpu time spent up to now is        1.6 secs

     total energy              =     -82.55484313 Ry
     Harris-Foulkes estimate   =     -82.55631742 Ry
     estimated scf accuracy    <       0.00468791 Ry

     iteration #  4     ecut=    20.00 Ry     beta= 0.70
     Davidson diagonalization with overlap
     ethr =  4.26E-05,  avg # of iterations =  3.0

     total cpu time spent up to now is        1.8 secs

     total energy              =     -82.55682344 Ry
     Harris-Foulkes estimate   =     -82.55711135 Ry
     estimated scf accuracy    <       0.00090521 Ry

     iteration #  5     ecut=    20.00 Ry     beta= 0.70
     Davidson diagonalization with overlap
     ethr =  8.23E-06,  avg # of iterations =  1.2

     total cpu time spent up to now is        1.9 secs

     total energy              =     -82.55681072 Ry
     Harris-Foulkes estimate   =     -82.55687611 Ry
     estimated scf accuracy    <       0.00017297 Ry

     iteration #  6     ecut=    20.00 Ry     beta= 0.70
     Davidson diagonalization with overlap
     ethr =  1.57E-06,  avg # of iterations =  1.6

     total cpu time spent up to now is        2.0 secs

     total energy              =     -82.55683216 Ry
     Harris-Foulkes estimate   =     -82.55683354 Ry
     estimated scf accuracy    <       0.00000314 Ry

     iteration #  7     ecut=    20.00 Ry     beta= 0.70
     Davidson diagonalization with overlap
     ethr =  2.85E-08,  avg # of iterations =  2.7

     total cpu time spent up to now is        2.2 secs

     End of self-consistent calculation

          k = 0.0000 0.0000 0.0000 (   169 PWs)   bands (ev):

     5.0382   8.0740   8.0740   8.0740   8.6908   8.6908  30.1595  32.9816
    32.9816  32.9816

          k =-0.1000 0.1000-0.1000 (   169 PWs)   bands (ev):

     5.3398   8.0473   8.1797   8.1797   8.7150   8.7150  29.8068  31.0733
    33.0067  33.0067

          k =-0.2000 0.2000-0.2000 (   171 PWs)   bands (ev):

     6.1052   8.1964   8.2119   8.2119   8.7527   8.7527  26.2363  30.8814
    32.8380  32.8381

          k =-0.3000 0.3000-0.3000 (   168 PWs)   bands (ev):

     6.5419   8.3915   8.3915   8.9177   9.5605   9.5605  22.1446  30.2353
    32.0992  32.0992

          k =-0.4000 0.4000-0.4000 (   174 PWs)   bands (ev):

     6.4569   8.1720   8.1720   9.2846   9.2846  10.8597  18.4724  29.4824
    31.1069  31.1069

          k = 0.5000-0.5000 0.5000 (   168 PWs)   bands (ev):

     6.4017   8.4310   8.4310   9.7761   9.7761  12.4018  16.3975  29.1939
    30.7076  30.7076

          k = 0.0000 0.2000 0.0000 (   169 PWs)   bands (ev):

     5.4402   7.9308   8.2920   8.2920   8.5946   8.8066  30.2882  31.7479
    31.7479  31.7532

          k =-0.1000 0.3000-0.1000 (   170 PWs)   bands (ev):

     6.0663   7.8446   8.3181   8.3799   8.8386   8.8901  27.7500  30.6421
    30.7080  33.2227

          k =-0.2000 0.4000-0.2000 (   167 PWs)   bands (ev):

     6.7461   8.0921   8.4623   8.6693   9.5281   9.5464  23.7533  29.9152
    30.2623  32.4603

          k =-0.3000 0.5000-0.3000 (   173 PWs)   bands (ev):

     6.4972   8.3211   8.3996   8.6071   9.4708  10.8555  19.7039  29.4504
    29.4607  30.6286

          k = 0.6000-0.4000 0.6000 (   170 PWs)   bands (ev):

     6.5833   8.0814   8.4852   9.2513   9.7077  12.9218  16.7836  28.5339
    29.6594  29.8402

          k = 0.5000-0.3000 0.5000 (   170 PWs)   bands (ev):

     6.6210   8.1338   8.6247   9.1190   9.4942  12.2971  17.6269  27.9691
    29.9528  30.7375

          k = 0.4000-0.2000 0.4000 (   174 PWs)   bands (ev):

     6.4596   8.2162   8.4524   8.5098   9.1925  10.2739  20.9225  27.9772
    30.8333  32.6454

          k = 0.3000-0.1000 0.3000 (   169 PWs)   bands (ev):

     6.5888   8.0393   8.2532   8.4967   8.9708   9.5192  25.0630  28.4429
    32.2827  34.5045

          k = 0.2000 0.0000 0.2000 (   170 PWs)   bands (ev):

     5.8072   7.9600   8.2346   8.3587   8.6147   8.8430  28.9208  29.1701
    32.3206  34.4529

          k = 0.0000 0.4000 0.0000 (   169 PWs)   bands (ev):

     6.4792   7.5814   8.6212   8.6212   8.8743   9.1200  29.0054  29.0054
    30.4567  30.6057

          k =-0.1000 0.5000-0.1000 (   170 PWs)   bands (ev):

     6.9365   7.6356   8.6656   8.7585   9.2714   9.4844  25.5012  27.8345
    29.4259  30.7374

          k =-0.2000 0.6000-0.2000 (   171 PWs)   bands (ev):

     6.9547   7.7230   8.4146   8.7185   9.9593  11.1331  21.5148  27.2808
    27.4023  30.3581

          k = 0.7000-0.3000 0.7000 (   176 PWs)   bands (ev):

     6.8767   7.6916   8.2629   8.3938   9.4908  13.5517  17.9656  25.6661
    27.5204  30.0405

          k = 0.6000-0.2000 0.6000 (   176 PWs)   bands (ev):

     6.9207   7.6275   8.3682   8.4846   9.2028  14.3610  17.1113  24.5165
    28.7290  30.0866

          k = 0.5000-0.1000 0.5000 (   173 PWs)   bands (ev):

     7.1005   7.7763   8.2273   8.6487   9.2744  12.1130  20.4383  24.0956
    30.6671  30.7766

          k = 0.4000 0.0000 0.4000 (   170 PWs)   bands (ev):

     7.0947   7.7478   8.2810   8.7421   9.2806  10.2218  24.0435  24.6911
    31.7266  33.3157

          k = 0.0000 0.6000 0.0000 (   174 PWs)   bands (ev):

     6.7319   7.3148   9.0879   9.0879   9.1342   9.7534  26.2295  26.2295
    26.8074  30.1187

          k =-0.1000 0.7000-0.1000 (   177 PWs)   bands (ev):

     6.7476   7.0903   8.8001   8.9069   9.3892  11.5159  23.2808  24.6385
    25.3977  30.5238

          k = 0.8000-0.2000 0.8000 (   175 PWs)   bands (ev):

     6.8983   7.3648   8.4682   8.9744   9.5691  13.9492  19.9465  22.8846
    25.5000  30.4503

          k = 0.7000-0.1000 0.7000 (   180 PWs)   bands (ev):

     6.9232   7.1621   8.0036   8.7287   9.2005  16.5354  17.0982  21.3155
    26.5530  30.2796

          k = 0.6000-0.0000 0.6000 (   176 PWs)   bands (ev):

     7.2459   7.5494   7.7340   8.8672   9.2143  14.3208  19.9239  20.8277
    28.4529  30.3827

          k = 0.0000 0.8000 0.0000 (   170 PWs)   bands (ev):

     6.6635   7.0330   9.5079  10.0299  10.0299  12.4061  22.2125  24.2519
    24.2519  30.1721

          k = 0.9000-0.1000 0.9000 (   178 PWs)   bands (ev):

     6.4706   6.8250   9.2759   9.3828   9.3879  14.1816  20.3172  22.3763
    24.0312  30.5902

          k = 0.8000 0.0000 0.8000 (   180 PWs)   bands (ev):

     6.4995   6.9483   8.8261   9.0812   9.1248  16.2336  19.0564  20.0172
    24.8731  30.4968

          k = 0.0000-1.0000 0.0000 (   190 PWs)   bands (ev):

     6.0186   6.4886   8.4294   8.9627   8.9627  14.3563  19.2982  23.4930
    23.4930  30.0386

          k =-0.2000 0.4000 0.0000 (   168 PWs)   bands (ev):

     6.7212   7.8624   8.4955   8.6838   8.9380   9.4591  26.5328  27.1866
    31.7477  32.6260

          k =-0.3000 0.5000-0.1000 (   171 PWs)   bands (ev):

     7.0105   7.9392   8.2656   8.7000   9.2505  10.4318  22.7305  26.2800
    29.8065  32.5808

          k = 0.6000-0.4000 0.8000 (   176 PWs)   bands (ev):

     6.8167   7.8203   8.1752   8.4585   9.3017  12.4208  18.9116  26.1433
    28.0452  31.6038

          k = 0.5000-0.3000 0.7000 (   170 PWs)   bands (ev):

     6.8693   7.9119   8.6750   8.7679   9.7448  14.3769  16.5591  26.5888
    27.0373  31.2179

          k =-0.2000 0.6000 0.0000 (   176 PWs)   bands (ev):

     7.0135   7.3514   8.2897   8.8554   9.0831  10.5994  24.3366  24.8274
    27.1620  32.5188

          k = 0.7000-0.3000 0.9000 (   176 PWs)   bands (ev):

     7.1290   7.4220   8.0235   8.8253   9.4009  12.7597  20.8335  24.2760
    25.3306  32.2170

          k = 0.6000-0.2000 0.8000 (   175 PWs)   bands (ev):

     7.1703   7.3383   8.0564   8.7766   9.7995  15.3355  17.5434  23.4734
    25.1384  32.0572

          k = 0.5000-0.1000 0.7000 (   174 PWs)   bands (ev):

     7.3581   7.5099   7.9892   8.9529   9.2805  14.5861  18.7383  22.5403
    26.3221  32.4332

          k = 0.4000 0.0000 0.6000 (   173 PWs)   bands (ev):

     7.4978   7.5525   7.7926   9.0622   9.2026  12.2467  22.2254  22.3689
    27.9734  33.3041

          k = 0.8000-0.2000 1.0000 (   174 PWs)   bands (ev):

     6.9206   7.0434   8.7781   9.3081   9.7131  13.2927  22.0168  23.0651
    23.4601  32.2152

          k = 0.7000-0.1000 0.9000 (   177 PWs)   bands (ev):

     6.7854   7.1666   8.5358   9.0642   9.4927  15.6837  19.6333  21.0387
    23.5011  32.3209

          k = 0.6000 0.0000 0.8000 (   177 PWs)   bands (ev):

     7.0951   7.2918   8.1340   8.9167   9.2911  16.9414  18.2825  20.1324
    24.6660  32.3669

          k =-0.2000-1.0000 0.0000 (   178 PWs)   bands (ev):

     6.3628   7.0097   9.1376   9.2984   9.4764  15.3700  19.4019  22.4328
    22.5226  32.0967

          k = 0.6000-0.2000 1.0000 (   171 PWs)   bands (ev):

     7.2286   7.6574   8.1027   9.5127   9.7008  14.9770  20.8183  20.9938
    23.6741  34.8520

          k = 0.5000-0.1000 0.9000 (   176 PWs)   bands (ev):

     7.1145   7.5786   7.7418   9.0658   9.6476  17.6627  17.7002  21.2427
    22.5858  34.7327

          k =-0.4000-1.0000 0.0000 (   178 PWs)   bands (ev):

     6.8504   7.1873   8.1884   8.8095   9.8971  17.5734  19.4371  20.0497
    21.4426  35.1421

     the Fermi energy is    12.6606 ev

!    total energy              =     -82.55683324 Ry
     Harris-Foulkes estimate   =     -82.55683324 Ry
     estimated scf accuracy    <          5.3E-09 Ry

     The total energy is the sum of the following terms:

     one-electron contribution =      -1.58946689 Ry
     hartree contribution      =      12.83247151 Ry
     xc contribution           =     -21.93848116 Ry
     ewald contribution        =     -71.86118020 Ry
     smearing contrib. (-TS)   =      -0.00017649 Ry

     convergence has been achieved in   7 iterations

     Forces acting on atoms (cartesian axes, Ry/au):

     atom    1 type  1   force =     0.00000000    0.00000000    0.00000000

     Total force =     0.000000     Total SCF correction =     0.000000


     Computing stress (Cartesian axis) and pressure

          total   stress  (Ry/bohr**3)                   (kbar)     P=-7130.24
  -0.04847042   0.00000000  -0.00000000      -7130.24      0.00     -0.00
   0.00000000  -0.04847042   0.00000000          0.00  -7130.24      0.00
  -0.00000000  -0.00000000  -0.04847042         -0.00     -0.00  -7130.24


     Writing output data file Ag.save/

     init_run     :      0.12s CPU      0.13s WALL (       1 calls)
     electrons    :      0.99s CPU      1.10s WALL (       1 calls)
     forces       :      0.02s CPU      0.02s WALL (       1 calls)
     stress       :      0.04s CPU      0.04s WALL (       1 calls)

     Called by init_run:
     wfcinit      :      0.03s CPU      0.04s WALL (       1 calls)
     potinit      :      0.00s CPU      0.00s WALL (       1 calls)
     hinit0       :      0.08s CPU      0.08s WALL (       1 calls)

     Called by electrons:
     c_bands      :      0.86s CPU      0.95s WALL (       7 calls)
     sum_band     :      0.12s CPU      0.14s WALL (       7 calls)
     v_of_rho     :      0.01s CPU      0.01s WALL (       8 calls)
     newd         :      0.01s CPU      0.01s WALL (       8 calls)
     mix_rho      :      0.00s CPU      0.00s WALL (       7 calls)

     Called by c_bands:
     init_us_2    :      0.02s CPU      0.02s WALL (     799 calls)
     cegterg      :      0.82s CPU      0.91s WALL (     329 calls)

     Called by sum_band:
     sum_band:bec :      0.00s CPU      0.00s WALL (     329 calls)
     addusdens    :      0.01s CPU      0.01s WALL (       7 calls)

     Called by *egterg:
     h_psi        :      0.50s CPU      0.57s WALL (    1156 calls)
     s_psi        :      0.02s CPU      0.02s WALL (    1156 calls)
     g_psi        :      0.00s CPU      0.00s WALL (     780 calls)
     cdiaghg      :      0.21s CPU      0.23s WALL (    1109 calls)

     Called by h_psi:
     h_psi:pot    :      0.50s CPU      0.56s WALL (    1156 calls)
     h_psi:calbec :      0.03s CPU      0.04s WALL (    1156 calls)
     vloc_psi     :      0.44s CPU      0.49s WALL (    1156 calls)
     add_vuspsi   :      0.02s CPU      0.02s WALL (    1156 calls)

     General routines
     calbec       :      0.05s CPU      0.05s WALL (    1720 calls)
     fft          :      0.01s CPU      0.01s WALL (     114 calls)
     ffts         :      0.00s CPU      0.00s WALL (       7 calls)
     fftw         :      0.47s CPU      0.53s WALL (   20616 calls)

     Parallel routines
     fft_scatt_xy :      0.05s CPU      0.06s WALL (   20737 calls)
     fft_scatt_yz :      0.20s CPU      0.22s WALL (   20737 calls)

     PWSCF        :     2.14s CPU         2.33s WALL


   This run was terminated on:   0: 7:53  27Mar2024            

=------------------------------------------------------------------------------=
   JOB DONE.
=------------------------------------------------------------------------------=
