
     Program PWSCF v.6.3MaX starts on 27Mar2024 at  0: 6:22 

     This program is part of the open-source Quantum ESPRESSO suite
     for quantum simulation of materials; please cite
         "P. Giannozzi et al., J. Phys.:Condens. Matter 21 395502 (2009);
         "P. Giannozzi et al., J. Phys.:Condens. Matter 29 465901 (2017);
          URL http://www.quantum-espresso.org", 
     in publications or presentations arising from this work. More details at
     http://www.quantum-espresso.org/quote

     Parallel version (MPI), running on     5 processors

     MPI processes distributed on     1 nodes
     R & G space division:  proc/nbgrp/npool/nimage =       5
     Waiting for input...
     Reading input from standard input

     Current dimensions of program PWSCF are:
     Max number of different atomic species (ntypx) = 10
     Max number of k-points (npk) =  40000
     Max angular momentum in pseudopotentials (lmaxx) =  3

     Subspace diagonalization in iterative solution of the eigenvalue problem:
     a serial algorithm will be used


     Parallelization info
     --------------------
     sticks:   dense  smooth     PW     G-vecs:    dense   smooth      PW
     Min          24      24     11                  178      178      51
     Max          25      25     11                  181      181      52
     Sum         121     121     55                  893      893     259



     bravais-lattice index     =            2
     lattice parameter (alat)  =       7.7200  a.u.
     unit-cell volume          =     115.0249 (a.u.)^3
     number of atoms/cell      =            1
     number of atomic types    =            1
     number of electrons       =        11.00
     number of Kohn-Sham states=           10
     kinetic-energy cutoff     =      15.0000  Ry
     charge density cutoff     =      60.0000  Ry
     convergence threshold     =      1.0E-08
     mixing beta               =       0.7000
     number of iterations used =            8  plain     mixing
     Exchange-correlation      = PBESOL ( 1  4 10  8 0 0)

     celldm(1)=   7.720000  celldm(2)=   0.000000  celldm(3)=   0.000000
     celldm(4)=   0.000000  celldm(5)=   0.000000  celldm(6)=   0.000000

     crystal axes: (cart. coord. in units of alat)
               a(1) = (  -0.500000   0.000000   0.500000 )  
               a(2) = (   0.000000   0.500000   0.500000 )  
               a(3) = (  -0.500000   0.500000   0.000000 )  

     reciprocal axes: (cart. coord. in units 2 pi/alat)
               b(1) = ( -1.000000 -1.000000  1.000000 )  
               b(2) = (  1.000000  1.000000  1.000000 )  
               b(3) = ( -1.000000  1.000000 -1.000000 )  


     PseudoPot. # 1 for Ag read from file:
     /home/lorenzo/pseudos/Ag/Ag.pbesol-n-rrkjus_psl.1.0.0.UPF
     MD5 check sum: 3b43e8aa747a56f565f44d11355b8b45
     Pseudo is Ultrasoft + core correction, Zval = 11.0
     Generated using "atomic" code by A. Dal Corso v.6.2.2
     Using radial grid of 1237 points,  6 beta functions with: 
                l(1) =   0
                l(2) =   0
                l(3) =   1
                l(4) =   1
                l(5) =   2
                l(6) =   2
     Q(r) pseudized with 0 coefficients 


     atomic species   valence    mass     pseudopotential
        Ag            11.00   107.86820     Ag( 1.00)

     48 Sym. Ops., with inversion, found



   Cartesian axes

     site n.     atom                  positions (alat units)
         1           Ag  tau(   1) = (   0.0000000   0.0000000   0.0000000  )

     number of k points=    56  gaussian smearing, width (Ry)=  0.0100
                       cart. coord. in units 2pi/alat
        k(    1) = (   0.0000000   0.0000000   0.0000000), wk =   0.0015026
        k(    2) = (  -0.0909091   0.0909091  -0.0909091), wk =   0.0120210
        k(    3) = (  -0.1818182   0.1818182  -0.1818182), wk =   0.0120210
        k(    4) = (  -0.2727273   0.2727273  -0.2727273), wk =   0.0120210
        k(    5) = (  -0.3636364   0.3636364  -0.3636364), wk =   0.0120210
        k(    6) = (  -0.4545455   0.4545455  -0.4545455), wk =   0.0120210
        k(    7) = (   0.0000000   0.1818182   0.0000000), wk =   0.0090158
        k(    8) = (  -0.0909091   0.2727273  -0.0909091), wk =   0.0360631
        k(    9) = (  -0.1818182   0.3636364  -0.1818182), wk =   0.0360631
        k(   10) = (  -0.2727273   0.4545455  -0.2727273), wk =   0.0360631
        k(   11) = (  -0.3636364   0.5454545  -0.3636364), wk =   0.0360631
        k(   12) = (   0.5454545  -0.3636364   0.5454545), wk =   0.0360631
        k(   13) = (   0.4545455  -0.2727273   0.4545455), wk =   0.0360631
        k(   14) = (   0.3636364  -0.1818182   0.3636364), wk =   0.0360631
        k(   15) = (   0.2727273  -0.0909091   0.2727273), wk =   0.0360631
        k(   16) = (   0.1818182  -0.0000000   0.1818182), wk =   0.0180316
        k(   17) = (   0.0000000   0.3636364   0.0000000), wk =   0.0090158
        k(   18) = (  -0.0909091   0.4545455  -0.0909091), wk =   0.0360631
        k(   19) = (  -0.1818182   0.5454545  -0.1818182), wk =   0.0360631
        k(   20) = (  -0.2727273   0.6363636  -0.2727273), wk =   0.0360631
        k(   21) = (   0.6363636  -0.2727273   0.6363636), wk =   0.0360631
        k(   22) = (   0.5454545  -0.1818182   0.5454545), wk =   0.0360631
        k(   23) = (   0.4545455  -0.0909091   0.4545455), wk =   0.0360631
        k(   24) = (   0.3636364   0.0000000   0.3636364), wk =   0.0180316
        k(   25) = (   0.0000000   0.5454545   0.0000000), wk =   0.0090158
        k(   26) = (  -0.0909091   0.6363636  -0.0909091), wk =   0.0360631
        k(   27) = (  -0.1818182   0.7272727  -0.1818182), wk =   0.0360631
        k(   28) = (   0.7272727  -0.1818182   0.7272727), wk =   0.0360631
        k(   29) = (   0.6363636  -0.0909091   0.6363636), wk =   0.0360631
        k(   30) = (   0.5454545   0.0000000   0.5454545), wk =   0.0180316
        k(   31) = (   0.0000000   0.7272727   0.0000000), wk =   0.0090158
        k(   32) = (  -0.0909091   0.8181818  -0.0909091), wk =   0.0360631
        k(   33) = (   0.8181818  -0.0909091   0.8181818), wk =   0.0360631
        k(   34) = (   0.7272727   0.0000000   0.7272727), wk =   0.0180316
        k(   35) = (   0.0000000   0.9090909   0.0000000), wk =   0.0090158
        k(   36) = (   0.9090909  -0.0000000   0.9090909), wk =   0.0180316
        k(   37) = (  -0.1818182   0.3636364   0.0000000), wk =   0.0360631
        k(   38) = (  -0.2727273   0.4545455  -0.0909091), wk =   0.0721262
        k(   39) = (  -0.3636364   0.5454545  -0.1818182), wk =   0.0721262
        k(   40) = (   0.5454545  -0.3636364   0.7272727), wk =   0.0721262
        k(   41) = (  -0.1818182   0.5454545   0.0000000), wk =   0.0360631
        k(   42) = (  -0.2727273   0.6363636  -0.0909091), wk =   0.0721262
        k(   43) = (   0.6363636  -0.2727273   0.8181818), wk =   0.0721262
        k(   44) = (   0.5454545  -0.1818182   0.7272727), wk =   0.0721262
        k(   45) = (   0.4545455  -0.0909091   0.6363636), wk =   0.0721262
        k(   46) = (   0.3636364   0.0000000   0.5454545), wk =   0.0360631
        k(   47) = (  -0.1818182   0.7272727   0.0000000), wk =   0.0360631
        k(   48) = (   0.7272727  -0.1818182   0.9090909), wk =   0.0721262
        k(   49) = (   0.6363636  -0.0909091   0.8181818), wk =   0.0721262
        k(   50) = (   0.5454545   0.0000000   0.7272727), wk =   0.0360631
        k(   51) = (   0.8181818  -0.0909091   1.0000000), wk =   0.0360631
        k(   52) = (   0.7272727   0.0000000   0.9090909), wk =   0.0360631
        k(   53) = (   0.6363636  -0.2727273   1.0000000), wk =   0.0360631
        k(   54) = (   0.5454545  -0.1818182   0.9090909), wk =   0.0721262
        k(   55) = (   0.6363636  -0.0909091   1.0000000), wk =   0.0360631
        k(   56) = (   0.5454545   0.0000000   0.9090909), wk =   0.0360631

     Dense  grid:      893 G-vectors     FFT dimensions: (  15,  15,  15)

     Estimated max dynamical RAM per process >       1.64 MB

     Estimated total dynamical RAM >       8.20 MB

     Check: negative/imaginary core charge=   -0.000001    0.000000

     Initial potential from superposition of free atoms

     starting charge   10.99964, renormalised to   11.00000
     Starting wfcs are    9 randomized atomic wfcs +    1 random wfcs

     total cpu time spent up to now is        1.1 secs

     Self-consistent Calculation

     iteration #  1     ecut=    15.00 Ry     beta= 0.70
     Davidson diagonalization with overlap
     ethr =  1.00E-02,  avg # of iterations =  4.5

     total cpu time spent up to now is        1.5 secs

     total energy              =     -77.64661023 Ry
     Harris-Foulkes estimate   =     -80.34614432 Ry
     estimated scf accuracy    <       3.43596356 Ry

     iteration #  2     ecut=    15.00 Ry     beta= 0.70
     Davidson diagonalization with overlap
     ethr =  1.00E-02,  avg # of iterations =  2.5

     total cpu time spent up to now is        1.7 secs

     total energy              =     -78.79737949 Ry
     Harris-Foulkes estimate   =     -79.21211176 Ry
     estimated scf accuracy    <       0.78635457 Ry

     iteration #  3     ecut=    15.00 Ry     beta= 0.70
     Davidson diagonalization with overlap
     ethr =  7.15E-03,  avg # of iterations =  1.2

     total cpu time spent up to now is        1.8 secs

     total energy              =     -78.89218959 Ry
     Harris-Foulkes estimate   =     -78.90144454 Ry
     estimated scf accuracy    <       0.02549569 Ry

     iteration #  4     ecut=    15.00 Ry     beta= 0.70
     Davidson diagonalization with overlap
     ethr =  2.32E-04,  avg # of iterations =  2.8

     total cpu time spent up to now is        2.0 secs

     total energy              =     -78.89877012 Ry
     Harris-Foulkes estimate   =     -78.90018357 Ry
     estimated scf accuracy    <       0.00359540 Ry

     iteration #  5     ecut=    15.00 Ry     beta= 0.70
     Davidson diagonalization with overlap
     ethr =  3.27E-05,  avg # of iterations =  1.1

     total cpu time spent up to now is        2.1 secs

     total energy              =     -78.89891851 Ry
     Harris-Foulkes estimate   =     -78.89905888 Ry
     estimated scf accuracy    <       0.00034581 Ry

     iteration #  6     ecut=    15.00 Ry     beta= 0.70
     Davidson diagonalization with overlap
     ethr =  3.14E-06,  avg # of iterations =  2.0

     total cpu time spent up to now is        2.3 secs

     total energy              =     -78.89896569 Ry
     Harris-Foulkes estimate   =     -78.89897070 Ry
     estimated scf accuracy    <       0.00001196 Ry

     iteration #  7     ecut=    15.00 Ry     beta= 0.70
     Davidson diagonalization with overlap
     ethr =  1.09E-07,  avg # of iterations =  2.0

     total cpu time spent up to now is        2.4 secs

     total energy              =     -78.89896852 Ry
     Harris-Foulkes estimate   =     -78.89896852 Ry
     estimated scf accuracy    <       0.00000001 Ry

     iteration #  8     ecut=    15.00 Ry     beta= 0.70
     Davidson diagonalization with overlap
     ethr =  1.13E-10,  avg # of iterations =  3.6

     total cpu time spent up to now is        2.6 secs

     End of self-consistent calculation

          k = 0.0000 0.0000 0.0000 (   113 PWs)   bands (ev):

     4.4777   8.4078   8.4078   8.4078   9.3320   9.3320  30.8675  32.0627
    32.0627  32.0627

          k =-0.0909 0.0909-0.0909 (   116 PWs)   bands (ev):

     4.7198   7.0672   8.4536   8.4536   9.0609   9.0609  29.8771  31.2443
    32.0571  32.0571

          k =-0.1818 0.1818-0.1818 (   122 PWs)   bands (ev):

     5.3197   6.9019   7.2662   7.2662   8.5664   8.5664  26.2308  31.5653
    31.6878  31.6878

          k =-0.2727 0.2727-0.2727 (   114 PWs)   bands (ev):

     6.1732   7.8080   7.8080   8.5685  10.2688  10.2688  22.5944  30.9455
    30.9455  31.2314

          k =-0.3636 0.3636-0.3636 (   114 PWs)   bands (ev):

     6.3794   7.7180   7.7180   9.7939  10.5304  10.5304  18.9942  29.9877
    29.9877  30.4048

          k =-0.4545 0.4545-0.4545 (   114 PWs)   bands (ev):

     6.3523   7.7086   7.7086  10.6382  10.6382  11.6517  16.1283  29.3402
    29.3402  29.9124

          k = 0.0000 0.1818 0.0000 (   117 PWs)   bands (ev):

     4.8053   7.6784   7.6784   8.0920   8.6454   9.4316  31.0616  31.0616
    31.1025  31.2067

          k =-0.0909 0.2727-0.0909 (   121 PWs)   bands (ev):

     5.3207   6.7108   7.3222   7.5375   8.5706   8.9654  27.6083  30.0847
    31.0692  32.5407

          k =-0.1818 0.3636-0.1818 (   114 PWs)   bands (ev):

     6.1552   7.2698   8.1287   8.4902  10.1727  10.5399  23.9970  29.2968
    30.9379  32.0907

          k =-0.2727 0.4545-0.2727 (   109 PWs)   bands (ev):

     6.5282   8.4826   8.7286   9.3816  11.2542  11.3580  20.3866  28.6970
    30.1596  30.5936

          k =-0.3636 0.5455-0.3636 (   114 PWs)   bands (ev):

     6.5378   7.6841   7.8187   9.6828  10.6123  11.9114  17.0958  28.4078
    28.5930  30.0804

          k = 0.5455-0.3636 0.5455 (   114 PWs)   bands (ev):

     6.5469   7.6294   7.8225   9.9569  10.5135  12.9128  15.6912  27.7213
    28.8368  30.0156

          k = 0.4545-0.2727 0.4545 (   113 PWs)   bands (ev):

     6.6074   7.8623   7.9138   9.8556  10.4223  11.6748  18.1668  27.5127
    30.0190  30.4460

          k = 0.3636-0.1818 0.3636 (   113 PWs)   bands (ev):

     6.5276   7.8666   8.3863   8.7158   9.7213  11.3208  21.4912  27.8508
    31.4092  31.6718

          k = 0.2727-0.0909 0.2727 (   114 PWs)   bands (ev):

     5.8489   7.0997   8.5412   8.6858  10.0688  10.0775  25.1333  28.4894
    32.5688  34.6537

          k = 0.1818-0.0000 0.1818 (   119 PWs)   bands (ev):

     5.1066   6.4356   7.8272   8.5061   8.6983   8.8144  28.6164  29.2645
    32.1300  32.9481

          k = 0.0000 0.3636 0.0000 (   113 PWs)   bands (ev):

     5.7388   7.8415   8.6161   8.6161   9.7843  10.0435  28.8226  28.8226
    29.9105  31.7076

          k =-0.0909 0.4545-0.0909 (   114 PWs)   bands (ev):

     6.4182   6.8009   8.8162   8.8578  10.0353  10.2200  25.4884  27.6425
    29.6616  31.3040

          k =-0.1818 0.5455-0.1818 (   116 PWs)   bands (ev):

     6.1721   6.6702   7.7781   8.7691  10.8522  10.9590  21.6011  26.8999
    27.7127  30.7079

          k =-0.2727 0.6364-0.2727 (   113 PWs)   bands (ev):

     6.5835   7.2442   8.6425   8.8000  11.2666  12.4735  18.3837  26.1902
    26.7852  30.4963

          k = 0.6364-0.2727 0.6364 (   112 PWs)   bands (ev):

     6.7681   7.1973   8.8806   9.4403  11.0325  14.5239  15.8500  24.8665
    27.3716  30.4251

          k = 0.5455-0.1818 0.5455 (   109 PWs)   bands (ev):

     7.1635   7.9224   9.1643   9.5104  11.1990  13.4338  17.8175  24.2209
    28.7514  30.8212

          k = 0.4545-0.0909 0.4545 (   115 PWs)   bands (ev):

     6.6008   7.1975   8.4555   8.5904   9.6868  11.9466  20.8021  24.0089
    30.5297  31.3661

          k = 0.3636 0.0000 0.3636 (   111 PWs)   bands (ev):

     6.7626   7.1367   8.2787   9.5894  10.2577  11.7226  23.8739  25.1852
    32.4901  32.6194

          k = 0.0000 0.5455 0.0000 (   125 PWs)   bands (ev):

     5.4865   5.8959   7.9178   7.9178   8.3454   8.7200  26.0486  26.0486
    26.7218  30.1274

          k =-0.0909 0.6364-0.0909 (   116 PWs)   bands (ev):

     5.6043   6.3210   8.6632   9.4301  10.8247  11.0594  23.0564  25.2532
    25.2703  30.4747

          k =-0.1818 0.7273-0.1818 (   113 PWs)   bands (ev):

     5.7739   7.5848   8.7623   9.4150  11.4401  12.6041  19.8720  23.7930
    25.0043  30.6269

          k = 0.7273-0.1818 0.7273 (   112 PWs)   bands (ev):

     6.1665   7.7851   8.8126   9.3243  11.3254  15.0422  17.0763  22.3235
    25.5487  30.7544

          k = 0.6364-0.0909 0.6364 (   114 PWs)   bands (ev):

     6.4447   7.5267   8.7835   8.9722  10.3217  14.6311  17.8226  21.0655
    26.8390  30.8650

          k = 0.5455 0.0000 0.5455 (   111 PWs)   bands (ev):

     7.4113   8.3953   8.6129   9.3879   9.6193  13.2005  20.5182  21.1774
    28.7076  31.3218

          k = 0.0000 0.7273 0.0000 (   113 PWs)   bands (ev):

     5.4343   5.9577  10.4050  10.6678  11.2939  11.2939  22.3730  24.1038
    24.1038  30.0544

          k =-0.0909 0.8182-0.0909 (   113 PWs)   bands (ev):

     5.1061   6.3795  10.3261  10.4788  11.5083  12.7936  20.2527  22.5051
    23.5968  30.7908

          k = 0.8182-0.0909 0.8182 (   110 PWs)   bands (ev):

     5.4456   7.4977  10.3586  10.6467  10.9826  15.2679  18.1341  20.9748
    23.9805  30.8054

          k = 0.7273 0.0000 0.7273 (   110 PWs)   bands (ev):

     5.6773   7.9169   9.7283  10.4418  10.8422  16.2736  17.6274  19.7236
    25.1630  30.8194

          k = 0.0000 0.9091 0.0000 (   116 PWs)   bands (ev):

     4.0345   6.0693  10.4037  10.8536  10.8536  13.2532  18.7933  22.8052
    22.8052  30.3451

          k = 0.9091-0.0000 0.9091 (   114 PWs)   bands (ev):

     4.7196   6.2354  10.3322  10.8890  11.0798  14.5693  17.9671  21.7266
    22.9424  30.7002

          k =-0.1818 0.3636 0.0000 (   117 PWs)   bands (ev):

     5.9853   6.5364   7.7083   8.5638   9.4596  10.0452  26.2307  27.1881
    32.1285  32.8223

          k =-0.2727 0.4545-0.0909 (   114 PWs)   bands (ev):

     6.4438   7.2022   8.1755   8.6835  10.0942  11.2882  22.8221  26.1825
    30.4377  32.1825

          k =-0.3636 0.5455-0.1818 (   114 PWs)   bands (ev):

     6.5558   7.6179   8.1285   8.7714  10.5017  11.9154  19.4437  25.8143
    28.6240  31.3909

          k = 0.5455-0.3636 0.7273 (   113 PWs)   bands (ev):

     6.7267   7.1933   8.4562   9.6143  10.7185  13.5121  16.5595  25.9332
    27.3221  30.9125

          k =-0.1818 0.5455 0.0000 (   116 PWs)   bands (ev):

     6.4491   6.7242   7.7269   9.3432   9.5408  11.1067  24.0246  25.0947
    27.7440  31.8607

          k =-0.2727 0.6364-0.0909 (   115 PWs)   bands (ev):

     5.9640   7.1313   7.8882   9.2970  10.8635  11.9699  20.8748  24.1050
    26.0937  31.9189

          k = 0.6364-0.2727 0.8182 (   114 PWs)   bands (ev):

     6.2339   7.2730   8.2638   9.2332  10.8895  13.8395  17.8583  23.7169
    25.0706  31.8161

          k = 0.5455-0.1818 0.7273 (   111 PWs)   bands (ev):

     6.9141   7.5663   8.7128   9.3374  11.0587  15.4964  16.4224  22.9632
    25.6483  31.9518

          k = 0.4545-0.0909 0.6364 (   113 PWs)   bands (ev):

     6.9419   7.4463   8.1755   8.9812  10.5701  13.4259  19.1830  22.4340
    26.8691  32.3412

          k = 0.3636 0.0000 0.5455 (   112 PWs)   bands (ev):

     7.4647   7.4944   7.9457   9.4687  10.1288  12.1315  21.8786  23.0739
    28.8472  32.8935

          k =-0.1818 0.7273 0.0000 (   114 PWs)   bands (ev):

     5.3978   6.2876   9.3667  10.5034  11.0294  12.1463  21.6531  23.0177
    24.0912  31.6200

          k = 0.7273-0.1818 0.9091 (   110 PWs)   bands (ev):

     6.0816   7.3479   9.3247  10.7742  11.2830  14.2927  19.2181  21.9351
    23.5049  32.2639

          k = 0.6364-0.0909 0.8182 (   108 PWs)   bands (ev):

     6.8466   7.8784   9.1585  10.3402  11.4888  16.4779  17.2452  20.6256
    24.1151  32.5972

          k = 0.5455 0.0000 0.7273 (   111 PWs)   bands (ev):

     6.8913   7.8892   8.5674   9.1687  11.1853  14.8563  19.4124  19.6165
    25.3213  32.5619

          k = 0.8182-0.0909 1.0000 (   110 PWs)   bands (ev):

     6.0150   6.5568  10.6310  10.8252  11.5354  14.5433  18.8001  21.9655
    22.4331  31.9177

          k = 0.7273 0.0000 0.9091 (   106 PWs)   bands (ev):

     6.6601   7.5775  10.3103  11.2064  11.6734  16.3799  17.8285  20.5705
    22.8699  32.6956

          k = 0.6364-0.2727 1.0000 (   112 PWs)   bands (ev):

     6.6870   7.3071   8.0272   9.8626  11.2545  13.6292  20.3511  21.3155
    24.4980  33.7462

          k = 0.5455-0.1818 0.9091 (   110 PWs)   bands (ev):

     6.9928   7.7239   8.4851   9.6368  11.4063  15.6355  18.0899  21.0637
    23.4877  34.0064

          k = 0.6364-0.0909 1.0000 (   109 PWs)   bands (ev):

     7.2073   7.2511   9.0556  10.0229  11.7101  16.1249  18.7114  20.2096
    22.1686  34.8560

          k = 0.5455 0.0000 0.9091 (   110 PWs)   bands (ev):

     6.9383   7.9315   8.5141   9.3678  11.5835  17.1076  18.2276  19.2475
    22.2759  35.0775

     the Fermi energy is    12.8568 ev

!    total energy              =     -78.89896857 Ry
     Harris-Foulkes estimate   =     -78.89896858 Ry
     estimated scf accuracy    <          7.3E-09 Ry

     The total energy is the sum of the following terms:

     one-electron contribution =       4.25018757 Ry
     hartree contribution      =       9.56613211 Ry
     xc contribution           =     -20.85393680 Ry
     ewald contribution        =     -71.86118021 Ry
     smearing contrib. (-TS)   =      -0.00017124 Ry

     convergence has been achieved in   8 iterations

     Forces acting on atoms (cartesian axes, Ry/au):

     atom    1 type  1   force =     0.00000000    0.00000000    0.00000000

     Total force =     0.000000     Total SCF correction =     0.000000


     Computing stress (Cartesian axis) and pressure

          total   stress  (Ry/bohr**3)                   (kbar)     P=********
  -0.09553116   0.00000000  -0.00000000     -14053.12      0.00     -0.00
  -0.00000000  -0.09553116  -0.00000000         -0.00 -14053.12     -0.00
   0.00000000   0.00000000  -0.09553116          0.00      0.00 -14053.12


     Writing output data file Ag.save/

     init_run     :      0.14s CPU      0.15s WALL (       1 calls)
     electrons    :      1.40s CPU      1.57s WALL (       1 calls)
     forces       :      0.01s CPU      0.01s WALL (       1 calls)
     stress       :      0.03s CPU      0.03s WALL (       1 calls)

     Called by init_run:
     wfcinit      :      0.06s CPU      0.07s WALL (       1 calls)
     potinit      :      0.00s CPU      0.00s WALL (       1 calls)
     hinit0       :      0.07s CPU      0.07s WALL (       1 calls)

     Called by electrons:
     c_bands      :      1.23s CPU      1.38s WALL (       8 calls)
     sum_band     :      0.15s CPU      0.17s WALL (       8 calls)
     v_of_rho     :      0.01s CPU      0.01s WALL (       9 calls)
     newd         :      0.01s CPU      0.01s WALL (       9 calls)
     mix_rho      :      0.00s CPU      0.00s WALL (       8 calls)

     Called by c_bands:
     init_us_2    :      0.02s CPU      0.02s WALL (    1064 calls)
     cegterg      :      1.19s CPU      1.34s WALL (     448 calls)

     Called by sum_band:
     sum_band:bec :      0.00s CPU      0.00s WALL (     448 calls)
     addusdens    :      0.01s CPU      0.01s WALL (       8 calls)

     Called by *egterg:
     h_psi        :      0.72s CPU      0.81s WALL (    1604 calls)
     s_psi        :      0.02s CPU      0.03s WALL (    1604 calls)
     g_psi        :      0.00s CPU      0.00s WALL (    1100 calls)
     cdiaghg      :      0.34s CPU      0.38s WALL (    1548 calls)

     Called by h_psi:
     h_psi:pot    :      0.72s CPU      0.81s WALL (    1604 calls)
     h_psi:calbec :      0.04s CPU      0.05s WALL (    1604 calls)
     vloc_psi     :      0.64s CPU      0.72s WALL (    1604 calls)
     add_vuspsi   :      0.02s CPU      0.03s WALL (    1604 calls)

     General routines
     calbec       :      0.05s CPU      0.06s WALL (    2332 calls)
     fft          :      0.00s CPU      0.00s WALL (     125 calls)
     ffts         :      0.00s CPU      0.00s WALL (       8 calls)
     fftw         :      0.68s CPU      0.76s WALL (   28136 calls)

     Parallel routines
     fft_scatt_xy :      0.08s CPU      0.09s WALL (   28269 calls)
     fft_scatt_yz :      0.25s CPU      0.29s WALL (   28269 calls)

     PWSCF        :     2.54s CPU         2.80s WALL


   This run was terminated on:   0: 6:25  27Mar2024            

=------------------------------------------------------------------------------=
   JOB DONE.
=------------------------------------------------------------------------------=
