
     Program PWSCF v.6.3MaX starts on 27Mar2024 at  0:26:56 

     This program is part of the open-source Quantum ESPRESSO suite
     for quantum simulation of materials; please cite
         "P. Giannozzi et al., J. Phys.:Condens. Matter 21 395502 (2009);
         "P. Giannozzi et al., J. Phys.:Condens. Matter 29 465901 (2017);
          URL http://www.quantum-espresso.org", 
     in publications or presentations arising from this work. More details at
     http://www.quantum-espresso.org/quote

     Parallel version (MPI), running on     5 processors

     MPI processes distributed on     1 nodes
     R & G space division:  proc/nbgrp/npool/nimage =       5
     Waiting for input...
     Reading input from standard input

     Current dimensions of program PWSCF are:
     Max number of different atomic species (ntypx) = 10
     Max number of k-points (npk) =  40000
     Max angular momentum in pseudopotentials (lmaxx) =  3

     Subspace diagonalization in iterative solution of the eigenvalue problem:
     a serial algorithm will be used


     Parallelization info
     --------------------
     sticks:   dense  smooth     PW     G-vecs:    dense   smooth      PW
     Min          99      99     32                 1446     1446     258
     Max         100     100     33                 1449     1449     259
     Sum         499     499    163                 7239     7239    1291



     bravais-lattice index     =            2
     lattice parameter (alat)  =       7.7200  a.u.
     unit-cell volume          =     115.0249 (a.u.)^3
     number of atoms/cell      =            1
     number of atomic types    =            1
     number of electrons       =        11.00
     number of Kohn-Sham states=           10
     kinetic-energy cutoff     =      60.0000  Ry
     charge density cutoff     =     240.0000  Ry
     convergence threshold     =      1.0E-08
     mixing beta               =       0.7000
     number of iterations used =            8  plain     mixing
     Exchange-correlation      = PBESOL ( 1  4 10  8 0 0)

     celldm(1)=   7.720000  celldm(2)=   0.000000  celldm(3)=   0.000000
     celldm(4)=   0.000000  celldm(5)=   0.000000  celldm(6)=   0.000000

     crystal axes: (cart. coord. in units of alat)
               a(1) = (  -0.500000   0.000000   0.500000 )  
               a(2) = (   0.000000   0.500000   0.500000 )  
               a(3) = (  -0.500000   0.500000   0.000000 )  

     reciprocal axes: (cart. coord. in units 2 pi/alat)
               b(1) = ( -1.000000 -1.000000  1.000000 )  
               b(2) = (  1.000000  1.000000  1.000000 )  
               b(3) = ( -1.000000  1.000000 -1.000000 )  


     PseudoPot. # 1 for Ag read from file:
     /home/lorenzo/pseudos/Ag/Ag.pbesol-n-rrkjus_psl.1.0.0.UPF
     MD5 check sum: 3b43e8aa747a56f565f44d11355b8b45
     Pseudo is Ultrasoft + core correction, Zval = 11.0
     Generated using "atomic" code by A. Dal Corso v.6.2.2
     Using radial grid of 1237 points,  6 beta functions with: 
                l(1) =   0
                l(2) =   0
                l(3) =   1
                l(4) =   1
                l(5) =   2
                l(6) =   2
     Q(r) pseudized with 0 coefficients 


     atomic species   valence    mass     pseudopotential
        Ag            11.00   107.86820     Ag( 1.00)

     48 Sym. Ops., with inversion, found



   Cartesian axes

     site n.     atom                  positions (alat units)
         1           Ag  tau(   1) = (   0.0000000   0.0000000   0.0000000  )

     number of k points=    20  gaussian smearing, width (Ry)=  0.0100
                       cart. coord. in units 2pi/alat
        k(    1) = (   0.0000000   0.0000000   0.0000000), wk =   0.0058309
        k(    2) = (  -0.1428571   0.1428571  -0.1428571), wk =   0.0466472
        k(    3) = (  -0.2857143   0.2857143  -0.2857143), wk =   0.0466472
        k(    4) = (  -0.4285714   0.4285714  -0.4285714), wk =   0.0466472
        k(    5) = (   0.0000000   0.2857143   0.0000000), wk =   0.0349854
        k(    6) = (  -0.1428571   0.4285714  -0.1428571), wk =   0.1399417
        k(    7) = (  -0.2857143   0.5714286  -0.2857143), wk =   0.1399417
        k(    8) = (   0.5714286  -0.2857143   0.5714286), wk =   0.1399417
        k(    9) = (   0.4285714  -0.1428571   0.4285714), wk =   0.1399417
        k(   10) = (   0.2857143  -0.0000000   0.2857143), wk =   0.0699708
        k(   11) = (   0.0000000   0.5714286   0.0000000), wk =   0.0349854
        k(   12) = (  -0.1428571   0.7142857  -0.1428571), wk =   0.1399417
        k(   13) = (   0.7142857  -0.1428571   0.7142857), wk =   0.1399417
        k(   14) = (   0.5714286   0.0000000   0.5714286), wk =   0.0699708
        k(   15) = (   0.0000000   0.8571429   0.0000000), wk =   0.0349854
        k(   16) = (   0.8571429  -0.0000000   0.8571429), wk =   0.0699708
        k(   17) = (  -0.2857143   0.5714286   0.0000000), wk =   0.1399417
        k(   18) = (   0.5714286  -0.2857143   0.8571429), wk =   0.2798834
        k(   19) = (   0.7142857  -0.1428571   1.0000000), wk =   0.1399417
        k(   20) = (   0.5714286   0.0000000   0.8571429), wk =   0.1399417

     Dense  grid:     7239 G-vectors     FFT dimensions: (  27,  27,  27)

     Estimated max dynamical RAM per process >       7.50 MB

     Estimated total dynamical RAM >      37.50 MB

     Initial potential from superposition of free atoms

     starting charge   10.99964, renormalised to   11.00000
     Starting wfcs are    9 randomized atomic wfcs +    1 random wfcs

     total cpu time spent up to now is        1.0 secs

     Self-consistent Calculation

     iteration #  1     ecut=    60.00 Ry     beta= 0.70
     Davidson diagonalization with overlap
     ethr =  1.00E-02,  avg # of iterations =  4.4

     Threshold (ethr) on eigenvalues was too large:
     Diagonalizing with lowered threshold

     Davidson diagonalization with overlap
     ethr =  4.18E-05,  avg # of iterations =  2.5

     total cpu time spent up to now is        1.4 secs

     total energy              =     -84.18313207 Ry
     Harris-Foulkes estimate   =     -84.18635017 Ry
     estimated scf accuracy    <       0.00498941 Ry

     iteration #  2     ecut=    60.00 Ry     beta= 0.70
     Davidson diagonalization with overlap
     ethr =  4.54E-05,  avg # of iterations =  2.0

     total cpu time spent up to now is        1.6 secs

     total energy              =     -84.18429275 Ry
     Harris-Foulkes estimate   =     -84.18614454 Ry
     estimated scf accuracy    <       0.00344081 Ry

     iteration #  3     ecut=    60.00 Ry     beta= 0.70
     Davidson diagonalization with overlap
     ethr =  3.13E-05,  avg # of iterations =  2.0

     total cpu time spent up to now is        1.8 secs

     total energy              =     -84.18505583 Ry
     Harris-Foulkes estimate   =     -84.18505791 Ry
     estimated scf accuracy    <       0.00002591 Ry

     iteration #  4     ecut=    60.00 Ry     beta= 0.70
     Davidson diagonalization with overlap
     ethr =  2.36E-07,  avg # of iterations =  2.5

     total cpu time spent up to now is        2.0 secs

     total energy              =     -84.18506400 Ry
     Harris-Foulkes estimate   =     -84.18506395 Ry
     estimated scf accuracy    <       0.00000040 Ry

     iteration #  5     ecut=    60.00 Ry     beta= 0.70
     Davidson diagonalization with overlap
     ethr =  3.66E-09,  avg # of iterations =  2.2

     total cpu time spent up to now is        2.2 secs

     total energy              =     -84.18506410 Ry
     Harris-Foulkes estimate   =     -84.18506412 Ry
     estimated scf accuracy    <       0.00000004 Ry

     iteration #  6     ecut=    60.00 Ry     beta= 0.70
     Davidson diagonalization with overlap
     ethr =  3.71E-10,  avg # of iterations =  2.2

     total cpu time spent up to now is        2.4 secs

     End of self-consistent calculation

          k = 0.0000 0.0000 0.0000 (   893 PWs)   bands (ev):

     4.8089   7.9246   7.9246   7.9246   8.9742   8.9742  29.5477  32.8318
    32.8318  32.8318

          k =-0.1429 0.1429-0.1429 (   914 PWs)   bands (ev):

     5.4145   7.8199   8.0714   8.0714   8.9388   8.9388  27.9979  30.3635
    32.7626  32.7626

          k =-0.2857 0.2857-0.2857 (   905 PWs)   bands (ev):

     6.3528   8.0966   8.0966   8.5189   9.2222   9.2222  22.4411  29.6931
    32.1154  32.1154

          k =-0.4286 0.4286-0.4286 (   893 PWs)   bands (ev):

     6.3153   7.9300   7.9300   9.7010   9.7010  11.2813  17.4385  28.7361
    31.0247  31.0247

          k = 0.0000 0.2857 0.0000 (   909 PWs)   bands (ev):

     5.6191   7.6098   8.2330   8.2330   8.6940   9.1133  29.5766  30.3885
    30.3885  30.6540

          k =-0.1429 0.4286-0.1429 (   902 PWs)   bands (ev):

     6.5763   7.4868   8.1591   8.4255   9.2628   9.3654  24.7022  28.8610
    29.4072  31.3339

          k =-0.2857 0.5714-0.2857 (   904 PWs)   bands (ev):

     6.6562   7.7882   8.2881   8.4191   9.7615  11.5234  19.2710  27.8386
    28.3780  29.7727

          k = 0.5714-0.2857 0.5714 (   903 PWs)   bands (ev):

     6.6269   7.7095   8.1800   8.9087   9.6768  13.4893  16.5921  26.3702
    29.4363  29.4428

          k = 0.4286-0.1429 0.4286 (   903 PWs)   bands (ev):

     6.8027   7.8599   8.2830   8.3355   9.0726  10.8864  21.0528  26.0070
    30.5278  32.1574

          k = 0.2857-0.0000 0.2857 (   911 PWs)   bands (ev):

     6.2807   7.5932   8.2001   8.3288   8.6635   9.4380  26.4996  26.7802
    32.7639  33.1357

          k = 0.0000 0.5714 0.0000 (   894 PWs)   bands (ev):

     6.7206   6.9544   9.0398   9.0398   9.4013   9.4370  26.4598  26.4598
    27.0990  29.6607

          k =-0.1429 0.7143-0.1429 (   895 PWs)   bands (ev):

     6.6845   6.9322   8.8124   9.0836   9.8016  12.0006  21.9636  24.1443
    25.4842  29.6812

          k = 0.7143-0.1429 0.7143 (   904 PWs)   bands (ev):

     6.8154   7.3471   8.3758   8.8886   9.7322  15.7595  17.3499  21.9287
    26.3634  29.5404

          k = 0.5714 0.0000 0.5714 (   899 PWs)   bands (ev):

     7.2189   7.7519   7.8446   8.6922   9.2181  13.5751  20.3980  21.0654
    28.8910  29.8357

          k = 0.0000 0.8571 0.0000 (   906 PWs)   bands (ev):

     6.3369   6.4718   9.7069   9.8541   9.8541  13.0287  20.8999  23.8264
    23.8264  29.7391

          k = 0.8571-0.0000 0.8571 (   906 PWs)   bands (ev):

     6.4356   6.6401   9.3751   9.5345   9.8959  15.2791  19.4236  20.9360
    24.1673  29.7097

          k =-0.2857 0.5714 0.0000 (   897 PWs)   bands (ev):

     7.2134   7.2254   7.9195   9.0330   9.0951  11.0617  23.5291  23.7388
    27.6239  32.9180

          k = 0.5714-0.2857 0.8571 (   906 PWs)   bands (ev):

     7.1001   7.4298   8.0156   8.7705   9.6315  14.0498  18.5001  23.7434
    25.2563  32.3404

          k = 0.7143-0.1429 1.0000 (   904 PWs)   bands (ev):

     6.7553   6.8635   8.6161   9.3811   9.8502  14.6869  21.0560  21.5829
    22.1374  32.4066

          k = 0.5714 0.0000 0.8571 (   910 PWs)   bands (ev):

     7.0046   7.3711   7.9824   9.0040   9.8438  17.4456  18.0817  20.0294
    23.0506  33.0273

     the Fermi energy is    13.0085 ev

!    total energy              =     -84.18506411 Ry
     Harris-Foulkes estimate   =     -84.18506411 Ry
     estimated scf accuracy    <          6.9E-10 Ry

     The total energy is the sum of the following terms:

     one-electron contribution =      -4.74402939 Ry
     hartree contribution      =      14.56111430 Ry
     xc contribution           =     -22.14087229 Ry
     ewald contribution        =     -71.86118019 Ry
     smearing contrib. (-TS)   =      -0.00009653 Ry

     convergence has been achieved in   6 iterations

     Forces acting on atoms (cartesian axes, Ry/au):

     atom    1 type  1   force =     0.00000000    0.00000000    0.00000000

     Total force =     0.000000     Total SCF correction =     0.000000


     Computing stress (Cartesian axis) and pressure

          total   stress  (Ry/bohr**3)                   (kbar)     P=  -34.15
  -0.00023216   0.00000000  -0.00000000        -34.15      0.00     -0.00
   0.00000000  -0.00023216   0.00000000          0.00    -34.15      0.00
  -0.00000000   0.00000000  -0.00023216         -0.00      0.00    -34.15


     Writing output data file Ag.save/

     init_run     :      0.23s CPU      0.24s WALL (       1 calls)
     electrons    :      1.40s CPU      1.46s WALL (       1 calls)
     forces       :      0.04s CPU      0.04s WALL (       1 calls)
     stress       :      0.15s CPU      0.15s WALL (       1 calls)

     Called by init_run:
     wfcinit      :      0.05s CPU      0.05s WALL (       1 calls)
     potinit      :      0.01s CPU      0.01s WALL (       1 calls)
     hinit0       :      0.16s CPU      0.16s WALL (       1 calls)

     Called by electrons:
     c_bands      :      1.09s CPU      1.13s WALL (       7 calls)
     sum_band     :      0.24s CPU      0.25s WALL (       7 calls)
     v_of_rho     :      0.03s CPU      0.03s WALL (       7 calls)
     newd         :      0.05s CPU      0.05s WALL (       7 calls)
     mix_rho      :      0.00s CPU      0.00s WALL (       7 calls)

     Called by c_bands:
     init_us_2    :      0.04s CPU      0.04s WALL (     340 calls)
     cegterg      :      1.04s CPU      1.08s WALL (     140 calls)

     Called by sum_band:
     sum_band:bec :      0.00s CPU      0.00s WALL (     140 calls)
     addusdens    :      0.05s CPU      0.05s WALL (       7 calls)

     Called by *egterg:
     h_psi        :      0.83s CPU      0.86s WALL (     516 calls)
     s_psi        :      0.03s CPU      0.03s WALL (     516 calls)
     g_psi        :      0.00s CPU      0.00s WALL (     356 calls)
     cdiaghg      :      0.09s CPU      0.10s WALL (     476 calls)

     Called by h_psi:
     h_psi:pot    :      0.83s CPU      0.86s WALL (     516 calls)
     h_psi:calbec :      0.04s CPU      0.04s WALL (     516 calls)
     vloc_psi     :      0.76s CPU      0.79s WALL (     516 calls)
     add_vuspsi   :      0.03s CPU      0.03s WALL (     516 calls)

     General routines
     calbec       :      0.07s CPU      0.07s WALL (     756 calls)
     fft          :      0.02s CPU      0.02s WALL (     104 calls)
     ffts         :      0.00s CPU      0.00s WALL (       7 calls)
     fftw         :      0.85s CPU      0.88s WALL (    8666 calls)

     Parallel routines
     fft_scatt_xy :      0.07s CPU      0.08s WALL (    8777 calls)
     fft_scatt_yz :      0.20s CPU      0.21s WALL (    8777 calls)

     PWSCF        :     2.57s CPU         2.68s WALL


   This run was terminated on:   0:26:59  27Mar2024            

=------------------------------------------------------------------------------=
   JOB DONE.
=------------------------------------------------------------------------------=
