
     Program PWSCF v.6.3MaX starts on 27Mar2024 at  0:32:42 

     This program is part of the open-source Quantum ESPRESSO suite
     for quantum simulation of materials; please cite
         "P. Giannozzi et al., J. Phys.:Condens. Matter 21 395502 (2009);
         "P. Giannozzi et al., J. Phys.:Condens. Matter 29 465901 (2017);
          URL http://www.quantum-espresso.org", 
     in publications or presentations arising from this work. More details at
     http://www.quantum-espresso.org/quote

     Parallel version (MPI), running on     5 processors

     MPI processes distributed on     1 nodes
     R & G space division:  proc/nbgrp/npool/nimage =       5
     Waiting for input...
     Reading input from standard input

     Current dimensions of program PWSCF are:
     Max number of different atomic species (ntypx) = 10
     Max number of k-points (npk) =  40000
     Max angular momentum in pseudopotentials (lmaxx) =  3
               file Ag.pbe-n-kjpaw_psl.1.0.0.UPF: wavefunction(s)  5S 5P renormalized

     Subspace diagonalization in iterative solution of the eigenvalue problem:
     a serial algorithm will be used


     Parallelization info
     --------------------
     sticks:   dense  smooth     PW     G-vecs:    dense   smooth      PW
     Min         116     116     37                 1836     1836     327
     Max         117     117     38                 1838     1838     329
     Sum         583     583    187                 9185     9185    1639



     bravais-lattice index     =            2
     lattice parameter (alat)  =       7.7200  a.u.
     unit-cell volume          =     115.0249 (a.u.)^3
     number of atoms/cell      =            1
     number of atomic types    =            1
     number of electrons       =        11.00
     number of Kohn-Sham states=           10
     kinetic-energy cutoff     =      70.0000  Ry
     charge density cutoff     =     280.0000  Ry
     convergence threshold     =      1.0E-08
     mixing beta               =       0.7000
     number of iterations used =            8  plain     mixing
     Exchange-correlation      = SLA PW PBX PBC ( 1  4  3  4 0 0)

     celldm(1)=   7.720000  celldm(2)=   0.000000  celldm(3)=   0.000000
     celldm(4)=   0.000000  celldm(5)=   0.000000  celldm(6)=   0.000000

     crystal axes: (cart. coord. in units of alat)
               a(1) = (  -0.500000   0.000000   0.500000 )  
               a(2) = (   0.000000   0.500000   0.500000 )  
               a(3) = (  -0.500000   0.500000   0.000000 )  

     reciprocal axes: (cart. coord. in units 2 pi/alat)
               b(1) = ( -1.000000 -1.000000  1.000000 )  
               b(2) = (  1.000000  1.000000  1.000000 )  
               b(3) = ( -1.000000  1.000000 -1.000000 )  


     PseudoPot. # 1 for Ag read from file:
     /home/lorenzo/pseudos/Ag/Ag.pbe-n-kjpaw_psl.1.0.0.UPF
     MD5 check sum: 51099775af2a3182a6a1caffb86952a3
     Pseudo is Projector augmented-wave + core cor, Zval = 11.0
     Generated using "atomic" code by A. Dal Corso v.6.2.2
     Shape of augmentation charge: PSQ
     Using radial grid of 1237 points,  6 beta functions with: 
                l(1) =   0
                l(2) =   0
                l(3) =   1
                l(4) =   1
                l(5) =   2
                l(6) =   2
     Q(r) pseudized with 0 coefficients 


     atomic species   valence    mass     pseudopotential
        Ag            11.00   107.86820     Ag( 1.00)

     48 Sym. Ops., with inversion, found



   Cartesian axes

     site n.     atom                  positions (alat units)
         1           Ag  tau(   1) = (   0.0000000   0.0000000   0.0000000  )

     number of k points=    35  gaussian smearing, width (Ry)=  0.0100
                       cart. coord. in units 2pi/alat
        k(    1) = (   0.0000000   0.0000000   0.0000000), wk =   0.0027435
        k(    2) = (  -0.1111111   0.1111111  -0.1111111), wk =   0.0219479
        k(    3) = (  -0.2222222   0.2222222  -0.2222222), wk =   0.0219479
        k(    4) = (  -0.3333333   0.3333333  -0.3333333), wk =   0.0219479
        k(    5) = (  -0.4444444   0.4444444  -0.4444444), wk =   0.0219479
        k(    6) = (   0.0000000   0.2222222   0.0000000), wk =   0.0164609
        k(    7) = (  -0.1111111   0.3333333  -0.1111111), wk =   0.0658436
        k(    8) = (  -0.2222222   0.4444444  -0.2222222), wk =   0.0658436
        k(    9) = (  -0.3333333   0.5555556  -0.3333333), wk =   0.0658436
        k(   10) = (   0.5555556  -0.3333333   0.5555556), wk =   0.0658436
        k(   11) = (   0.4444444  -0.2222222   0.4444444), wk =   0.0658436
        k(   12) = (   0.3333333  -0.1111111   0.3333333), wk =   0.0658436
        k(   13) = (   0.2222222  -0.0000000   0.2222222), wk =   0.0329218
        k(   14) = (   0.0000000   0.4444444   0.0000000), wk =   0.0164609
        k(   15) = (  -0.1111111   0.5555556  -0.1111111), wk =   0.0658436
        k(   16) = (  -0.2222222   0.6666667  -0.2222222), wk =   0.0658436
        k(   17) = (   0.6666667  -0.2222222   0.6666667), wk =   0.0658436
        k(   18) = (   0.5555556  -0.1111111   0.5555556), wk =   0.0658436
        k(   19) = (   0.4444444   0.0000000   0.4444444), wk =   0.0329218
        k(   20) = (   0.0000000   0.6666667   0.0000000), wk =   0.0164609
        k(   21) = (  -0.1111111   0.7777778  -0.1111111), wk =   0.0658436
        k(   22) = (   0.7777778  -0.1111111   0.7777778), wk =   0.0658436
        k(   23) = (   0.6666667  -0.0000000   0.6666667), wk =   0.0329218
        k(   24) = (   0.0000000   0.8888889   0.0000000), wk =   0.0164609
        k(   25) = (   0.8888889   0.0000000   0.8888889), wk =   0.0329218
        k(   26) = (  -0.2222222   0.4444444   0.0000000), wk =   0.0658436
        k(   27) = (  -0.3333333   0.5555556  -0.1111111), wk =   0.1316872
        k(   28) = (   0.5555556  -0.3333333   0.7777778), wk =   0.1316872
        k(   29) = (  -0.2222222   0.6666667   0.0000000), wk =   0.0658436
        k(   30) = (   0.6666667  -0.2222222   0.8888889), wk =   0.1316872
        k(   31) = (   0.5555556  -0.1111111   0.7777778), wk =   0.1316872
        k(   32) = (   0.4444444   0.0000000   0.6666667), wk =   0.0658436
        k(   33) = (   0.7777778  -0.1111111   1.0000000), wk =   0.0658436
        k(   34) = (   0.6666667  -0.0000000   0.8888889), wk =   0.0658436
        k(   35) = (   0.5555556  -0.1111111   1.0000000), wk =   0.0658436

     Dense  grid:     9185 G-vectors     FFT dimensions: (  30,  30,  30)

     Estimated max dynamical RAM per process >       9.73 MB

     Estimated total dynamical RAM >      48.65 MB

     Initial potential from superposition of free atoms

     starting charge   10.99960, renormalised to   11.00000
     Starting wfcs are    9 randomized atomic wfcs +    1 random wfcs
     Checking if some PAW data can be deallocated... 

     total cpu time spent up to now is        1.2 secs

     Self-consistent Calculation

     iteration #  1     ecut=    70.00 Ry     beta= 0.70
     Davidson diagonalization with overlap
     ethr =  1.00E-02,  avg # of iterations =  4.7

     Threshold (ethr) on eigenvalues was too large:
     Diagonalizing with lowered threshold

     Davidson diagonalization with overlap
     ethr =  2.75E-05,  avg # of iterations =  2.5

     total cpu time spent up to now is        2.3 secs

     total energy              =    -355.30626928 Ry
     Harris-Foulkes estimate   =    -355.30815452 Ry
     estimated scf accuracy    <       0.00332107 Ry

     iteration #  2     ecut=    70.00 Ry     beta= 0.70
     Davidson diagonalization with overlap
     ethr =  3.02E-05,  avg # of iterations =  2.0

     total cpu time spent up to now is        2.8 secs

     total energy              =    -355.30721955 Ry
     Harris-Foulkes estimate   =    -355.30834285 Ry
     estimated scf accuracy    <       0.00240690 Ry

     iteration #  3     ecut=    70.00 Ry     beta= 0.70
     Davidson diagonalization with overlap
     ethr =  2.19E-05,  avg # of iterations =  1.6

     total cpu time spent up to now is        3.2 secs

     total energy              =    -355.30768668 Ry
     Harris-Foulkes estimate   =    -355.30766543 Ry
     estimated scf accuracy    <       0.00001509 Ry

     iteration #  4     ecut=    70.00 Ry     beta= 0.70
     Davidson diagonalization with overlap
     ethr =  1.37E-07,  avg # of iterations =  3.1

     total cpu time spent up to now is        3.8 secs

     total energy              =    -355.30769260 Ry
     Harris-Foulkes estimate   =    -355.30769238 Ry
     estimated scf accuracy    <       0.00000032 Ry

     iteration #  5     ecut=    70.00 Ry     beta= 0.70
     Davidson diagonalization with overlap
     ethr =  2.90E-09,  avg # of iterations =  1.4

     total cpu time spent up to now is        4.2 secs

     End of self-consistent calculation

          k = 0.0000 0.0000 0.0000 (  1139 PWs)   bands (ev):

     5.0653   8.0789   8.0789   8.0789   9.1173   9.1173  29.8002  33.0874
    33.0874  37.3843

          k =-0.1111 0.1111-0.1111 (  1137 PWs)   bands (ev):

     5.4415   8.0035   8.1772   8.1772   9.0866   9.0866  29.2084  30.8281
    33.0531  33.0531

          k =-0.2222 0.2222-0.2222 (  1134 PWs)   bands (ev):

     6.2991   8.1075   8.2895   8.2895   9.1710   9.1710  25.1789  30.3670
    32.7656  32.7656

          k =-0.3333 0.3333-0.3333 (  1149 PWs)   bands (ev):

     6.5861   8.1904   8.1904   9.5276   9.5420   9.5420  20.8581  29.5639
    31.9795  31.9795

          k =-0.4444 0.4444-0.4444 (  1143 PWs)   bands (ev):

     6.4908   8.0729   8.0729   9.8686   9.8686  11.8375  17.2406  28.9291
    31.2143  31.2143

          k = 0.0000 0.2222 0.0000 (  1151 PWs)   bands (ev):

     5.5681   7.8836   8.2662   8.2662   8.9327   9.2030  29.8095  31.4720
    31.4720  31.4722

          k =-0.1111 0.3333-0.1111 (  1142 PWs)   bands (ev):

     6.3105   7.7303   8.3877   8.4453   8.9792   9.3239  26.9063  30.0805
    30.2825  32.8111

          k =-0.2222 0.4444-0.2222 (  1139 PWs)   bands (ev):

     6.8072   8.1747   8.1822   8.4269   9.6341   9.9354  22.4954  29.4256
    29.5132  31.6531

          k =-0.3333 0.5556-0.3333 (  1138 PWs)   bands (ev):

     6.7195   7.9753   8.2940   8.9896   9.9078  11.9391  18.4799  28.4753
    29.3642  30.1844

          k = 0.5556-0.3333 0.5556 (  1140 PWs)   bands (ev):

     6.6846   7.9336   8.2265   9.3223   9.8531  13.3095  16.6587  27.6530
    29.7374  30.1449

          k = 0.4444-0.2222 0.4444 (  1135 PWs)   bands (ev):

     6.7938   8.0459   8.2913   8.9836   9.4583  11.3114  19.7630  27.3668
    30.3464  31.9755

          k = 0.3333-0.1111 0.3333 (  1131 PWs)   bands (ev):

     6.7924   7.9458   8.3435   8.4369   8.9729   9.9030  23.9688  27.6593
    31.8454  34.4852

          k = 0.2222-0.0000 0.2222 (  1153 PWs)   bands (ev):

     6.0174   7.8474   8.3284   8.3325   8.9021   9.2912  28.3309  28.3359
    32.4039  34.6709

          k = 0.0000 0.4444 0.0000 (  1134 PWs)   bands (ev):

     6.6985   7.4144   8.7884   8.7884   8.8430   9.4246  28.3995  28.3995
    29.4638  29.8488

          k =-0.1111 0.5556-0.1111 (  1137 PWs)   bands (ev):

     7.0122   7.3040   8.5962   8.9381   9.6779  10.1382  24.5446  27.2277
    27.8220  30.1470

          k =-0.2222 0.6667-0.2222 (  1136 PWs)   bands (ev):

     6.9552   7.5788   8.4732   8.8290   9.9485  12.3812  20.3660  25.7905
    26.9529  29.8189

          k = 0.6667-0.2222 0.6667 (  1136 PWs)   bands (ev):

     7.0219   7.6983   8.5305   8.7022   9.8761  15.0743  16.9990  24.2310
    27.7465  29.6939

          k = 0.5556-0.1111 0.5556 (  1142 PWs)   bands (ev):

     7.2515   7.7886   8.3852   8.6632   9.4562  13.4735  19.2689  23.3763
    29.5600  30.0461

          k = 0.4444 0.0000 0.4444 (  1131 PWs)   bands (ev):

     7.4756   7.6776   8.1874   8.7049   8.9525  11.3497  23.2549  23.4087
    30.9938  32.0758

          k = 0.0000 0.6667 0.0000 (  1118 PWs)   bands (ev):

     6.8143   6.9187   9.4921   9.4921   9.6847  10.6725  25.1777  25.6119
    25.6119  29.9103

          k =-0.1111 0.7778-0.1111 (  1137 PWs)   bands (ev):

     6.7310   6.8784   9.3755   9.4850   9.9714  12.7798  22.4745  23.0478
    24.9853  29.9378

          k = 0.7778-0.1111 0.7778 (  1136 PWs)   bands (ev):

     6.8243   7.1966   8.9054   9.3191   9.9460  15.6623  19.0651  21.1698
    25.5551  29.8358

          k = 0.6667-0.0000 0.6667 (  1141 PWs)   bands (ev):

     7.1119   7.6920   8.3099   9.0747   9.6398  16.0278  18.6976  20.4275
    27.2111  29.8452

          k = 0.0000 0.8889 0.0000 (  1138 PWs)   bands (ev):

     6.4813   6.6139   9.8595  10.0429  10.0429  13.6827  20.5908  23.9407
    23.9407  29.9566

          k = 0.8889 0.0000 0.8889 (  1134 PWs)   bands (ev):

     6.5478   6.7112   9.7301   9.7523  10.0687  15.1402  19.6343  21.9773
    24.1497  29.9601

          k =-0.2222 0.4444 0.0000 (  1133 PWs)   bands (ev):

     7.0172   7.5193   8.2452   8.7877   9.0487   9.9438  25.7700  26.0658
    30.4947  32.4492

          k =-0.3333 0.5556-0.1111 (  1138 PWs)   bands (ev):

     7.1568   7.9031   8.0132   8.7818   9.4798  11.4798  21.5848  25.4753
    28.4438  32.4230

          k = 0.5556-0.3333 0.7778 (  1136 PWs)   bands (ev):

     7.0399   7.7303   8.4957   8.6802   9.8101  13.8528  17.7791  25.7423
    26.7869  31.6153

          k =-0.2222 0.6667 0.0000 (  1141 PWs)   bands (ev):

     7.1116   7.1127   8.5696   9.4840   9.5530  11.7995  23.6950  23.8591
    25.5030  31.9665

          k = 0.6667-0.2222 0.8889 (  1136 PWs)   bands (ev):

     7.0830   7.3754   8.3662   9.2352   9.8773  14.3191  19.8624  23.4080
    24.0200  32.1117

          k = 0.5556-0.1111 0.7778 (  1133 PWs)   bands (ev):

     7.2692   7.5846   8.1570   9.0081   9.8289  16.3368  17.6375  22.0886
    24.9156  32.3187

          k = 0.4444 0.0000 0.6667 (  1136 PWs)   bands (ev):

     7.6047   7.6498   7.7846   9.0647   9.4896  13.6428  21.1486  21.5941
    26.5131  33.1030

          k = 0.7778-0.1111 1.0000 (  1141 PWs)   bands (ev):

     6.7446   6.8550   9.1913   9.6634  10.0415  14.8024  20.7408  22.4340
    22.6347  31.7069

          k = 0.6667-0.0000 0.8889 (  1140 PWs)   bands (ev):

     6.9425   7.2194   8.6539   9.3338  10.0354  17.0850  19.1515  20.0463
    23.3635  32.1024

          k = 0.5556-0.1111 1.0000 (  1141 PWs)   bands (ev):

     7.2124   7.5630   8.0191   9.1705  10.0379  16.9009  19.7363  20.6165
    21.9715  35.2880

     the Fermi energy is    13.1615 ev

!    total energy              =    -355.30769261 Ry
     Harris-Foulkes estimate   =    -355.30769262 Ry
     estimated scf accuracy    <          6.4E-09 Ry

     total all-electron energy =    -10632.273746 Ry

     The total energy is the sum of the following terms:

     one-electron contribution =       1.55848594 Ry
     hartree contribution      =      14.66543512 Ry
     xc contribution           =     -22.35339587 Ry
     ewald contribution        =     -71.86118018 Ry
     one-center paw contrib.   =    -277.31697972 Ry
     smearing contrib. (-TS)   =      -0.00005790 Ry

     convergence has been achieved in   5 iterations

     Forces acting on atoms (cartesian axes, Ry/au):

     atom    1 type  1   force =     0.00000000    0.00000000    0.00000000

     Total force =     0.000000     Total SCF correction =     0.000000


     Computing stress (Cartesian axis) and pressure

          total   stress  (Ry/bohr**3)                   (kbar)     P=   50.56
   0.00034371   0.00000000   0.00000000         50.56      0.00      0.00
   0.00000000   0.00034371  -0.00000000          0.00     50.56     -0.00
   0.00000000  -0.00000000   0.00034371          0.00     -0.00     50.56


     Writing output data file Ag.save/

     init_run     :      0.42s CPU      0.44s WALL (       1 calls)
     electrons    :      2.82s CPU      2.98s WALL (       1 calls)
     forces       :      0.05s CPU      0.05s WALL (       1 calls)
     stress       :      0.18s CPU      0.18s WALL (       1 calls)

     Called by init_run:
     wfcinit      :      0.11s CPU      0.12s WALL (       1 calls)
     potinit      :      0.11s CPU      0.12s WALL (       1 calls)
     hinit0       :      0.17s CPU      0.17s WALL (       1 calls)

     Called by electrons:
     c_bands      :      1.89s CPU      1.96s WALL (       6 calls)
     sum_band     :      0.40s CPU      0.41s WALL (       6 calls)
     v_of_rho     :      0.03s CPU      0.03s WALL (       6 calls)
     newd         :      0.05s CPU      0.06s WALL (       6 calls)
     PAW_pot      :      0.55s CPU      0.63s WALL (       6 calls)
     mix_rho      :      0.00s CPU      0.00s WALL (       6 calls)

     Called by c_bands:
     init_us_2    :      0.07s CPU      0.07s WALL (     525 calls)
     cegterg      :      1.80s CPU      1.87s WALL (     210 calls)

     Called by sum_band:
     sum_band:bec :      0.00s CPU      0.00s WALL (     210 calls)
     addusdens    :      0.05s CPU      0.05s WALL (       6 calls)

     Called by *egterg:
     h_psi        :      1.46s CPU      1.52s WALL (     783 calls)
     s_psi        :      0.05s CPU      0.05s WALL (     783 calls)
     g_psi        :      0.00s CPU      0.00s WALL (     538 calls)
     cdiaghg      :      0.15s CPU      0.16s WALL (     713 calls)

     Called by h_psi:
     h_psi:pot    :      1.46s CPU      1.52s WALL (     783 calls)
     h_psi:calbec :      0.07s CPU      0.07s WALL (     783 calls)
     vloc_psi     :      1.34s CPU      1.39s WALL (     783 calls)
     add_vuspsi   :      0.05s CPU      0.05s WALL (     783 calls)

     General routines
     calbec       :      0.12s CPU      0.12s WALL (    1168 calls)
     fft          :      0.02s CPU      0.02s WALL (      93 calls)
     ffts         :      0.00s CPU      0.00s WALL (       6 calls)
     fftw         :      1.50s CPU      1.56s WALL (   13082 calls)

     Parallel routines
     fft_scatt_xy :      0.13s CPU      0.14s WALL (   13181 calls)
     fft_scatt_yz :      0.36s CPU      0.37s WALL (   13181 calls)

     PWSCF        :     4.28s CPU         4.51s WALL


   This run was terminated on:   0:32:46  27Mar2024            

=------------------------------------------------------------------------------=
   JOB DONE.
=------------------------------------------------------------------------------=
