
     Program PWSCF v.6.3MaX starts on 27Mar2024 at  0:25:26 

     This program is part of the open-source Quantum ESPRESSO suite
     for quantum simulation of materials; please cite
         "P. Giannozzi et al., J. Phys.:Condens. Matter 21 395502 (2009);
         "P. Giannozzi et al., J. Phys.:Condens. Matter 29 465901 (2017);
          URL http://www.quantum-espresso.org", 
     in publications or presentations arising from this work. More details at
     http://www.quantum-espresso.org/quote

     Parallel version (MPI), running on     5 processors

     MPI processes distributed on     1 nodes
     R & G space division:  proc/nbgrp/npool/nimage =       5
     Waiting for input...
     Reading input from standard input

     Current dimensions of program PWSCF are:
     Max number of different atomic species (ntypx) = 10
     Max number of k-points (npk) =  40000
     Max angular momentum in pseudopotentials (lmaxx) =  3

     Subspace diagonalization in iterative solution of the eigenvalue problem:
     a serial algorithm will be used


     Parallelization info
     --------------------
     sticks:   dense  smooth     PW     G-vecs:    dense   smooth      PW
     Min          99      99     32                 1446     1446     272
     Max         100     100     33                 1449     1449     273
     Sum         499     499    163                 7239     7239    1363



     bravais-lattice index     =            2
     lattice parameter (alat)  =       7.7200  a.u.
     unit-cell volume          =     115.0249 (a.u.)^3
     number of atoms/cell      =            1
     number of atomic types    =            1
     number of electrons       =        11.00
     number of Kohn-Sham states=           10
     kinetic-energy cutoff     =      60.0000  Ry
     charge density cutoff     =     240.0000  Ry
     convergence threshold     =      1.0E-08
     mixing beta               =       0.7000
     number of iterations used =            8  plain     mixing
     Exchange-correlation      = PBE ( 1  4  3  4 0 0)

     celldm(1)=   7.720000  celldm(2)=   0.000000  celldm(3)=   0.000000
     celldm(4)=   0.000000  celldm(5)=   0.000000  celldm(6)=   0.000000

     crystal axes: (cart. coord. in units of alat)
               a(1) = (  -0.500000   0.000000   0.500000 )  
               a(2) = (   0.000000   0.500000   0.500000 )  
               a(3) = (  -0.500000   0.500000   0.000000 )  

     reciprocal axes: (cart. coord. in units 2 pi/alat)
               b(1) = ( -1.000000 -1.000000  1.000000 )  
               b(2) = (  1.000000  1.000000  1.000000 )  
               b(3) = ( -1.000000  1.000000 -1.000000 )  


     PseudoPot. # 1 for Ag read from file:
     /home/lorenzo/pseudos/Ag/Ag.pbe-n-rrkjus_psl.1.0.0.UPF
     MD5 check sum: d841cbfac2b0861aec33b46768a516bf
     Pseudo is Ultrasoft + core correction, Zval = 11.0
     Generated using "atomic" code by A. Dal Corso v.6.2.2
     Using radial grid of 1237 points,  6 beta functions with: 
                l(1) =   0
                l(2) =   0
                l(3) =   1
                l(4) =   1
                l(5) =   2
                l(6) =   2
     Q(r) pseudized with 0 coefficients 


     atomic species   valence    mass     pseudopotential
        Ag            11.00   107.86820     Ag( 1.00)

     48 Sym. Ops., with inversion, found



   Cartesian axes

     site n.     atom                  positions (alat units)
         1           Ag  tau(   1) = (   0.0000000   0.0000000   0.0000000  )

     number of k points=    56  gaussian smearing, width (Ry)=  0.0100
                       cart. coord. in units 2pi/alat
        k(    1) = (   0.0000000   0.0000000   0.0000000), wk =   0.0015026
        k(    2) = (  -0.0909091   0.0909091  -0.0909091), wk =   0.0120210
        k(    3) = (  -0.1818182   0.1818182  -0.1818182), wk =   0.0120210
        k(    4) = (  -0.2727273   0.2727273  -0.2727273), wk =   0.0120210
        k(    5) = (  -0.3636364   0.3636364  -0.3636364), wk =   0.0120210
        k(    6) = (  -0.4545455   0.4545455  -0.4545455), wk =   0.0120210
        k(    7) = (   0.0000000   0.1818182   0.0000000), wk =   0.0090158
        k(    8) = (  -0.0909091   0.2727273  -0.0909091), wk =   0.0360631
        k(    9) = (  -0.1818182   0.3636364  -0.1818182), wk =   0.0360631
        k(   10) = (  -0.2727273   0.4545455  -0.2727273), wk =   0.0360631
        k(   11) = (  -0.3636364   0.5454545  -0.3636364), wk =   0.0360631
        k(   12) = (   0.5454545  -0.3636364   0.5454545), wk =   0.0360631
        k(   13) = (   0.4545455  -0.2727273   0.4545455), wk =   0.0360631
        k(   14) = (   0.3636364  -0.1818182   0.3636364), wk =   0.0360631
        k(   15) = (   0.2727273  -0.0909091   0.2727273), wk =   0.0360631
        k(   16) = (   0.1818182  -0.0000000   0.1818182), wk =   0.0180316
        k(   17) = (   0.0000000   0.3636364   0.0000000), wk =   0.0090158
        k(   18) = (  -0.0909091   0.4545455  -0.0909091), wk =   0.0360631
        k(   19) = (  -0.1818182   0.5454545  -0.1818182), wk =   0.0360631
        k(   20) = (  -0.2727273   0.6363636  -0.2727273), wk =   0.0360631
        k(   21) = (   0.6363636  -0.2727273   0.6363636), wk =   0.0360631
        k(   22) = (   0.5454545  -0.1818182   0.5454545), wk =   0.0360631
        k(   23) = (   0.4545455  -0.0909091   0.4545455), wk =   0.0360631
        k(   24) = (   0.3636364   0.0000000   0.3636364), wk =   0.0180316
        k(   25) = (   0.0000000   0.5454545   0.0000000), wk =   0.0090158
        k(   26) = (  -0.0909091   0.6363636  -0.0909091), wk =   0.0360631
        k(   27) = (  -0.1818182   0.7272727  -0.1818182), wk =   0.0360631
        k(   28) = (   0.7272727  -0.1818182   0.7272727), wk =   0.0360631
        k(   29) = (   0.6363636  -0.0909091   0.6363636), wk =   0.0360631
        k(   30) = (   0.5454545   0.0000000   0.5454545), wk =   0.0180316
        k(   31) = (   0.0000000   0.7272727   0.0000000), wk =   0.0090158
        k(   32) = (  -0.0909091   0.8181818  -0.0909091), wk =   0.0360631
        k(   33) = (   0.8181818  -0.0909091   0.8181818), wk =   0.0360631
        k(   34) = (   0.7272727   0.0000000   0.7272727), wk =   0.0180316
        k(   35) = (   0.0000000   0.9090909   0.0000000), wk =   0.0090158
        k(   36) = (   0.9090909  -0.0000000   0.9090909), wk =   0.0180316
        k(   37) = (  -0.1818182   0.3636364   0.0000000), wk =   0.0360631
        k(   38) = (  -0.2727273   0.4545455  -0.0909091), wk =   0.0721262
        k(   39) = (  -0.3636364   0.5454545  -0.1818182), wk =   0.0721262
        k(   40) = (   0.5454545  -0.3636364   0.7272727), wk =   0.0721262
        k(   41) = (  -0.1818182   0.5454545   0.0000000), wk =   0.0360631
        k(   42) = (  -0.2727273   0.6363636  -0.0909091), wk =   0.0721262
        k(   43) = (   0.6363636  -0.2727273   0.8181818), wk =   0.0721262
        k(   44) = (   0.5454545  -0.1818182   0.7272727), wk =   0.0721262
        k(   45) = (   0.4545455  -0.0909091   0.6363636), wk =   0.0721262
        k(   46) = (   0.3636364   0.0000000   0.5454545), wk =   0.0360631
        k(   47) = (  -0.1818182   0.7272727   0.0000000), wk =   0.0360631
        k(   48) = (   0.7272727  -0.1818182   0.9090909), wk =   0.0721262
        k(   49) = (   0.6363636  -0.0909091   0.8181818), wk =   0.0721262
        k(   50) = (   0.5454545   0.0000000   0.7272727), wk =   0.0360631
        k(   51) = (   0.8181818  -0.0909091   1.0000000), wk =   0.0360631
        k(   52) = (   0.7272727   0.0000000   0.9090909), wk =   0.0360631
        k(   53) = (   0.6363636  -0.2727273   1.0000000), wk =   0.0360631
        k(   54) = (   0.5454545  -0.1818182   0.9090909), wk =   0.0721262
        k(   55) = (   0.6363636  -0.0909091   1.0000000), wk =   0.0360631
        k(   56) = (   0.5454545   0.0000000   0.9090909), wk =   0.0360631

     Dense  grid:     7239 G-vectors     FFT dimensions: (  27,  27,  27)

     Estimated max dynamical RAM per process >       8.49 MB

     Estimated total dynamical RAM >      42.45 MB

     Initial potential from superposition of free atoms

     starting charge   10.99960, renormalised to   11.00000
     Starting wfcs are    9 randomized atomic wfcs +    1 random wfcs

     total cpu time spent up to now is        1.2 secs

     Self-consistent Calculation

     iteration #  1     ecut=    60.00 Ry     beta= 0.70
     Davidson diagonalization with overlap
     ethr =  1.00E-02,  avg # of iterations =  4.5

     Threshold (ethr) on eigenvalues was too large:
     Diagonalizing with lowered threshold

     Davidson diagonalization with overlap
     ethr =  2.59E-05,  avg # of iterations =  2.6

     total cpu time spent up to now is        2.5 secs

     total energy              =     -84.27177252 Ry
     Harris-Foulkes estimate   =     -84.27353300 Ry
     estimated scf accuracy    <       0.00314881 Ry

     iteration #  2     ecut=    60.00 Ry     beta= 0.70
     Davidson diagonalization with overlap
     ethr =  2.86E-05,  avg # of iterations =  2.0

     total cpu time spent up to now is        3.1 secs

     total energy              =     -84.27243743 Ry
     Harris-Foulkes estimate   =     -84.27350960 Ry
     estimated scf accuracy    <       0.00197663 Ry

     iteration #  3     ecut=    60.00 Ry     beta= 0.70
     Davidson diagonalization with overlap
     ethr =  1.80E-05,  avg # of iterations =  2.0

     total cpu time spent up to now is        3.5 secs

     total energy              =     -84.27289969 Ry
     Harris-Foulkes estimate   =     -84.27289968 Ry
     estimated scf accuracy    <       0.00003005 Ry

     iteration #  4     ecut=    60.00 Ry     beta= 0.70
     Davidson diagonalization with overlap
     ethr =  2.73E-07,  avg # of iterations =  2.2

     total cpu time spent up to now is        4.2 secs

     total energy              =     -84.27290584 Ry
     Harris-Foulkes estimate   =     -84.27290573 Ry
     estimated scf accuracy    <       0.00000020 Ry

     iteration #  5     ecut=    60.00 Ry     beta= 0.70
     Davidson diagonalization with overlap
     ethr =  1.78E-09,  avg # of iterations =  2.5

     total cpu time spent up to now is        4.8 secs

     total energy              =     -84.27290594 Ry
     Harris-Foulkes estimate   =     -84.27290596 Ry
     estimated scf accuracy    <       0.00000005 Ry

     iteration #  6     ecut=    60.00 Ry     beta= 0.70
     Davidson diagonalization with overlap
     ethr =  4.60E-10,  avg # of iterations =  2.1

     total cpu time spent up to now is        5.4 secs

     End of self-consistent calculation

          k = 0.0000 0.0000 0.0000 (   893 PWs)   bands (ev):

     5.0685   8.0828   8.0828   8.0828   9.1196   9.1196  29.8012  33.0916
    33.0916  33.0916

          k =-0.0909 0.0909-0.0909 (   914 PWs)   bands (ev):

     5.3235   8.0278   8.1517   8.1517   9.0952   9.0952  29.5751  31.1835
    33.0730  33.0730

          k =-0.1818 0.1818-0.1818 (   914 PWs)   bands (ev):

     5.9902   7.9904   8.2752   8.2752   9.1062   9.1062  26.7800  30.5208
    32.9283  32.9284

          k =-0.2727 0.2727-0.2727 (   905 PWs)   bands (ev):

     6.5413   8.2658   8.2658   8.5557   9.3215   9.3215  23.1857  30.0415
    32.4686  32.4686

          k =-0.3636 0.3636-0.3636 (   911 PWs)   bands (ev):

     6.5677   8.1542   8.1542   9.6552   9.6552  10.1398  19.7632  29.3434
    31.7346  31.7346

          k =-0.4545 0.4545-0.4545 (   899 PWs)   bands (ev):

     6.4880   8.0700   8.0700   9.8885   9.8885  12.0216  17.0137  28.9013
    31.1819  31.1819

          k = 0.0000 0.1818 0.0000 (   909 PWs)   bands (ev):

     5.4091   7.9496   8.2088   8.2088   8.9898   9.1774  29.8077  31.8580
    31.9571  31.9571

          k =-0.0909 0.2727-0.0909 (   907 PWs)   bands (ev):

     5.9516   7.8209   8.3491   8.3550   8.9230   9.2430  28.1299  30.2723
    31.0419  33.0093

          k =-0.1818 0.3636-0.1818 (   907 PWs)   bands (ev):

     6.6113   7.9325   8.3082   8.4104   9.2795   9.4289  24.5469  29.9079
    30.3242  33.1739

          k =-0.2727 0.4545-0.2727 (   907 PWs)   bands (ev):

     6.7375   8.1239   8.3266   8.6555   9.7193  10.3176  21.0163  29.2741
    29.8611  31.5963

          k =-0.3636 0.5455-0.3636 (   903 PWs)   bands (ev):

     6.6484   7.9978   8.2200   9.2536   9.9157  12.0706  17.9036  28.6441
    29.8270  30.3678

          k = 0.5455-0.3636 0.5455 (   899 PWs)   bands (ev):

     6.6205   7.9738   8.1739   9.4851   9.8778  13.0711  16.5965  28.1877
    29.8723  30.4196

          k = 0.4545-0.2727 0.4545 (   900 PWs)   bands (ev):

     6.6927   8.0520   8.2184   9.2815   9.6010  11.5107  18.8767  28.0234
    30.1783  31.7227

          k = 0.3636-0.1818 0.3636 (   903 PWs)   bands (ev):

     6.7713   8.1520   8.3337   8.5780   9.2049  10.1428  22.1799  28.2023
    31.1410  33.6646

          k = 0.2727-0.0909 0.2727 (   910 PWs)   bands (ev):

     6.4373   7.8674   8.3538   8.3967   8.9197   9.4807  25.7617  28.6260
    32.2942  34.3829

          k = 0.1818-0.0000 0.1818 (   911 PWs)   bands (ev):

     5.7266   7.9151   8.2521   8.2838   8.9639   9.1987  29.0232  29.3853
    32.2148  34.2768

          k = 0.0000 0.3636 0.0000 (   909 PWs)   bands (ev):

     6.3019   7.6055   8.5704   8.5704   8.7711   9.3352  29.5485  29.5485
    29.8337  30.2337

          k =-0.0909 0.4545-0.0909 (   899 PWs)   bands (ev):

     6.8351   7.4556   8.4690   8.7349   9.3078   9.4934  26.1875  28.4678
    29.4876  30.7945

          k =-0.1818 0.5455-0.1818 (   897 PWs)   bands (ev):

     6.9924   7.6869   8.2977   8.7081   9.7654  10.5864  22.6005  27.8616
    28.2007  30.2052

          k =-0.2727 0.6364-0.2727 (   898 PWs)   bands (ev):

     6.9258   7.8149   8.4771   8.5975   9.9489  12.4718  19.2713  26.7528
    27.8444  29.7860

          k = 0.6364-0.2727 0.6364 (   902 PWs)   bands (ev):

     6.9349   7.7768   8.5087   8.7478   9.8900  14.4396  16.7868  25.6080
    28.5207  29.6534

          k = 0.5455-0.1818 0.5455 (   906 PWs)   bands (ev):

     7.0445   7.8301   8.4942   8.7067   9.5851  13.2925  18.3748  24.9336
    29.8931  29.9432

          k = 0.4545-0.0909 0.4545 (   895 PWs)   bands (ev):

     7.2211   7.9045   8.3252   8.5705   9.1441  11.5118  21.5679  24.7848
    30.7486  31.8337

          k = 0.3636 0.0000 0.3636 (   917 PWs)   bands (ev):

     7.1165   7.6797   8.2927   8.7035   8.7298  10.2605  24.9228  25.2582
    32.0409  34.0873

          k = 0.0000 0.5455 0.0000 (   894 PWs)   bands (ev):

     6.9228   7.1809   9.1060   9.1060   9.3881   9.5475  27.0450  27.0450
    27.8769  29.8805

          k =-0.0909 0.6364-0.0909 (   895 PWs)   bands (ev):

     6.9310   7.0801   9.0094   9.2135   9.7724  10.7925  24.3282  25.9777
    26.1769  30.0104

          k =-0.1818 0.7273-0.1818 (   896 PWs)   bands (ev):

     6.8880   7.2511   8.7965   9.1196   9.9774  12.7989  21.0283  24.2512
    25.9952  29.8572

          k = 0.7273-0.1818 0.7273 (   904 PWs)   bands (ev):

     6.9678   7.5035   8.5679   8.9972   9.9281  15.2125  18.0599  22.8571
    26.5793  29.7609

          k = 0.6364-0.0909 0.6364 (   900 PWs)   bands (ev):

     7.1832   7.7554   8.2871   8.8966   9.6385  15.3187  18.2158  21.8989
    27.8790  29.8494

          k = 0.5455 0.0000 0.5455 (   895 PWs)   bands (ev):

     7.4517   7.8454   8.0749   8.7968   9.2835  13.2339  21.1847  21.6333
    29.7178  30.2025

          k = 0.0000 0.7273 0.0000 (   902 PWs)   bands (ev):

     6.7129   6.8133   9.6812   9.6812   9.7478  11.4734  23.8044  25.0221
    25.0221  29.9316

          k =-0.0909 0.8182-0.0909 (   904 PWs)   bands (ev):

     6.6473   6.7748   9.6133   9.6317   9.9986  13.1706  21.9068  23.0169
    24.5879  29.9635

          k = 0.8182-0.0909 0.8182 (   910 PWs)   bands (ev):

     6.7233   6.9977   9.2022   9.4924   9.9964  15.3941  19.9908  20.7883
    24.9840  29.8876

          k = 0.7273 0.0000 0.7273 (   903 PWs)   bands (ev):

     6.9340   7.4052   8.6558   9.2670   9.7980  17.5727  17.5793  20.1066
    26.1499  29.8318

          k = 0.0000 0.9091 0.0000 (   914 PWs)   bands (ev):

     6.4658   6.6038   9.8695  10.0751  10.0751  13.9204  20.2967  23.8714
    23.8714  29.9646

          k = 0.9091-0.0000 0.9091 (   914 PWs)   bands (ev):

     6.5143   6.6662   9.7964   9.8531  10.0926  14.9381  19.6282  22.4642
    24.0126  29.9807

          k =-0.1818 0.3636 0.0000 (   907 PWs)   bands (ev):

     6.5485   7.6524   8.3601   8.5720   8.9244   9.5046  27.1937  27.4083
    31.9617  32.0644

          k =-0.2727 0.4545-0.0909 (   903 PWs)   bands (ev):

     7.0383   7.7777   8.1680   8.6504   9.2152  10.2504  23.6777  26.7576
    30.3462  32.6025

          k =-0.3636 0.5455-0.1818 (   894 PWs)   bands (ev):

     6.9740   7.9547   8.3436   8.6111   9.6269  11.6545  20.2344  26.5612
    28.8388  31.8008

          k = 0.5455-0.3636 0.7273 (   899 PWs)   bands (ev):

     6.8822   7.8243   8.4154   8.8837   9.8449  13.5659  17.3162  26.8269
    27.6539  31.1393

          k =-0.1818 0.5455 0.0000 (   899 PWs)   bands (ev):

     7.1434   7.2828   8.4136   9.0996   9.3795  10.3273  25.2847  25.5150
    28.1551  31.6229

          k =-0.2727 0.6364-0.0909 (   901 PWs)   bands (ev):

     7.1156   7.4842   8.2751   9.0870   9.6827  11.8996  21.9295  25.0582
    26.3904  31.7360

          k = 0.6364-0.2727 0.8182 (   899 PWs)   bands (ev):

     7.1020   7.6167   8.3034   8.9203   9.8775  14.0153  18.7509  24.8742
    25.3187  31.5206

          k = 0.5455-0.1818 0.7273 (   901 PWs)   bands (ev):

     7.2095   7.6094   8.3816   8.7919   9.8115  15.4699  17.1143  23.8173
    26.0802  31.6676

          k = 0.4545-0.0909 0.6364 (   901 PWs)   bands (ev):

     7.3833   7.6906   8.1021   8.8760   9.5283  13.3997  19.8865  23.2408
    27.2984  32.3938

          k = 0.3636 0.0000 0.5455 (   900 PWs)   bands (ev):

     7.5509   7.6016   7.9281   9.0128   9.1181  11.5939  23.1578  23.2798
    28.7869  33.6602

          k =-0.1818 0.7273 0.0000 (   903 PWs)   bands (ev):

     6.9074   6.9551   8.9665   9.6763   9.6962  12.2724  23.5565  23.8190
    24.1750  31.3223

          k = 0.7273-0.1818 0.9091 (   905 PWs)   bands (ev):

     6.9156   7.1317   8.7422   9.4377   9.9478  14.3702  20.6509  22.4102
    23.8956  31.4931

          k = 0.6364-0.0909 0.8182 (   909 PWs)   bands (ev):

     7.0556   7.4435   8.4212   9.1849   9.9118  16.8666  17.9004  21.1693
    24.6139  31.5929

          k = 0.5455 0.0000 0.7273 (   898 PWs)   bands (ev):

     7.3149   7.7550   7.9956   9.0396   9.6825  15.4570  19.4619  20.7120
    25.8302  31.9661

          k = 0.8182-0.0909 1.0000 (   908 PWs)   bands (ev):

     6.6461   6.7669   9.4486   9.7450  10.0747  14.7290  20.3903  22.8023
    22.8989  31.1919

          k = 0.7273 0.0000 0.9091 (   911 PWs)   bands (ev):

     6.8012   7.0207   9.0072   9.4847  10.0695  16.3698  19.6676  20.4336
    23.4469  31.4555

          k = 0.6364-0.2727 1.0000 (   905 PWs)   bands (ev):

     7.3622   7.3683   8.0935   9.3099   9.6681  13.7278  21.6522  21.8867
    24.7347  34.1232

          k = 0.5455-0.1818 0.9091 (   901 PWs)   bands (ev):

     7.3379   7.5503   8.0089   9.1070   9.8993  15.9820  18.7045  22.1867
    23.4227  33.8816

          k = 0.6364-0.0909 1.0000 (   899 PWs)   bands (ev):

     7.0566   7.2502   8.4535   9.3198  10.0731  16.3964  20.5967  20.6885
    21.7142  33.8501

          k = 0.5455 0.0000 0.9091 (   905 PWs)   bands (ev):

     7.1895   7.6041   8.0273   9.1437  10.0704  18.2558  18.4275  20.2420
    22.1323  34.4909

     the Fermi energy is    13.1121 ev

!    total energy              =     -84.27290595 Ry
     Harris-Foulkes estimate   =     -84.27290595 Ry
     estimated scf accuracy    <          4.6E-10 Ry

     The total energy is the sum of the following terms:

     one-electron contribution =      -4.71133995 Ry
     hartree contribution      =      14.64932548 Ry
     xc contribution           =     -22.34949062 Ry
     ewald contribution        =     -71.86118019 Ry
     smearing contrib. (-TS)   =      -0.00022067 Ry

     convergence has been achieved in   6 iterations

     Forces acting on atoms (cartesian axes, Ry/au):

     atom    1 type  1   force =     0.00000000    0.00000000    0.00000000

     Total force =     0.000000     Total SCF correction =     0.000000


     Computing stress (Cartesian axis) and pressure

          total   stress  (Ry/bohr**3)                   (kbar)     P=   40.06
   0.00027235  -0.00000000  -0.00000000         40.06     -0.00     -0.00
  -0.00000000   0.00027235  -0.00000000         -0.00     40.06     -0.00
  -0.00000000  -0.00000000   0.00027235         -0.00     -0.00     40.06


     Writing output data file Ag.save/

     init_run     :      0.32s CPU      0.34s WALL (       1 calls)
     electrons    :      3.99s CPU      4.14s WALL (       1 calls)
     forces       :      0.05s CPU      0.05s WALL (       1 calls)
     stress       :      0.17s CPU      0.18s WALL (       1 calls)

     Called by init_run:
     wfcinit      :      0.15s CPU      0.16s WALL (       1 calls)
     potinit      :      0.01s CPU      0.01s WALL (       1 calls)
     hinit0       :      0.15s CPU      0.16s WALL (       1 calls)

     Called by electrons:
     c_bands      :      3.33s CPU      3.45s WALL (       7 calls)
     sum_band     :      0.60s CPU      0.61s WALL (       7 calls)
     v_of_rho     :      0.03s CPU      0.03s WALL (       7 calls)
     newd         :      0.04s CPU      0.05s WALL (       7 calls)
     mix_rho      :      0.00s CPU      0.00s WALL (       7 calls)

     Called by c_bands:
     init_us_2    :      0.10s CPU      0.11s WALL (     952 calls)
     cegterg      :      3.19s CPU      3.31s WALL (     392 calls)

     Called by sum_band:
     sum_band:bec :      0.00s CPU      0.00s WALL (     392 calls)
     addusdens    :      0.05s CPU      0.05s WALL (       7 calls)

     Called by *egterg:
     h_psi        :      2.54s CPU      2.64s WALL (    1451 calls)
     s_psi        :      0.08s CPU      0.08s WALL (    1451 calls)
     g_psi        :      0.01s CPU      0.01s WALL (    1003 calls)
     cdiaghg      :      0.30s CPU      0.31s WALL (    1339 calls)

     Called by h_psi:
     h_psi:pot    :      2.53s CPU      2.63s WALL (    1451 calls)
     h_psi:calbec :      0.14s CPU      0.14s WALL (    1451 calls)
     vloc_psi     :      2.30s CPU      2.40s WALL (    1451 calls)
     add_vuspsi   :      0.08s CPU      0.08s WALL (    1451 calls)

     General routines
     calbec       :      0.20s CPU      0.20s WALL (    2123 calls)
     fft          :      0.02s CPU      0.02s WALL (     104 calls)
     ffts         :      0.00s CPU      0.00s WALL (       7 calls)
     fftw         :      2.57s CPU      2.67s WALL (   24510 calls)

     Parallel routines
     fft_scatt_xy :      0.21s CPU      0.22s WALL (   24621 calls)
     fft_scatt_yz :      0.64s CPU      0.66s WALL (   24621 calls)

     PWSCF        :     5.45s CPU         5.71s WALL


   This run was terminated on:   0:25:32  27Mar2024            

=------------------------------------------------------------------------------=
   JOB DONE.
=------------------------------------------------------------------------------=
