
     Program PWSCF v.6.3MaX starts on 27Mar2024 at  0:17:56 

     This program is part of the open-source Quantum ESPRESSO suite
     for quantum simulation of materials; please cite
         "P. Giannozzi et al., J. Phys.:Condens. Matter 21 395502 (2009);
         "P. Giannozzi et al., J. Phys.:Condens. Matter 29 465901 (2017);
          URL http://www.quantum-espresso.org", 
     in publications or presentations arising from this work. More details at
     http://www.quantum-espresso.org/quote

     Parallel version (MPI), running on     5 processors

     MPI processes distributed on     1 nodes
     R & G space division:  proc/nbgrp/npool/nimage =       5
     Waiting for input...
     Reading input from standard input

     Current dimensions of program PWSCF are:
     Max number of different atomic species (ntypx) = 10
     Max number of k-points (npk) =  40000
     Max angular momentum in pseudopotentials (lmaxx) =  3

     Subspace diagonalization in iterative solution of the eigenvalue problem:
     a serial algorithm will be used


     Parallelization info
     --------------------
     sticks:   dense  smooth     PW     G-vecs:    dense   smooth      PW
     Min          62      62     21                  765      765     148
     Max          63      63     22                  770      770     151
     Sum         313     313    109                 3839     3839     749



     bravais-lattice index     =            2
     lattice parameter (alat)  =       7.7200  a.u.
     unit-cell volume          =     115.0249 (a.u.)^3
     number of atoms/cell      =            1
     number of atomic types    =            1
     number of electrons       =        11.00
     number of Kohn-Sham states=           10
     kinetic-energy cutoff     =      40.0000  Ry
     charge density cutoff     =     160.0000  Ry
     convergence threshold     =      1.0E-08
     mixing beta               =       0.7000
     number of iterations used =            8  plain     mixing
     Exchange-correlation      = PBE ( 1  4  3  4 0 0)

     celldm(1)=   7.720000  celldm(2)=   0.000000  celldm(3)=   0.000000
     celldm(4)=   0.000000  celldm(5)=   0.000000  celldm(6)=   0.000000

     crystal axes: (cart. coord. in units of alat)
               a(1) = (  -0.500000   0.000000   0.500000 )  
               a(2) = (   0.000000   0.500000   0.500000 )  
               a(3) = (  -0.500000   0.500000   0.000000 )  

     reciprocal axes: (cart. coord. in units 2 pi/alat)
               b(1) = ( -1.000000 -1.000000  1.000000 )  
               b(2) = (  1.000000  1.000000  1.000000 )  
               b(3) = ( -1.000000  1.000000 -1.000000 )  


     PseudoPot. # 1 for Ag read from file:
     /home/lorenzo/pseudos/Ag/Ag.pbe-n-rrkjus_psl.1.0.0.UPF
     MD5 check sum: d841cbfac2b0861aec33b46768a516bf
     Pseudo is Ultrasoft + core correction, Zval = 11.0
     Generated using "atomic" code by A. Dal Corso v.6.2.2
     Using radial grid of 1237 points,  6 beta functions with: 
                l(1) =   0
                l(2) =   0
                l(3) =   1
                l(4) =   1
                l(5) =   2
                l(6) =   2
     Q(r) pseudized with 0 coefficients 


     atomic species   valence    mass     pseudopotential
        Ag            11.00   107.86820     Ag( 1.00)

     48 Sym. Ops., with inversion, found



   Cartesian axes

     site n.     atom                  positions (alat units)
         1           Ag  tau(   1) = (   0.0000000   0.0000000   0.0000000  )

     number of k points=    35  gaussian smearing, width (Ry)=  0.0100
                       cart. coord. in units 2pi/alat
        k(    1) = (   0.0000000   0.0000000   0.0000000), wk =   0.0027435
        k(    2) = (  -0.1111111   0.1111111  -0.1111111), wk =   0.0219479
        k(    3) = (  -0.2222222   0.2222222  -0.2222222), wk =   0.0219479
        k(    4) = (  -0.3333333   0.3333333  -0.3333333), wk =   0.0219479
        k(    5) = (  -0.4444444   0.4444444  -0.4444444), wk =   0.0219479
        k(    6) = (   0.0000000   0.2222222   0.0000000), wk =   0.0164609
        k(    7) = (  -0.1111111   0.3333333  -0.1111111), wk =   0.0658436
        k(    8) = (  -0.2222222   0.4444444  -0.2222222), wk =   0.0658436
        k(    9) = (  -0.3333333   0.5555556  -0.3333333), wk =   0.0658436
        k(   10) = (   0.5555556  -0.3333333   0.5555556), wk =   0.0658436
        k(   11) = (   0.4444444  -0.2222222   0.4444444), wk =   0.0658436
        k(   12) = (   0.3333333  -0.1111111   0.3333333), wk =   0.0658436
        k(   13) = (   0.2222222  -0.0000000   0.2222222), wk =   0.0329218
        k(   14) = (   0.0000000   0.4444444   0.0000000), wk =   0.0164609
        k(   15) = (  -0.1111111   0.5555556  -0.1111111), wk =   0.0658436
        k(   16) = (  -0.2222222   0.6666667  -0.2222222), wk =   0.0658436
        k(   17) = (   0.6666667  -0.2222222   0.6666667), wk =   0.0658436
        k(   18) = (   0.5555556  -0.1111111   0.5555556), wk =   0.0658436
        k(   19) = (   0.4444444   0.0000000   0.4444444), wk =   0.0329218
        k(   20) = (   0.0000000   0.6666667   0.0000000), wk =   0.0164609
        k(   21) = (  -0.1111111   0.7777778  -0.1111111), wk =   0.0658436
        k(   22) = (   0.7777778  -0.1111111   0.7777778), wk =   0.0658436
        k(   23) = (   0.6666667  -0.0000000   0.6666667), wk =   0.0329218
        k(   24) = (   0.0000000   0.8888889   0.0000000), wk =   0.0164609
        k(   25) = (   0.8888889   0.0000000   0.8888889), wk =   0.0329218
        k(   26) = (  -0.2222222   0.4444444   0.0000000), wk =   0.0658436
        k(   27) = (  -0.3333333   0.5555556  -0.1111111), wk =   0.1316872
        k(   28) = (   0.5555556  -0.3333333   0.7777778), wk =   0.1316872
        k(   29) = (  -0.2222222   0.6666667   0.0000000), wk =   0.0658436
        k(   30) = (   0.6666667  -0.2222222   0.8888889), wk =   0.1316872
        k(   31) = (   0.5555556  -0.1111111   0.7777778), wk =   0.1316872
        k(   32) = (   0.4444444   0.0000000   0.6666667), wk =   0.0658436
        k(   33) = (   0.7777778  -0.1111111   1.0000000), wk =   0.0658436
        k(   34) = (   0.6666667  -0.0000000   0.8888889), wk =   0.0658436
        k(   35) = (   0.5555556  -0.1111111   1.0000000), wk =   0.0658436

     Dense  grid:     3839 G-vectors     FFT dimensions: (  24,  24,  24)

     Estimated max dynamical RAM per process >       4.69 MB

     Estimated total dynamical RAM >      23.46 MB

     Initial potential from superposition of free atoms

     starting charge   10.99960, renormalised to   11.00000
     Starting wfcs are    9 randomized atomic wfcs +    1 random wfcs

     total cpu time spent up to now is        0.9 secs

     Self-consistent Calculation

     iteration #  1     ecut=    40.00 Ry     beta= 0.70
     Davidson diagonalization with overlap
     ethr =  1.00E-02,  avg # of iterations =  4.5

     Threshold (ethr) on eigenvalues was too large:
     Diagonalizing with lowered threshold

     Davidson diagonalization with overlap
     ethr =  2.52E-05,  avg # of iterations =  2.8

     total cpu time spent up to now is        1.4 secs

     total energy              =     -84.26684578 Ry
     Harris-Foulkes estimate   =     -84.26840336 Ry
     estimated scf accuracy    <       0.00305872 Ry

     iteration #  2     ecut=    40.00 Ry     beta= 0.70
     Davidson diagonalization with overlap
     ethr =  2.78E-05,  avg # of iterations =  2.0

     total cpu time spent up to now is        1.6 secs

     total energy              =     -84.26747518 Ry
     Harris-Foulkes estimate   =     -84.26845526 Ry
     estimated scf accuracy    <       0.00179697 Ry

     iteration #  3     ecut=    40.00 Ry     beta= 0.70
     Davidson diagonalization with overlap
     ethr =  1.63E-05,  avg # of iterations =  2.0

     total cpu time spent up to now is        1.9 secs

     total energy              =     -84.26790937 Ry
     Harris-Foulkes estimate   =     -84.26790649 Ry
     estimated scf accuracy    <       0.00003445 Ry

     iteration #  4     ecut=    40.00 Ry     beta= 0.70
     Davidson diagonalization with overlap
     ethr =  3.13E-07,  avg # of iterations =  2.2

     total cpu time spent up to now is        2.1 secs

     total energy              =     -84.26791534 Ry
     Harris-Foulkes estimate   =     -84.26791521 Ry
     estimated scf accuracy    <       0.00000016 Ry

     iteration #  5     ecut=    40.00 Ry     beta= 0.70
     Davidson diagonalization with overlap
     ethr =  1.49E-09,  avg # of iterations =  2.7

     total cpu time spent up to now is        2.4 secs

     total energy              =     -84.26791545 Ry
     Harris-Foulkes estimate   =     -84.26791548 Ry
     estimated scf accuracy    <       0.00000006 Ry

     iteration #  6     ecut=    40.00 Ry     beta= 0.70
     Davidson diagonalization with overlap
     ethr =  5.39E-10,  avg # of iterations =  2.1

     total cpu time spent up to now is        2.6 secs

     End of self-consistent calculation

          k = 0.0000 0.0000 0.0000 (   531 PWs)   bands (ev):

     5.0698   8.0959   8.0959   8.0959   9.1317   9.1317  29.8019  33.0936
    33.0936  33.0936

          k =-0.1111 0.1111-0.1111 (   513 PWs)   bands (ev):

     5.4461   8.0203   8.1944   8.1944   9.1013   9.1013  29.2144  30.8328
    33.0605  33.0605

          k =-0.2222 0.2222-0.2222 (   489 PWs)   bands (ev):

     6.3057   8.1220   8.3062   8.3062   9.1864   9.1864  25.1894  30.3708
    32.7755  32.7755

          k =-0.3333 0.3333-0.3333 (   492 PWs)   bands (ev):

     6.5975   8.2059   8.2059   9.5367   9.5585   9.5585  20.8688  29.5673
    31.9885  31.9885

          k =-0.4444 0.4444-0.4444 (   489 PWs)   bands (ev):

     6.5033   8.0879   8.0879   9.8858   9.8858  11.8446  17.2525  28.9323
    31.2215  31.2215

          k = 0.0000 0.2222 0.0000 (   515 PWs)   bands (ev):

     5.5728   7.9004   8.2834   8.2834   8.9470   9.2175  29.8130  31.4787
    31.4805  31.4805

          k =-0.1111 0.3333-0.1111 (   497 PWs)   bands (ev):

     6.3160   7.7464   8.4040   8.4622   8.9940   9.3390  26.9160  30.0862
    30.2919  32.8173

          k =-0.2222 0.4444-0.2222 (   500 PWs)   bands (ev):

     6.8180   8.1893   8.1956   8.4428   9.6503   9.9487  22.5057  29.4310
    29.5223  31.6625

          k =-0.3333 0.5556-0.3333 (   491 PWs)   bands (ev):

     6.7322   7.9898   8.3092   9.0045   9.9250  11.9492  18.4909  28.4812
    29.3724  30.1924

          k = 0.5556-0.3333 0.5556 (   491 PWs)   bands (ev):

     6.6975   7.9481   8.2414   9.3377   9.8704  13.3180  16.6708  27.6602
    29.7432  30.1527

          k = 0.4444-0.2222 0.4444 (   494 PWs)   bands (ev):

     6.8062   8.0610   8.3064   8.9969   9.4752  11.3233  19.7736  27.3751
    30.3513  31.9841

          k = 0.3333-0.1111 0.3333 (   497 PWs)   bands (ev):

     6.8012   7.9606   8.3576   8.4529   8.9885   9.9181  23.9793  27.6684
    31.8504  34.4903

          k = 0.2222-0.0000 0.2222 (   501 PWs)   bands (ev):

     6.0224   7.8639   8.3456   8.3490   8.9166   9.3063  28.3395  28.3445
    32.4084  34.6796

          k = 0.0000 0.4444 0.0000 (   496 PWs)   bands (ev):

     6.7051   7.4304   8.8059   8.8059   8.8551   9.4392  28.4087  28.4087
    29.4711  29.8561

          k =-0.1111 0.5556-0.1111 (   492 PWs)   bands (ev):

     7.0231   7.3182   8.6110   8.9547   9.6937  10.1504  24.5544  27.2363
    27.8305  30.1570

          k =-0.2222 0.6667-0.2222 (   491 PWs)   bands (ev):

     6.9686   7.5918   8.4883   8.8446   9.9657  12.3919  20.3758  25.8000
    26.9609  29.8279

          k = 0.6667-0.2222 0.6667 (   491 PWs)   bands (ev):

     7.0357   7.7115   8.5459   8.7173   9.8937  15.0839  17.0098  24.2405
    27.7546  29.7019

          k = 0.5556-0.1111 0.5556 (   498 PWs)   bands (ev):

     7.2652   7.8027   8.3988   8.6778   9.4738  13.4844  19.2792  23.3859
    29.5687  30.0525

          k = 0.4444 0.0000 0.4444 (   495 PWs)   bands (ev):

     7.4873   7.6931   8.1997   8.7189   8.9703  11.3629  23.2643  23.4196
    30.9994  32.0852

          k = 0.0000 0.6667 0.0000 (   480 PWs)   bands (ev):

     6.8251   6.9341   9.5104   9.5104   9.6995  10.6804  25.1882  25.6198
    25.6198  29.9220

          k =-0.1111 0.7778-0.1111 (   488 PWs)   bands (ev):

     6.7432   6.8925   9.3923   9.5008   9.9886  12.7886  22.4832  23.0577
    24.9925  29.9491

          k = 0.7778-0.1111 0.7778 (   484 PWs)   bands (ev):

     6.8375   7.2099   8.9216   9.3341   9.9643  15.6719  19.0740  21.1802
    25.5625  29.8465

          k = 0.6667-0.0000 0.6667 (   498 PWs)   bands (ev):

     7.1256   7.7048   8.3254   9.0889   9.6582  16.0376  18.7075  20.4374
    27.2191  29.8537

          k = 0.0000 0.8889 0.0000 (   480 PWs)   bands (ev):

     6.4924   6.6289   9.8743  10.0618  10.0618  13.6892  20.6016  23.9472
    23.9472  29.9696

          k = 0.8889 0.0000 0.8889 (   480 PWs)   bands (ev):

     6.5595   6.7257   9.7478   9.7670  10.0878  15.1475  19.6453  21.9851
    24.1563  29.9729

          k =-0.2222 0.4444 0.0000 (   493 PWs)   bands (ev):

     7.0245   7.5352   8.2603   8.8054   9.0625   9.9586  25.7793  26.0765
    30.5021  32.4551

          k =-0.3333 0.5556-0.1111 (   491 PWs)   bands (ev):

     7.1698   7.9160   8.0280   8.7974   9.4962  11.4923  21.5951  25.4848
    28.4520  32.4300

          k = 0.5556-0.3333 0.7778 (   490 PWs)   bands (ev):

     7.0534   7.7442   8.5105   8.6952   9.8275  13.8629  17.7898  25.7513
    26.7956  31.6211

          k =-0.2222 0.6667 0.0000 (   488 PWs)   bands (ev):

     7.1227   7.1281   8.5846   9.5022   9.5674  11.8104  23.7036  23.8689
    25.5128  31.9752

          k = 0.6667-0.2222 0.8889 (   492 PWs)   bands (ev):

     7.0964   7.3887   8.3813   9.2501   9.8952  14.3292  19.8717  23.4174
    24.0293  32.1198

          k = 0.5556-0.1111 0.7778 (   489 PWs)   bands (ev):

     7.2828   7.5980   8.1723   9.0227   9.8471  16.3466  17.6477  22.0982
    24.9248  32.3258

          k = 0.4444 0.0000 0.6667 (   493 PWs)   bands (ev):

     7.6184   7.6651   7.7971   9.0788   9.5078  13.6537  21.1588  21.6034
    26.5223  33.1096

          k = 0.7778-0.1111 1.0000 (   488 PWs)   bands (ev):

     6.7560   6.8699   9.2076   9.6782  10.0602  14.8110  20.7508  22.4424
    22.6429  31.7163

          k = 0.6667-0.0000 0.8889 (   489 PWs)   bands (ev):

     6.9550   7.2335   8.6700   9.3480  10.0541  17.0941  19.1603  20.0567
    23.3721  32.1112

          k = 0.5556-0.1111 1.0000 (   491 PWs)   bands (ev):

     7.2243   7.5782   8.0344   9.1847  10.0566  16.9105  19.7456  20.6254
    21.9816  35.2943

     the Fermi energy is    13.1700 ev

!    total energy              =     -84.26791546 Ry
     Harris-Foulkes estimate   =     -84.26791546 Ry
     estimated scf accuracy    <          8.4E-10 Ry

     The total energy is the sum of the following terms:

     one-electron contribution =      -4.70968405 Ry
     hartree contribution      =      14.65262217 Ry
     xc contribution           =     -22.34961547 Ry
     ewald contribution        =     -71.86118024 Ry
     smearing contrib. (-TS)   =      -0.00005786 Ry

     convergence has been achieved in   6 iterations

     Forces acting on atoms (cartesian axes, Ry/au):

     atom    1 type  1   force =     0.00000000    0.00000000    0.00000000

     Total force =     0.000000     Total SCF correction =     0.000000


     Computing stress (Cartesian axis) and pressure

          total   stress  (Ry/bohr**3)                   (kbar)     P=   43.42
   0.00029517   0.00000000   0.00000000         43.42      0.00      0.00
   0.00000000   0.00029517  -0.00000000          0.00     43.42     -0.00
   0.00000000  -0.00000000   0.00029517          0.00     -0.00     43.42


     Writing output data file Ag.save/

     init_run     :      0.19s CPU      0.20s WALL (       1 calls)
     electrons    :      1.54s CPU      1.66s WALL (       1 calls)
     forces       :      0.03s CPU      0.03s WALL (       1 calls)
     stress       :      0.08s CPU      0.08s WALL (       1 calls)

     Called by init_run:
     wfcinit      :      0.06s CPU      0.07s WALL (       1 calls)
     potinit      :      0.01s CPU      0.01s WALL (       1 calls)
     hinit0       :      0.12s CPU      0.12s WALL (       1 calls)

     Called by electrons:
     c_bands      :      1.24s CPU      1.34s WALL (       7 calls)
     sum_band     :      0.24s CPU      0.26s WALL (       7 calls)
     v_of_rho     :      0.02s CPU      0.02s WALL (       7 calls)
     newd         :      0.03s CPU      0.03s WALL (       7 calls)
     mix_rho      :      0.01s CPU      0.01s WALL (       7 calls)

     Called by c_bands:
     init_us_2    :      0.04s CPU      0.04s WALL (     595 calls)
     cegterg      :      1.18s CPU      1.28s WALL (     245 calls)

     Called by sum_band:
     sum_band:bec :      0.00s CPU      0.00s WALL (     245 calls)
     addusdens    :      0.03s CPU      0.03s WALL (       7 calls)

     Called by *egterg:
     h_psi        :      0.90s CPU      0.97s WALL (     922 calls)
     s_psi        :      0.03s CPU      0.03s WALL (     922 calls)
     g_psi        :      0.00s CPU      0.00s WALL (     642 calls)
     cdiaghg      :      0.16s CPU      0.17s WALL (     852 calls)

     Called by h_psi:
     h_psi:pot    :      0.89s CPU      0.97s WALL (     922 calls)
     h_psi:calbec :      0.04s CPU      0.05s WALL (     922 calls)
     vloc_psi     :      0.82s CPU      0.89s WALL (     922 calls)
     add_vuspsi   :      0.03s CPU      0.03s WALL (     922 calls)

     General routines
     calbec       :      0.07s CPU      0.08s WALL (    1342 calls)
     fft          :      0.02s CPU      0.02s WALL (     104 calls)
     ffts         :      0.00s CPU      0.00s WALL (       7 calls)
     fftw         :      0.92s CPU      0.99s WALL (   15458 calls)

     Parallel routines
     fft_scatt_xy :      0.09s CPU      0.09s WALL (   15569 calls)
     fft_scatt_yz :      0.28s CPU      0.30s WALL (   15569 calls)

     PWSCF        :     2.59s CPU         2.77s WALL


   This run was terminated on:   0:17:59  27Mar2024            

=------------------------------------------------------------------------------=
   JOB DONE.
=------------------------------------------------------------------------------=
