
     Program PWSCF v.6.3MaX starts on 27Mar2024 at  0:13:47 

     This program is part of the open-source Quantum ESPRESSO suite
     for quantum simulation of materials; please cite
         "P. Giannozzi et al., J. Phys.:Condens. Matter 21 395502 (2009);
         "P. Giannozzi et al., J. Phys.:Condens. Matter 29 465901 (2017);
          URL http://www.quantum-espresso.org", 
     in publications or presentations arising from this work. More details at
     http://www.quantum-espresso.org/quote

     Parallel version (MPI), running on     5 processors

     MPI processes distributed on     1 nodes
     R & G space division:  proc/nbgrp/npool/nimage =       5
     Waiting for input...
     Reading input from standard input

     Current dimensions of program PWSCF are:
     Max number of different atomic species (ntypx) = 10
     Max number of k-points (npk) =  40000
     Max angular momentum in pseudopotentials (lmaxx) =  3

     Subspace diagonalization in iterative solution of the eigenvalue problem:
     a serial algorithm will be used


     Parallelization info
     --------------------
     sticks:   dense  smooth     PW     G-vecs:    dense   smooth      PW
     Min          50      50     17                  527      527     107
     Max          51      51     17                  528      528     108
     Sum         253     253     85                 2637     2637     537



     bravais-lattice index     =            2
     lattice parameter (alat)  =       7.7200  a.u.
     unit-cell volume          =     115.0249 (a.u.)^3
     number of atoms/cell      =            1
     number of atomic types    =            1
     number of electrons       =        11.00
     number of Kohn-Sham states=           10
     kinetic-energy cutoff     =      30.0000  Ry
     charge density cutoff     =     120.0000  Ry
     convergence threshold     =      1.0E-08
     mixing beta               =       0.7000
     number of iterations used =            8  plain     mixing
     Exchange-correlation      = PBE ( 1  4  3  4 0 0)

     celldm(1)=   7.720000  celldm(2)=   0.000000  celldm(3)=   0.000000
     celldm(4)=   0.000000  celldm(5)=   0.000000  celldm(6)=   0.000000

     crystal axes: (cart. coord. in units of alat)
               a(1) = (  -0.500000   0.000000   0.500000 )  
               a(2) = (   0.000000   0.500000   0.500000 )  
               a(3) = (  -0.500000   0.500000   0.000000 )  

     reciprocal axes: (cart. coord. in units 2 pi/alat)
               b(1) = ( -1.000000 -1.000000  1.000000 )  
               b(2) = (  1.000000  1.000000  1.000000 )  
               b(3) = ( -1.000000  1.000000 -1.000000 )  


     PseudoPot. # 1 for Ag read from file:
     /home/lorenzo/pseudos/Ag/Ag.pbe-n-rrkjus_psl.1.0.0.UPF
     MD5 check sum: d841cbfac2b0861aec33b46768a516bf
     Pseudo is Ultrasoft + core correction, Zval = 11.0
     Generated using "atomic" code by A. Dal Corso v.6.2.2
     Using radial grid of 1237 points,  6 beta functions with: 
                l(1) =   0
                l(2) =   0
                l(3) =   1
                l(4) =   1
                l(5) =   2
                l(6) =   2
     Q(r) pseudized with 0 coefficients 


     atomic species   valence    mass     pseudopotential
        Ag            11.00   107.86820     Ag( 1.00)

     48 Sym. Ops., with inversion, found



   Cartesian axes

     site n.     atom                  positions (alat units)
         1           Ag  tau(   1) = (   0.0000000   0.0000000   0.0000000  )

     number of k points=    35  gaussian smearing, width (Ry)=  0.0100
                       cart. coord. in units 2pi/alat
        k(    1) = (   0.0000000   0.0000000   0.0000000), wk =   0.0027435
        k(    2) = (  -0.1111111   0.1111111  -0.1111111), wk =   0.0219479
        k(    3) = (  -0.2222222   0.2222222  -0.2222222), wk =   0.0219479
        k(    4) = (  -0.3333333   0.3333333  -0.3333333), wk =   0.0219479
        k(    5) = (  -0.4444444   0.4444444  -0.4444444), wk =   0.0219479
        k(    6) = (   0.0000000   0.2222222   0.0000000), wk =   0.0164609
        k(    7) = (  -0.1111111   0.3333333  -0.1111111), wk =   0.0658436
        k(    8) = (  -0.2222222   0.4444444  -0.2222222), wk =   0.0658436
        k(    9) = (  -0.3333333   0.5555556  -0.3333333), wk =   0.0658436
        k(   10) = (   0.5555556  -0.3333333   0.5555556), wk =   0.0658436
        k(   11) = (   0.4444444  -0.2222222   0.4444444), wk =   0.0658436
        k(   12) = (   0.3333333  -0.1111111   0.3333333), wk =   0.0658436
        k(   13) = (   0.2222222  -0.0000000   0.2222222), wk =   0.0329218
        k(   14) = (   0.0000000   0.4444444   0.0000000), wk =   0.0164609
        k(   15) = (  -0.1111111   0.5555556  -0.1111111), wk =   0.0658436
        k(   16) = (  -0.2222222   0.6666667  -0.2222222), wk =   0.0658436
        k(   17) = (   0.6666667  -0.2222222   0.6666667), wk =   0.0658436
        k(   18) = (   0.5555556  -0.1111111   0.5555556), wk =   0.0658436
        k(   19) = (   0.4444444   0.0000000   0.4444444), wk =   0.0329218
        k(   20) = (   0.0000000   0.6666667   0.0000000), wk =   0.0164609
        k(   21) = (  -0.1111111   0.7777778  -0.1111111), wk =   0.0658436
        k(   22) = (   0.7777778  -0.1111111   0.7777778), wk =   0.0658436
        k(   23) = (   0.6666667  -0.0000000   0.6666667), wk =   0.0329218
        k(   24) = (   0.0000000   0.8888889   0.0000000), wk =   0.0164609
        k(   25) = (   0.8888889   0.0000000   0.8888889), wk =   0.0329218
        k(   26) = (  -0.2222222   0.4444444   0.0000000), wk =   0.0658436
        k(   27) = (  -0.3333333   0.5555556  -0.1111111), wk =   0.1316872
        k(   28) = (   0.5555556  -0.3333333   0.7777778), wk =   0.1316872
        k(   29) = (  -0.2222222   0.6666667   0.0000000), wk =   0.0658436
        k(   30) = (   0.6666667  -0.2222222   0.8888889), wk =   0.1316872
        k(   31) = (   0.5555556  -0.1111111   0.7777778), wk =   0.1316872
        k(   32) = (   0.4444444   0.0000000   0.6666667), wk =   0.0658436
        k(   33) = (   0.7777778  -0.1111111   1.0000000), wk =   0.0658436
        k(   34) = (   0.6666667  -0.0000000   0.8888889), wk =   0.0658436
        k(   35) = (   0.5555556  -0.1111111   1.0000000), wk =   0.0658436

     Dense  grid:     2637 G-vectors     FFT dimensions: (  20,  20,  20)

     Estimated max dynamical RAM per process >       3.39 MB

     Estimated total dynamical RAM >      16.96 MB

     Initial potential from superposition of free atoms

     starting charge   10.99960, renormalised to   11.00000
     Starting wfcs are    9 randomized atomic wfcs +    1 random wfcs

     total cpu time spent up to now is        0.9 secs

     Self-consistent Calculation

     iteration #  1     ecut=    30.00 Ry     beta= 0.70
     Davidson diagonalization with overlap
     ethr =  1.00E-02,  avg # of iterations =  4.5

     Threshold (ethr) on eigenvalues was too large:
     Diagonalizing with lowered threshold

     Davidson diagonalization with overlap
     ethr =  9.84E-05,  avg # of iterations =  1.6

     total cpu time spent up to now is        1.3 secs

     total energy              =     -84.17203592 Ry
     Harris-Foulkes estimate   =     -84.17873270 Ry
     estimated scf accuracy    <       0.01150198 Ry

     iteration #  2     ecut=    30.00 Ry     beta= 0.70
     Davidson diagonalization with overlap
     ethr =  1.05E-04,  avg # of iterations =  2.1

     total cpu time spent up to now is        1.5 secs

     total energy              =     -84.17547879 Ry
     Harris-Foulkes estimate   =     -84.17971553 Ry
     estimated scf accuracy    <       0.00832664 Ry

     iteration #  3     ecut=    30.00 Ry     beta= 0.70
     Davidson diagonalization with overlap
     ethr =  7.57E-05,  avg # of iterations =  1.8

     total cpu time spent up to now is        1.6 secs

     total energy              =     -84.17723299 Ry
     Harris-Foulkes estimate   =     -84.17715687 Ry
     estimated scf accuracy    <       0.00002580 Ry

     iteration #  4     ecut=    30.00 Ry     beta= 0.70
     Davidson diagonalization with overlap
     ethr =  2.35E-07,  avg # of iterations =  3.1

     total cpu time spent up to now is        1.8 secs

     total energy              =     -84.17726102 Ry
     Harris-Foulkes estimate   =     -84.17726105 Ry
     estimated scf accuracy    <       0.00000240 Ry

     iteration #  5     ecut=    30.00 Ry     beta= 0.70
     Davidson diagonalization with overlap
     ethr =  2.19E-08,  avg # of iterations =  1.0

     total cpu time spent up to now is        2.0 secs

     total energy              =     -84.17726070 Ry
     Harris-Foulkes estimate   =     -84.17726104 Ry
     estimated scf accuracy    <       0.00000201 Ry

     iteration #  6     ecut=    30.00 Ry     beta= 0.70
     Davidson diagonalization with overlap
     ethr =  1.83E-08,  avg # of iterations =  1.2

     total cpu time spent up to now is        2.1 secs

     total energy              =     -84.17726096 Ry
     Harris-Foulkes estimate   =     -84.17726097 Ry
     estimated scf accuracy    <       0.00000004 Ry

     iteration #  7     ecut=    30.00 Ry     beta= 0.70
     Davidson diagonalization with overlap
     ethr =  3.68E-10,  avg # of iterations =  1.8

     total cpu time spent up to now is        2.2 secs

     total energy              =     -84.17726096 Ry
     Harris-Foulkes estimate   =     -84.17726096 Ry
     estimated scf accuracy    <       0.00000001 Ry

     iteration #  8     ecut=    30.00 Ry     beta= 0.70
     Davidson diagonalization with overlap
     ethr =  1.15E-10,  avg # of iterations =  1.2

     total cpu time spent up to now is        2.3 secs

     End of self-consistent calculation

          k = 0.0000 0.0000 0.0000 (   331 PWs)   bands (ev):

     5.0633   7.9953   7.9953   7.9953   9.0178   9.0178  29.8228  33.0803
    33.0803  33.0803

          k =-0.1111 0.1111-0.1111 (   319 PWs)   bands (ev):

     5.4386   7.9772   8.1163   8.1163   9.0356   9.0356  29.2335  30.8372
    33.0478  33.0478

          k =-0.2222 0.2222-0.2222 (   314 PWs)   bands (ev):

     6.2878   8.0713   8.2479   8.2479   9.1592   9.1592  25.1810  30.3960
    32.7651  32.7651

          k =-0.3333 0.3333-0.3333 (   308 PWs)   bands (ev):

     6.5625   8.1679   8.1679   9.5132   9.5860   9.5860  20.8548  29.5926
    31.9618  31.9618

          k =-0.4444 0.4444-0.4444 (   320 PWs)   bands (ev):

     6.4824   8.0311   8.0311   9.8346   9.8346  11.8301  17.2463  28.9555
    31.1774  31.1774

          k = 0.0000 0.2222 0.0000 (   327 PWs)   bands (ev):

     5.5650   7.8060   8.2005   8.2005   8.8724   9.1079  29.8335  31.4640
    31.4640  31.4868

          k =-0.1111 0.3333-0.1111 (   317 PWs)   bands (ev):

     6.3033   7.6851   8.3463   8.4073   8.9411   9.2876  26.9139  30.1132
    30.2808  32.8368

          k =-0.2222 0.4444-0.2222 (   324 PWs)   bands (ev):

     6.7715   8.1182   8.1516   8.3612   9.5941   9.9000  22.4860  29.4578
    29.4942  31.6441

          k =-0.3333 0.5556-0.3333 (   320 PWs)   bands (ev):

     6.6891   7.9273   8.2513   8.9903   9.8729  11.9276  18.4717  28.5013
    29.3438  30.1747

          k = 0.5556-0.3333 0.5556 (   324 PWs)   bands (ev):

     6.6611   7.8775   8.1886   9.2882   9.7996  13.2960  16.6512  27.6602
    29.7343  30.1216

          k = 0.4444-0.2222 0.4444 (   317 PWs)   bands (ev):

     6.7638   8.0119   8.2480   8.9591   9.4783  11.2906  19.7549  27.3778
    30.3485  31.9600

          k = 0.3333-0.1111 0.3333 (   315 PWs)   bands (ev):

     6.7755   7.9172   8.3033   8.4003   8.9610   9.8902  23.9693  27.6713
    31.8511  34.5022

          k = 0.2222-0.0000 0.2222 (   317 PWs)   bands (ev):

     6.0126   7.8182   8.2640   8.2899   8.8678   9.2449  28.3385  28.3588
    32.4061  34.6857

          k = 0.0000 0.4444 0.0000 (   311 PWs)   bands (ev):

     6.6878   7.3766   8.7909   8.7909   8.8169   9.3968  28.3999  28.3999
    29.5146  29.9021

          k =-0.1111 0.5556-0.1111 (   320 PWs)   bands (ev):

     6.9787   7.2588   8.5661   8.9125   9.6253  10.1021  24.5396  27.2156
    27.8419  30.1685

          k =-0.2222 0.6667-0.2222 (   318 PWs)   bands (ev):

     6.9191   7.5515   8.4433   8.8141   9.9143  12.3639  20.3590  25.7992
    26.9384  29.8464

          k = 0.6667-0.2222 0.6667 (   320 PWs)   bands (ev):

     6.9915   7.6723   8.5129   8.6673   9.8375  15.0732  16.9897  24.2328
    27.7291  29.7196

          k = 0.5556-0.1111 0.5556 (   324 PWs)   bands (ev):

     7.2056   7.7452   8.3585   8.6152   9.4271  13.4545  19.2584  23.3705
    29.5443  30.0634

          k = 0.4444 0.0000 0.4444 (   319 PWs)   bands (ev):

     7.4397   7.6534   8.1437   8.6958   8.9124  11.3121  23.2436  23.4195
    31.0080  32.0853

          k = 0.0000 0.6667 0.0000 (   323 PWs)   bands (ev):

     6.7710   6.8680   9.4449   9.4449   9.6309  10.6487  25.1744  25.5914
    25.5914  29.9654

          k =-0.1111 0.7778-0.1111 (   324 PWs)   bands (ev):

     6.6905   6.8341   9.3346   9.4377   9.9100  12.7624  22.4504  23.0504
    24.9628  29.9759

          k = 0.7778-0.1111 0.7778 (   317 PWs)   bands (ev):

     6.7944   7.1757   8.9066   9.2829   9.9362  15.6660  19.0511  21.1743
    25.5338  29.8819

          k = 0.6667-0.0000 0.6667 (   323 PWs)   bands (ev):

     7.0663   7.6721   8.2737   9.0408   9.6030  16.0230  18.6867  20.4153
    27.1949  29.8776

          k = 0.0000 0.8889 0.0000 (   322 PWs)   bands (ev):

     6.4451   6.5617   9.8127  10.0166  10.0166  13.6647  20.5820  23.9163
    23.9163  30.0138

          k = 0.8889 0.0000 0.8889 (   318 PWs)   bands (ev):

     6.5216   6.6719   9.7115   9.7162  10.0769  15.1259  19.6349  21.9665
    24.1253  30.0047

          k =-0.2222 0.4444 0.0000 (   319 PWs)   bands (ev):

     7.0006   7.4731   8.2139   8.7602   9.0052   9.8947  25.7657  26.0777
    30.5190  32.4716

          k =-0.3333 0.5556-0.1111 (   318 PWs)   bands (ev):

     7.1246   7.8685   7.9762   8.7573   9.4676  11.4511  21.5787  25.4739
    28.4573  32.4256

          k = 0.5556-0.3333 0.7778 (   320 PWs)   bands (ev):

     7.0137   7.6914   8.4776   8.6503   9.7728  13.8444  17.7726  25.7421
    26.7903  31.6108

          k =-0.2222 0.6667 0.0000 (   324 PWs)   bands (ev):

     7.0593   7.0703   8.5279   9.4350   9.5082  11.7725  23.6764  23.8478
    25.5095  32.0047

          k = 0.6667-0.2222 0.8889 (   324 PWs)   bands (ev):

     7.0449   7.3427   8.3361   9.1901   9.8218  14.3067  19.8481  23.3958
    24.0253  32.1350

          k = 0.5556-0.1111 0.7778 (   314 PWs)   bands (ev):

     7.2426   7.5844   8.1513   8.9901   9.8250  16.3431  17.6386  22.0869
    24.9187  32.3386

          k = 0.4444 0.0000 0.6667 (   320 PWs)   bands (ev):

     7.5606   7.6244   7.7553   9.0444   9.4637  13.6287  21.1474  21.5811
    26.5191  33.1046

          k = 0.7778-0.1111 1.0000 (   322 PWs)   bands (ev):

     6.7143   6.8090   9.1655   9.6306  10.0001  14.7933  20.7276  22.4171
    22.6286  31.7609

          k = 0.6667-0.0000 0.8889 (   319 PWs)   bands (ev):

     6.9045   7.1975   8.6370   9.3102  10.0288  17.0761  19.1345  20.0508
    23.3559  32.1398

          k = 0.5556-0.1111 1.0000 (   317 PWs)   bands (ev):

     7.1810   7.5461   8.0044   9.1510  10.0312  16.8979  19.7326  20.5968
    21.9841  35.3466

     the Fermi energy is    13.1478 ev

!    total energy              =     -84.17726096 Ry
     Harris-Foulkes estimate   =     -84.17726096 Ry
     estimated scf accuracy    <          5.8E-10 Ry

     The total energy is the sum of the following terms:

     one-electron contribution =      -4.51440551 Ry
     hartree contribution      =      14.52481506 Ry
     xc contribution           =     -22.32643231 Ry
     ewald contribution        =     -71.86118020 Ry
     smearing contrib. (-TS)   =      -0.00005799 Ry

     convergence has been achieved in   8 iterations

     Forces acting on atoms (cartesian axes, Ry/au):

     atom    1 type  1   force =     0.00000000    0.00000000    0.00000000

     Total force =     0.000000     Total SCF correction =     0.000000


     Computing stress (Cartesian axis) and pressure

          total   stress  (Ry/bohr**3)                   (kbar)     P= -805.58
  -0.00547623  -0.00000000   0.00000000       -805.58     -0.00      0.00
  -0.00000000  -0.00547623  -0.00000000         -0.00   -805.58     -0.00
  -0.00000000  -0.00000000  -0.00547623         -0.00     -0.00   -805.58


     Writing output data file Ag.save/

     init_run     :      0.20s CPU      0.20s WALL (       1 calls)
     electrons    :      1.26s CPU      1.41s WALL (       1 calls)
     forces       :      0.02s CPU      0.02s WALL (       1 calls)
     stress       :      0.05s CPU      0.05s WALL (       1 calls)

     Called by init_run:
     wfcinit      :      0.04s CPU      0.05s WALL (       1 calls)
     potinit      :      0.01s CPU      0.01s WALL (       1 calls)
     hinit0       :      0.14s CPU      0.14s WALL (       1 calls)

     Called by electrons:
     c_bands      :      1.03s CPU      1.16s WALL (       9 calls)
     sum_band     :      0.20s CPU      0.22s WALL (       9 calls)
     v_of_rho     :      0.02s CPU      0.02s WALL (       9 calls)
     newd         :      0.02s CPU      0.02s WALL (       9 calls)
     mix_rho      :      0.00s CPU      0.00s WALL (       9 calls)

     Called by c_bands:
     init_us_2    :      0.03s CPU      0.03s WALL (     735 calls)
     cegterg      :      0.97s CPU      1.10s WALL (     315 calls)

     Called by sum_band:
     sum_band:bec :      0.00s CPU      0.00s WALL (     315 calls)
     addusdens    :      0.02s CPU      0.02s WALL (       9 calls)

     Called by *egterg:
     h_psi        :      0.72s CPU      0.81s WALL (     990 calls)
     s_psi        :      0.02s CPU      0.03s WALL (     990 calls)
     g_psi        :      0.00s CPU      0.00s WALL (     640 calls)
     cdiaghg      :      0.15s CPU      0.17s WALL (     920 calls)

     Called by h_psi:
     h_psi:pot    :      0.71s CPU      0.80s WALL (     990 calls)
     h_psi:calbec :      0.04s CPU      0.04s WALL (     990 calls)
     vloc_psi     :      0.65s CPU      0.73s WALL (     990 calls)
     add_vuspsi   :      0.02s CPU      0.03s WALL (     990 calls)

     General routines
     calbec       :      0.05s CPU      0.06s WALL (    1480 calls)
     fft          :      0.01s CPU      0.01s WALL (     126 calls)
     ffts         :      0.00s CPU      0.00s WALL (       9 calls)
     fftw         :      0.73s CPU      0.81s WALL (   18456 calls)

     Parallel routines
     fft_scatt_xy :      0.07s CPU      0.07s WALL (   18591 calls)
     fft_scatt_yz :      0.24s CPU      0.26s WALL (   18591 calls)

     PWSCF        :     2.28s CPU         2.48s WALL


   This run was terminated on:   0:13:50  27Mar2024            

=------------------------------------------------------------------------------=
   JOB DONE.
=------------------------------------------------------------------------------=
