
     Program PWSCF v.6.3MaX starts on 27Mar2024 at  0:14:11 

     This program is part of the open-source Quantum ESPRESSO suite
     for quantum simulation of materials; please cite
         "P. Giannozzi et al., J. Phys.:Condens. Matter 21 395502 (2009);
         "P. Giannozzi et al., J. Phys.:Condens. Matter 29 465901 (2017);
          URL http://www.quantum-espresso.org", 
     in publications or presentations arising from this work. More details at
     http://www.quantum-espresso.org/quote

     Parallel version (MPI), running on     5 processors

     MPI processes distributed on     1 nodes
     R & G space division:  proc/nbgrp/npool/nimage =       5
     Waiting for input...
     Reading input from standard input

     Current dimensions of program PWSCF are:
     Max number of different atomic species (ntypx) = 10
     Max number of k-points (npk) =  40000
     Max angular momentum in pseudopotentials (lmaxx) =  3

     Subspace diagonalization in iterative solution of the eigenvalue problem:
     a serial algorithm will be used


     Parallelization info
     --------------------
     sticks:   dense  smooth     PW     G-vecs:    dense   smooth      PW
     Min          58      58     19                  643      643     128
     Max          60      60     20                  643      643     130
     Sum         295     295     97                 3215     3215     645



     bravais-lattice index     =            2
     lattice parameter (alat)  =       7.7200  a.u.
     unit-cell volume          =     115.0249 (a.u.)^3
     number of atoms/cell      =            1
     number of atomic types    =            1
     number of electrons       =        11.00
     number of Kohn-Sham states=           10
     kinetic-energy cutoff     =      35.0000  Ry
     charge density cutoff     =     140.0000  Ry
     convergence threshold     =      1.0E-08
     mixing beta               =       0.7000
     number of iterations used =            8  plain     mixing
     Exchange-correlation      = PBESOL ( 1  4 10  8 0 0)

     celldm(1)=   7.720000  celldm(2)=   0.000000  celldm(3)=   0.000000
     celldm(4)=   0.000000  celldm(5)=   0.000000  celldm(6)=   0.000000

     crystal axes: (cart. coord. in units of alat)
               a(1) = (  -0.500000   0.000000   0.500000 )  
               a(2) = (   0.000000   0.500000   0.500000 )  
               a(3) = (  -0.500000   0.500000   0.000000 )  

     reciprocal axes: (cart. coord. in units 2 pi/alat)
               b(1) = ( -1.000000 -1.000000  1.000000 )  
               b(2) = (  1.000000  1.000000  1.000000 )  
               b(3) = ( -1.000000  1.000000 -1.000000 )  


     PseudoPot. # 1 for Ag read from file:
     /home/lorenzo/pseudos/Ag/Ag.pbesol-n-rrkjus_psl.1.0.0.UPF
     MD5 check sum: 3b43e8aa747a56f565f44d11355b8b45
     Pseudo is Ultrasoft + core correction, Zval = 11.0
     Generated using "atomic" code by A. Dal Corso v.6.2.2
     Using radial grid of 1237 points,  6 beta functions with: 
                l(1) =   0
                l(2) =   0
                l(3) =   1
                l(4) =   1
                l(5) =   2
                l(6) =   2
     Q(r) pseudized with 0 coefficients 


     atomic species   valence    mass     pseudopotential
        Ag            11.00   107.86820     Ag( 1.00)

     48 Sym. Ops., with inversion, found



   Cartesian axes

     site n.     atom                  positions (alat units)
         1           Ag  tau(   1) = (   0.0000000   0.0000000   0.0000000  )

     number of k points=    47  gaussian smearing, width (Ry)=  0.0100
                       cart. coord. in units 2pi/alat
        k(    1) = (   0.0000000   0.0000000   0.0000000), wk =   0.0020000
        k(    2) = (  -0.1000000   0.1000000  -0.1000000), wk =   0.0160000
        k(    3) = (  -0.2000000   0.2000000  -0.2000000), wk =   0.0160000
        k(    4) = (  -0.3000000   0.3000000  -0.3000000), wk =   0.0160000
        k(    5) = (  -0.4000000   0.4000000  -0.4000000), wk =   0.0160000
        k(    6) = (   0.5000000  -0.5000000   0.5000000), wk =   0.0080000
        k(    7) = (   0.0000000   0.2000000   0.0000000), wk =   0.0120000
        k(    8) = (  -0.1000000   0.3000000  -0.1000000), wk =   0.0480000
        k(    9) = (  -0.2000000   0.4000000  -0.2000000), wk =   0.0480000
        k(   10) = (  -0.3000000   0.5000000  -0.3000000), wk =   0.0480000
        k(   11) = (   0.6000000  -0.4000000   0.6000000), wk =   0.0480000
        k(   12) = (   0.5000000  -0.3000000   0.5000000), wk =   0.0480000
        k(   13) = (   0.4000000  -0.2000000   0.4000000), wk =   0.0480000
        k(   14) = (   0.3000000  -0.1000000   0.3000000), wk =   0.0480000
        k(   15) = (   0.2000000   0.0000000   0.2000000), wk =   0.0240000
        k(   16) = (   0.0000000   0.4000000   0.0000000), wk =   0.0120000
        k(   17) = (  -0.1000000   0.5000000  -0.1000000), wk =   0.0480000
        k(   18) = (  -0.2000000   0.6000000  -0.2000000), wk =   0.0480000
        k(   19) = (   0.7000000  -0.3000000   0.7000000), wk =   0.0480000
        k(   20) = (   0.6000000  -0.2000000   0.6000000), wk =   0.0480000
        k(   21) = (   0.5000000  -0.1000000   0.5000000), wk =   0.0480000
        k(   22) = (   0.4000000   0.0000000   0.4000000), wk =   0.0240000
        k(   23) = (   0.0000000   0.6000000   0.0000000), wk =   0.0120000
        k(   24) = (  -0.1000000   0.7000000  -0.1000000), wk =   0.0480000
        k(   25) = (   0.8000000  -0.2000000   0.8000000), wk =   0.0480000
        k(   26) = (   0.7000000  -0.1000000   0.7000000), wk =   0.0480000
        k(   27) = (   0.6000000  -0.0000000   0.6000000), wk =   0.0240000
        k(   28) = (   0.0000000   0.8000000   0.0000000), wk =   0.0120000
        k(   29) = (   0.9000000  -0.1000000   0.9000000), wk =   0.0480000
        k(   30) = (   0.8000000   0.0000000   0.8000000), wk =   0.0240000
        k(   31) = (   0.0000000  -1.0000000   0.0000000), wk =   0.0060000
        k(   32) = (  -0.2000000   0.4000000   0.0000000), wk =   0.0480000
        k(   33) = (  -0.3000000   0.5000000  -0.1000000), wk =   0.0960000
        k(   34) = (   0.6000000  -0.4000000   0.8000000), wk =   0.0960000
        k(   35) = (   0.5000000  -0.3000000   0.7000000), wk =   0.0480000
        k(   36) = (  -0.2000000   0.6000000   0.0000000), wk =   0.0480000
        k(   37) = (   0.7000000  -0.3000000   0.9000000), wk =   0.0960000
        k(   38) = (   0.6000000  -0.2000000   0.8000000), wk =   0.0960000
        k(   39) = (   0.5000000  -0.1000000   0.7000000), wk =   0.0960000
        k(   40) = (   0.4000000   0.0000000   0.6000000), wk =   0.0480000
        k(   41) = (   0.8000000  -0.2000000   1.0000000), wk =   0.0480000
        k(   42) = (   0.7000000  -0.1000000   0.9000000), wk =   0.0960000
        k(   43) = (   0.6000000   0.0000000   0.8000000), wk =   0.0480000
        k(   44) = (  -0.2000000  -1.0000000   0.0000000), wk =   0.0240000
        k(   45) = (   0.6000000  -0.2000000   1.0000000), wk =   0.0480000
        k(   46) = (   0.5000000  -0.1000000   0.9000000), wk =   0.0480000
        k(   47) = (  -0.4000000  -1.0000000   0.0000000), wk =   0.0240000

     Dense  grid:     3215 G-vectors     FFT dimensions: (  24,  24,  24)

     Estimated max dynamical RAM per process >       4.21 MB

     Estimated total dynamical RAM >      21.06 MB

     Initial potential from superposition of free atoms

     starting charge   10.99964, renormalised to   11.00000
     Starting wfcs are    9 randomized atomic wfcs +    1 random wfcs

     total cpu time spent up to now is        1.4 secs

     Self-consistent Calculation

     iteration #  1     ecut=    35.00 Ry     beta= 0.70
     Davidson diagonalization with overlap
     ethr =  1.00E-02,  avg # of iterations =  4.6

     Threshold (ethr) on eigenvalues was too large:
     Diagonalizing with lowered threshold

     Davidson diagonalization with overlap
     ethr =  5.08E-05,  avg # of iterations =  2.1

     total cpu time spent up to now is        2.1 secs

     total energy              =     -84.16188768 Ry
     Harris-Foulkes estimate   =     -84.16568638 Ry
     estimated scf accuracy    <       0.00601232 Ry

     iteration #  2     ecut=    35.00 Ry     beta= 0.70
     Davidson diagonalization with overlap
     ethr =  5.47E-05,  avg # of iterations =  2.0

     total cpu time spent up to now is        2.4 secs

     total energy              =     -84.16341755 Ry
     Harris-Foulkes estimate   =     -84.16576364 Ry
     estimated scf accuracy    <       0.00445437 Ry

     iteration #  3     ecut=    35.00 Ry     beta= 0.70
     Davidson diagonalization with overlap
     ethr =  4.05E-05,  avg # of iterations =  1.9

     total cpu time spent up to now is        2.7 secs

     total energy              =     -84.16438155 Ry
     Harris-Foulkes estimate   =     -84.16436908 Ry
     estimated scf accuracy    <       0.00001867 Ry

     iteration #  4     ecut=    35.00 Ry     beta= 0.70
     Davidson diagonalization with overlap
     ethr =  1.70E-07,  avg # of iterations =  2.9

     total cpu time spent up to now is        3.0 secs

     total energy              =     -84.16439246 Ry
     Harris-Foulkes estimate   =     -84.16439240 Ry
     estimated scf accuracy    <       0.00000081 Ry

     iteration #  5     ecut=    35.00 Ry     beta= 0.70
     Davidson diagonalization with overlap
     ethr =  7.39E-09,  avg # of iterations =  1.9

     total cpu time spent up to now is        3.3 secs

     End of self-consistent calculation

          k = 0.0000 0.0000 0.0000 (   411 PWs)   bands (ev):

     4.8069   7.9206   7.9206   7.9206   8.9657   8.9657  29.5478  32.8309
    32.8309  32.8309

          k =-0.1000 0.1000-0.1000 (   402 PWs)   bands (ev):

     5.1141   7.8619   8.0064   8.0064   8.9427   8.9427  29.1983  30.7449
    32.8104  32.8104

          k =-0.2000 0.2000-0.2000 (   386 PWs)   bands (ev):

     5.8855   7.8556   8.1364   8.1364   8.9925   8.9925  25.8291  30.2188
    32.6183  32.6183

          k =-0.3000 0.3000-0.3000 (   401 PWs)   bands (ev):

     6.3712   8.0824   8.0824   8.7247   9.2717   9.2717  21.8877  29.5823
    32.0022  32.0022

          k =-0.4000 0.4000-0.4000 (   407 PWs)   bands (ev):

     6.3345   7.9565   7.9565   9.6190   9.6190  10.6743  18.2976  28.8722
    31.1903  31.1903

          k = 0.5000-0.5000 0.5000 (   410 PWs)   bands (ev):

     6.2837   7.8978   7.8978   9.7677   9.7677  12.1903  16.2600  28.5944
    30.8253  30.8253

          k = 0.0000 0.2000 0.0000 (   391 PWs)   bands (ev):

     5.2173   7.7605   8.0865   8.0865   8.8218   9.0432  29.5643  31.4376
    31.4976  31.4976

          k =-0.1000 0.3000-0.1000 (   390 PWs)   bands (ev):

     5.8556   7.6192   8.2280   8.2480   8.7810   9.1366  27.3535  29.9491
    30.4568  32.7152

          k =-0.2000 0.4000-0.2000 (   392 PWs)   bands (ev):

     6.5100   7.8466   8.1052   8.2730   9.3556   9.3804  23.3809  29.4753
    29.6934  32.2343

          k =-0.3000 0.5000-0.3000 (   407 PWs)   bands (ev):

     6.5346   7.8975   8.1545   8.6532   9.6751  10.7783  19.5949  28.7158
    29.3206  30.6077

          k = 0.6000-0.4000 0.6000 (   399 PWs)   bands (ev):

     6.4625   7.8001   8.0581   9.1708   9.7832  12.7311  16.6442  27.9980
    29.5895  29.6549

          k = 0.5000-0.3000 0.5000 (   401 PWs)   bands (ev):

     6.4912   7.8358   8.0556   9.1907   9.5826  12.1666  17.4544  27.5516
    29.6511  30.6951

          k = 0.4000-0.2000 0.4000 (   402 PWs)   bands (ev):

     6.5926   7.9601   8.1585   8.5956   9.1662  10.4129  20.8311  27.5604
    30.4994  32.6336

          k = 0.3000-0.1000 0.3000 (   392 PWs)   bands (ev):

     6.3793   7.7196   8.1926   8.2723   8.7899   9.4926  24.7163  27.9550
    31.9033  34.0699

          k = 0.2000 0.0000 0.2000 (   389 PWs)   bands (ev):

     5.5945   7.7324   8.1332   8.1545   8.7991   9.0880  28.5035  28.6671
    32.0177  34.2613

          k = 0.0000 0.4000 0.0000 (   399 PWs)   bands (ev):

     6.2454   7.3571   8.5149   8.5149   8.6126   9.2303  28.7797  28.7797
    29.6146  29.6841

          k =-0.1000 0.5000-0.1000 (   405 PWs)   bands (ev):

     6.7460   7.2103   8.3380   8.6759   9.4317   9.4442  25.1967  27.6349
    28.6553  30.1691

          k =-0.2000 0.6000-0.2000 (   404 PWs)   bands (ev):

     6.7961   7.4746   8.1966   8.6120   9.7216  11.1221  21.3217  26.9073
    27.1354  29.7339

          k = 0.7000-0.3000 0.7000 (   403 PWs)   bands (ev):

     6.7708   7.5738   8.3711   8.4885   9.8106  13.4257  17.8701  25.3515
    27.4332  29.4520

          k = 0.6000-0.2000 0.6000 (   403 PWs)   bands (ev):

     6.8693   7.5930   8.4173   8.4761   9.5851  14.2297  17.0386  24.2874
    28.6000  29.5243

          k = 0.5000-0.1000 0.5000 (   402 PWs)   bands (ev):

     7.0642   7.6913   8.1901   8.4462   9.1383  12.1280  20.2613  23.8549
    30.1242  30.5254

          k = 0.4000 0.0000 0.4000 (   395 PWs)   bands (ev):

     7.0992   7.5033   8.0796   8.5620   8.6680  10.5229  23.8952  24.1951
    31.2722  32.9279

          k = 0.0000 0.6000 0.0000 (   411 PWs)   bands (ev):

     6.7036   6.8914   9.1299   9.1299   9.4633   9.6746  26.1076  26.1076
    26.4691  29.6873

          k =-0.1000 0.7000-0.1000 (   404 PWs)   bands (ev):

     6.6630   6.8094   9.0226   9.1957   9.7323  11.4094  23.2444  24.3422
    25.3091  29.7510

          k = 0.8000-0.2000 0.8000 (   408 PWs)   bands (ev):

     6.6690   7.0272   8.7126   9.0676   9.8502  13.8273  19.8088  22.5533
    25.4188  29.6160

          k = 0.7000-0.1000 0.7000 (   400 PWs)   bands (ev):

     6.8488   7.3825   8.3209   8.9221   9.6524  16.4520  17.0550  21.2206
    26.4699  29.5738

          k = 0.6000-0.0000 0.6000 (   403 PWs)   bands (ev):

     7.1418   7.7677   7.8454   8.7473   9.3005  14.2111  19.7989  20.7529
    28.2796  29.7412

          k = 0.0000 0.8000 0.0000 (   404 PWs)   bands (ev):

     6.4135   6.5385   9.6737   9.7233   9.7233  12.2393  22.0053  24.1686
    24.1686  29.7543

          k = 0.9000-0.1000 0.9000 (   411 PWs)   bands (ev):

     6.3951   6.5454   9.5660   9.5748   9.9109  14.0834  20.2481  22.1640
    23.9785  29.7572

          k = 0.8000 0.0000 0.8000 (   405 PWs)   bands (ev):

     6.5666   6.8756   8.9698   9.3563   9.7993  16.1016  19.1195  19.8058
    24.8124  29.6655

          k = 0.0000-1.0000 0.0000 (   388 PWs)   bands (ev):

     6.2631   6.4159   9.7531   9.9878   9.9878  14.2112  19.3952  23.4470
    23.4470  29.7974

          k =-0.2000 0.4000 0.0000 (   393 PWs)   bands (ev):

     6.5268   7.4315   8.1675   8.5148   8.8225   9.5145  26.3000  26.5812
    31.1042  31.9824

          k =-0.3000 0.5000-0.1000 (   403 PWs)   bands (ev):

     6.9168   7.6739   7.9166   8.5549   9.1855  10.5531  22.4770  25.9155
    29.2647  32.2580

          k = 0.6000-0.4000 0.8000 (   403 PWs)   bands (ev):

     6.8080   7.6899   8.2493   8.5040   9.5815  12.3769  18.8297  25.8882
    27.6616  31.3725

          k = 0.5000-0.3000 0.7000 (   404 PWs)   bands (ev):

     6.7557   7.6003   8.3215   8.6444   9.7097  14.1505  16.4553  26.4341
    26.5381  30.9712

          k =-0.2000 0.6000 0.0000 (   407 PWs)   bands (ev):

     6.9652   7.0294   8.3047   9.1174   9.3263  10.7179  24.2872  24.5025
    26.7135  31.5429

          k = 0.7000-0.3000 0.9000 (   405 PWs)   bands (ev):

     6.9174   7.2531   8.1526   9.0248   9.6360  12.7061  20.6997  24.1764
    24.8768  31.6219

          k = 0.6000-0.2000 0.8000 (   401 PWs)   bands (ev):

     6.9934   7.3946   8.1252   8.8060   9.7346  15.2372  17.4569  23.3223
    24.7951  31.5600

          k = 0.5000-0.1000 0.7000 (   403 PWs)   bands (ev):

     7.2154   7.4306   7.9613   8.7641   9.5262  14.4491  18.5716  22.3884
    25.9502  32.0235

          k = 0.4000 0.0000 0.6000 (   406 PWs)   bands (ev):

     7.4023   7.5166   7.6245   8.8896   9.1358  12.2448  22.0610  22.1397
    27.5110  33.0683

          k = 0.8000-0.2000 1.0000 (   402 PWs)   bands (ev):

     6.6389   6.7206   8.9271   9.5694   9.7247  13.1672  22.0622  22.8598
    23.0288  31.2671

          k = 0.7000-0.1000 0.9000 (   402 PWs)   bands (ev):

     6.7281   6.9677   8.5984   9.2654   9.8690  15.5836  19.5915  20.7741
    23.2904  31.5126

          k = 0.6000 0.0000 0.8000 (   401 PWs)   bands (ev):

     6.9627   7.3754   8.0931   8.9989   9.7196  16.8601  18.0723  20.0527
    24.4033  31.7271

          k =-0.2000-1.0000 0.0000 (   404 PWs)   bands (ev):

     6.4722   6.6015   9.2960   9.5315   9.9869  15.2392  19.4419  22.2208
    22.3741  31.1766

          k = 0.6000-0.2000 1.0000 (   408 PWs)   bands (ev):

     7.1096   7.2580   7.9174   9.1010   9.7117  14.8754  20.4720  20.9940
    23.1658  34.3777

          k = 0.5000-0.1000 0.9000 (   400 PWs)   bands (ev):

     7.0993   7.4974   7.7452   8.9586   9.8595  17.4474  17.6284  21.2733
    22.1510  34.2903

          k =-0.4000-1.0000 0.0000 (   400 PWs)   bands (ev):

     6.9173   7.1970   8.1477   9.0795   9.9858  17.3822  19.6201  19.8571
    21.0775  34.1981

     the Fermi energy is    12.5932 ev

!    total energy              =     -84.16439258 Ry
     Harris-Foulkes estimate   =     -84.16439258 Ry
     estimated scf accuracy    <          7.1E-09 Ry

     The total energy is the sum of the following terms:

     one-electron contribution =      -4.70863860 Ry
     hartree contribution      =      14.54367534 Ry
     xc contribution           =     -22.13804270 Ry
     ewald contribution        =     -71.86118026 Ry
     smearing contrib. (-TS)   =      -0.00020636 Ry

     convergence has been achieved in   5 iterations

     Forces acting on atoms (cartesian axes, Ry/au):

     atom    1 type  1   force =     0.00000000    0.00000000    0.00000000

     Total force =     0.000000     Total SCF correction =     0.000000


     Computing stress (Cartesian axis) and pressure

          total   stress  (Ry/bohr**3)                   (kbar)     P= -181.98
  -0.00123711   0.00000000   0.00000000       -181.98      0.00      0.00
   0.00000000  -0.00123711   0.00000000          0.00   -181.98      0.00
  -0.00000000  -0.00000000  -0.00123711         -0.00     -0.00   -181.98


     Writing output data file Ag.save/

     init_run     :      0.25s CPU      0.26s WALL (       1 calls)
     electrons    :      1.76s CPU      1.90s WALL (       1 calls)
     forces       :      0.04s CPU      0.04s WALL (       1 calls)
     stress       :      0.12s CPU      0.12s WALL (       1 calls)

     Called by init_run:
     wfcinit      :      0.10s CPU      0.11s WALL (       1 calls)
     potinit      :      0.01s CPU      0.01s WALL (       1 calls)
     hinit0       :      0.14s CPU      0.14s WALL (       1 calls)

     Called by electrons:
     c_bands      :      1.45s CPU      1.57s WALL (       6 calls)
     sum_band     :      0.28s CPU      0.29s WALL (       6 calls)
     v_of_rho     :      0.02s CPU      0.02s WALL (       6 calls)
     newd         :      0.02s CPU      0.02s WALL (       6 calls)
     mix_rho      :      0.00s CPU      0.00s WALL (       6 calls)

     Called by c_bands:
     init_us_2    :      0.04s CPU      0.04s WALL (     705 calls)
     cegterg      :      1.40s CPU      1.51s WALL (     282 calls)

     Called by sum_band:
     sum_band:bec :      0.00s CPU      0.00s WALL (     282 calls)
     addusdens    :      0.02s CPU      0.02s WALL (       6 calls)

     Called by *egterg:
     h_psi        :      1.10s CPU      1.19s WALL (    1053 calls)
     s_psi        :      0.03s CPU      0.03s WALL (    1053 calls)
     g_psi        :      0.00s CPU      0.00s WALL (     724 calls)
     cdiaghg      :      0.20s CPU      0.21s WALL (     959 calls)

     Called by h_psi:
     h_psi:pot    :      1.10s CPU      1.18s WALL (    1053 calls)
     h_psi:calbec :      0.05s CPU      0.05s WALL (    1053 calls)
     vloc_psi     :      1.01s CPU      1.09s WALL (    1053 calls)
     add_vuspsi   :      0.03s CPU      0.03s WALL (    1053 calls)

     General routines
     calbec       :      0.09s CPU      0.10s WALL (    1570 calls)
     fft          :      0.01s CPU      0.02s WALL (      93 calls)
     ffts         :      0.00s CPU      0.00s WALL (       6 calls)
     fftw         :      1.14s CPU      1.22s WALL (   17542 calls)

     Parallel routines
     fft_scatt_xy :      0.10s CPU      0.11s WALL (   17641 calls)
     fft_scatt_yz :      0.41s CPU      0.43s WALL (   17641 calls)

     PWSCF        :     3.31s CPU         3.53s WALL


   This run was terminated on:   0:14:14  27Mar2024            

=------------------------------------------------------------------------------=
   JOB DONE.
=------------------------------------------------------------------------------=
