
     Program PWSCF v.6.3MaX starts on 27Mar2024 at  0: 4:38 

     This program is part of the open-source Quantum ESPRESSO suite
     for quantum simulation of materials; please cite
         "P. Giannozzi et al., J. Phys.:Condens. Matter 21 395502 (2009);
         "P. Giannozzi et al., J. Phys.:Condens. Matter 29 465901 (2017);
          URL http://www.quantum-espresso.org", 
     in publications or presentations arising from this work. More details at
     http://www.quantum-espresso.org/quote

     Parallel version (MPI), running on     5 processors

     MPI processes distributed on     1 nodes
     R & G space division:  proc/nbgrp/npool/nimage =       5
     Waiting for input...
     Reading input from standard input

     Current dimensions of program PWSCF are:
     Max number of different atomic species (ntypx) = 10
     Max number of k-points (npk) =  40000
     Max angular momentum in pseudopotentials (lmaxx) =  3
               file Ag.pbe-n-kjpaw_psl.1.0.0.UPF: wavefunction(s)  5S 5P renormalized

     Subspace diagonalization in iterative solution of the eigenvalue problem:
     a serial algorithm will be used


     Parallelization info
     --------------------
     sticks:   dense  smooth     PW     G-vecs:    dense   smooth      PW
     Min          17      17      3                  106      106      11
     Max          17      17      4                  107      107      12
     Sum          85      85     19                  531      531      59



     bravais-lattice index     =            2
     lattice parameter (alat)  =       7.7200  a.u.
     unit-cell volume          =     115.0249 (a.u.)^3
     number of atoms/cell      =            1
     number of atomic types    =            1
     number of electrons       =        11.00
     number of Kohn-Sham states=           10
     kinetic-energy cutoff     =      10.0000  Ry
     charge density cutoff     =      40.0000  Ry
     convergence threshold     =      1.0E-08
     mixing beta               =       0.7000
     number of iterations used =            8  plain     mixing
     Exchange-correlation      = SLA PW PBX PBC ( 1  4  3  4 0 0)

     celldm(1)=   7.720000  celldm(2)=   0.000000  celldm(3)=   0.000000
     celldm(4)=   0.000000  celldm(5)=   0.000000  celldm(6)=   0.000000

     crystal axes: (cart. coord. in units of alat)
               a(1) = (  -0.500000   0.000000   0.500000 )  
               a(2) = (   0.000000   0.500000   0.500000 )  
               a(3) = (  -0.500000   0.500000   0.000000 )  

     reciprocal axes: (cart. coord. in units 2 pi/alat)
               b(1) = ( -1.000000 -1.000000  1.000000 )  
               b(2) = (  1.000000  1.000000  1.000000 )  
               b(3) = ( -1.000000  1.000000 -1.000000 )  


     PseudoPot. # 1 for Ag read from file:
     /home/lorenzo/pseudos/Ag/Ag.pbe-n-kjpaw_psl.1.0.0.UPF
     MD5 check sum: 51099775af2a3182a6a1caffb86952a3
     Pseudo is Projector augmented-wave + core cor, Zval = 11.0
     Generated using "atomic" code by A. Dal Corso v.6.2.2
     Shape of augmentation charge: PSQ
     Using radial grid of 1237 points,  6 beta functions with: 
                l(1) =   0
                l(2) =   0
                l(3) =   1
                l(4) =   1
                l(5) =   2
                l(6) =   2
     Q(r) pseudized with 0 coefficients 


     atomic species   valence    mass     pseudopotential
        Ag            11.00   107.86820     Ag( 1.00)

     48 Sym. Ops., with inversion, found



   Cartesian axes

     site n.     atom                  positions (alat units)
         1           Ag  tau(   1) = (   0.0000000   0.0000000   0.0000000  )

     number of k points=     1  gaussian smearing, width (Ry)=  0.0100
                       cart. coord. in units 2pi/alat
        k(    1) = (   0.0000000   0.0000000   0.0000000), wk =   2.0000000

     Dense  grid:      531 G-vectors     FFT dimensions: (  12,  12,  12)

     Estimated max dynamical RAM per process >       1.03 MB

     Estimated total dynamical RAM >       5.17 MB

     Initial potential from superposition of free atoms
     Check: negative starting charge=   -0.000240

     starting charge   10.99960, renormalised to   11.00000

     negative rho (up, down):  2.404E-04 0.000E+00
     Starting wfcs are    9 randomized atomic wfcs +    1 random wfcs
     Checking if some PAW data can be deallocated... 

     total cpu time spent up to now is        1.0 secs

     Self-consistent Calculation

     iteration #  1     ecut=    10.00 Ry     beta= 0.70
     Davidson diagonalization with overlap
     ethr =  1.00E-02,  avg # of iterations =  5.0

     total cpu time spent up to now is        1.1 secs

     total energy              =    -341.99778968 Ry
     Harris-Foulkes estimate   =    -348.36951716 Ry
     estimated scf accuracy    <       8.49403998 Ry

     iteration #  2     ecut=    10.00 Ry     beta= 0.70
     Davidson diagonalization with overlap
     ethr =  1.00E-02,  avg # of iterations =  3.0

     total cpu time spent up to now is        1.2 secs

     total energy              =    -343.17579661 Ry
     Harris-Foulkes estimate   =    -343.20646681 Ry
     estimated scf accuracy    <       0.18391674 Ry

     iteration #  3     ecut=    10.00 Ry     beta= 0.70
     Davidson diagonalization with overlap
     ethr =  1.67E-03,  avg # of iterations =  1.0

     negative rho (up, down):  1.463E-04 0.000E+00

     total cpu time spent up to now is        1.4 secs

     total energy              =    -343.17845410 Ry
     Harris-Foulkes estimate   =    -343.17956452 Ry
     estimated scf accuracy    <       0.01533931 Ry

     iteration #  4     ecut=    10.00 Ry     beta= 0.70
     Davidson diagonalization with overlap
     ethr =  1.39E-04,  avg # of iterations =  3.0

     negative rho (up, down):  1.482E-04 0.000E+00

     total cpu time spent up to now is        1.5 secs

     total energy              =    -343.17981508 Ry
     Harris-Foulkes estimate   =    -343.17988663 Ry
     estimated scf accuracy    <       0.00025761 Ry

     iteration #  5     ecut=    10.00 Ry     beta= 0.70
     Davidson diagonalization with overlap
     ethr =  2.34E-06,  avg # of iterations =  1.0

     negative rho (up, down):  1.467E-04 0.000E+00

     total cpu time spent up to now is        1.6 secs

     total energy              =    -343.17981997 Ry
     Harris-Foulkes estimate   =    -343.17982304 Ry
     estimated scf accuracy    <       0.00002026 Ry

     iteration #  6     ecut=    10.00 Ry     beta= 0.70
     Davidson diagonalization with overlap
     ethr =  1.84E-07,  avg # of iterations =  3.0

     negative rho (up, down):  1.459E-04 0.000E+00

     total cpu time spent up to now is        1.7 secs

     total energy              =    -343.17982369 Ry
     Harris-Foulkes estimate   =    -343.17982367 Ry
     estimated scf accuracy    <       0.00000013 Ry

     iteration #  7     ecut=    10.00 Ry     beta= 0.70
     Davidson diagonalization with overlap
     ethr =  1.18E-09,  avg # of iterations =  1.0

     negative rho (up, down):  1.444E-04 0.000E+00

     total cpu time spent up to now is        1.8 secs

     total energy              =    -343.17982367 Ry
     Harris-Foulkes estimate   =    -343.17982369 Ry
     estimated scf accuracy    <       0.00000009 Ry

     iteration #  8     ecut=    10.00 Ry     beta= 0.70
     Davidson diagonalization with overlap
     ethr =  7.97E-10,  avg # of iterations =  1.0

     negative rho (up, down):  1.433E-04 0.000E+00

     total cpu time spent up to now is        1.9 secs

     total energy              =    -343.17982367 Ry
     Harris-Foulkes estimate   =    -343.17982367 Ry
     estimated scf accuracy    <       0.00000002 Ry

     iteration #  9     ecut=    10.00 Ry     beta= 0.70
     Davidson diagonalization with overlap
     ethr =  1.74E-10,  avg # of iterations =  2.0

     negative rho (up, down):  1.433E-04 0.000E+00

     total cpu time spent up to now is        2.0 secs

     End of self-consistent calculation

          k = 0.0000 0.0000 0.0000 (    59 PWs)   bands (ev):

     3.7478  12.0299  12.0299  12.0299  15.6686  15.6686  30.2021  30.2021
    30.2021  33.9716

     the Fermi energy is    15.7335 ev

!    total energy              =    -343.17982367 Ry
     Harris-Foulkes estimate   =    -343.17982367 Ry
     estimated scf accuracy    <          1.2E-10 Ry

     total all-electron energy =    -10620.145877 Ry

     The total energy is the sum of the following terms:

     one-electron contribution =      17.13984079 Ry
     hartree contribution      =       4.58362004 Ry
     xc contribution           =     -19.36348782 Ry
     ewald contribution        =     -71.86118018 Ry
     one-center paw contrib.   =    -273.66962842 Ry
     smearing contrib. (-TS)   =      -0.00898808 Ry

     convergence has been achieved in   9 iterations

     negative rho (up, down):  1.433E-04 0.000E+00

     Forces acting on atoms (cartesian axes, Ry/au):

     atom    1 type  1   force =     0.00000000    0.00000000    0.00000000

     Total force =     0.000000     Total SCF correction =     0.000000


     Computing stress (Cartesian axis) and pressure


     negative rho (up, down):  1.433E-04 0.000E+00
          total   stress  (Ry/bohr**3)                   (kbar)     P=********
  -0.11946193  -0.00000000   0.00000000     -17573.45     -0.00      0.00
  -0.00000000  -0.11946193   0.00000000         -0.00 -17573.45      0.00
  -0.00000000   0.00000000  -0.11946193         -0.00      0.00 -17573.45


     Writing output data file Ag.save/

     init_run     :      0.16s CPU      0.18s WALL (       1 calls)
     electrons    :      0.91s CPU      1.03s WALL (       1 calls)
     forces       :      0.00s CPU      0.00s WALL (       1 calls)
     stress       :      0.01s CPU      0.01s WALL (       1 calls)

     Called by init_run:
     wfcinit      :      0.00s CPU      0.00s WALL (       1 calls)
     potinit      :      0.09s CPU      0.11s WALL (       1 calls)
     hinit0       :      0.06s CPU      0.06s WALL (       1 calls)

     Called by electrons:
     c_bands      :      0.02s CPU      0.02s WALL (       9 calls)
     sum_band     :      0.01s CPU      0.01s WALL (       9 calls)
     v_of_rho     :      0.00s CPU      0.01s WALL (      10 calls)
     newd         :      0.01s CPU      0.01s WALL (      10 calls)
     PAW_pot      :      0.95s CPU      1.07s WALL (      10 calls)
     mix_rho      :      0.00s CPU      0.00s WALL (       9 calls)

     Called by c_bands:
     init_us_2    :      0.00s CPU      0.00s WALL (      19 calls)
     cegterg      :      0.02s CPU      0.02s WALL (       9 calls)

     Called by sum_band:
     sum_band:bec :      0.00s CPU      0.00s WALL (       9 calls)
     addusdens    :      0.01s CPU      0.01s WALL (       9 calls)

     Called by *egterg:
     h_psi        :      0.01s CPU      0.01s WALL (      30 calls)
     s_psi        :      0.00s CPU      0.00s WALL (      30 calls)
     g_psi        :      0.00s CPU      0.00s WALL (      20 calls)
     cdiaghg      :      0.01s CPU      0.01s WALL (      29 calls)

     Called by h_psi:
     h_psi:pot    :      0.01s CPU      0.01s WALL (      30 calls)
     h_psi:calbec :      0.00s CPU      0.00s WALL (      30 calls)
     vloc_psi     :      0.01s CPU      0.01s WALL (      30 calls)
     add_vuspsi   :      0.00s CPU      0.00s WALL (      30 calls)

     General routines
     calbec       :      0.00s CPU      0.00s WALL (      44 calls)
     fft          :      0.00s CPU      0.00s WALL (     136 calls)
     ffts         :      0.00s CPU      0.00s WALL (       9 calls)
     fftw         :      0.01s CPU      0.01s WALL (     550 calls)

     Parallel routines
     fft_scatt_xy :      0.00s CPU      0.00s WALL (     695 calls)
     fft_scatt_yz :      0.01s CPU      0.01s WALL (     695 calls)

     PWSCF        :     1.91s CPU         2.09s WALL


   This run was terminated on:   0: 4:40  27Mar2024            

=------------------------------------------------------------------------------=
   JOB DONE.
=------------------------------------------------------------------------------=
