
     Program PWSCF v.6.3MaX starts on 27Mar2024 at  0:34:29 

     This program is part of the open-source Quantum ESPRESSO suite
     for quantum simulation of materials; please cite
         "P. Giannozzi et al., J. Phys.:Condens. Matter 21 395502 (2009);
         "P. Giannozzi et al., J. Phys.:Condens. Matter 29 465901 (2017);
          URL http://www.quantum-espresso.org", 
     in publications or presentations arising from this work. More details at
     http://www.quantum-espresso.org/quote

     Parallel version (MPI), running on     5 processors

     MPI processes distributed on     1 nodes
     R & G space division:  proc/nbgrp/npool/nimage =       5
     Waiting for input...
     Reading input from standard input

     Current dimensions of program PWSCF are:
     Max number of different atomic species (ntypx) = 10
     Max number of k-points (npk) =  40000
     Max angular momentum in pseudopotentials (lmaxx) =  3

     Subspace diagonalization in iterative solution of the eigenvalue problem:
     a serial algorithm will be used


     Parallelization info
     --------------------
     sticks:   dense  smooth     PW     G-vecs:    dense   smooth      PW
     Min         122     122     37                 2016     2016     337
     Max         123     123     38                 2017     2017     338
     Sum         613     613    187                10081    10081    1687



     bravais-lattice index     =            2
     lattice parameter (alat)  =       7.7200  a.u.
     unit-cell volume          =     115.0249 (a.u.)^3
     number of atoms/cell      =            1
     number of atomic types    =            1
     number of electrons       =        11.00
     number of Kohn-Sham states=           10
     kinetic-energy cutoff     =      75.0000  Ry
     charge density cutoff     =     300.0000  Ry
     convergence threshold     =      1.0E-08
     mixing beta               =       0.7000
     number of iterations used =            8  plain     mixing
     Exchange-correlation      = PBESOL ( 1  4 10  8 0 0)

     celldm(1)=   7.720000  celldm(2)=   0.000000  celldm(3)=   0.000000
     celldm(4)=   0.000000  celldm(5)=   0.000000  celldm(6)=   0.000000

     crystal axes: (cart. coord. in units of alat)
               a(1) = (  -0.500000   0.000000   0.500000 )  
               a(2) = (   0.000000   0.500000   0.500000 )  
               a(3) = (  -0.500000   0.500000   0.000000 )  

     reciprocal axes: (cart. coord. in units 2 pi/alat)
               b(1) = ( -1.000000 -1.000000  1.000000 )  
               b(2) = (  1.000000  1.000000  1.000000 )  
               b(3) = ( -1.000000  1.000000 -1.000000 )  


     PseudoPot. # 1 for Ag read from file:
     /home/lorenzo/pseudos/Ag/Ag.pbesol-n-rrkjus_psl.1.0.0.UPF
     MD5 check sum: 3b43e8aa747a56f565f44d11355b8b45
     Pseudo is Ultrasoft + core correction, Zval = 11.0
     Generated using "atomic" code by A. Dal Corso v.6.2.2
     Using radial grid of 1237 points,  6 beta functions with: 
                l(1) =   0
                l(2) =   0
                l(3) =   1
                l(4) =   1
                l(5) =   2
                l(6) =   2
     Q(r) pseudized with 0 coefficients 


     atomic species   valence    mass     pseudopotential
        Ag            11.00   107.86820     Ag( 1.00)

     48 Sym. Ops., with inversion, found



   Cartesian axes

     site n.     atom                  positions (alat units)
         1           Ag  tau(   1) = (   0.0000000   0.0000000   0.0000000  )

     number of k points=     8  gaussian smearing, width (Ry)=  0.0100
                       cart. coord. in units 2pi/alat
        k(    1) = (   0.0000000   0.0000000   0.0000000), wk =   0.0312500
        k(    2) = (  -0.2500000   0.2500000  -0.2500000), wk =   0.2500000
        k(    3) = (   0.5000000  -0.5000000   0.5000000), wk =   0.1250000
        k(    4) = (   0.0000000   0.5000000   0.0000000), wk =   0.1875000
        k(    5) = (   0.7500000  -0.2500000   0.7500000), wk =   0.7500000
        k(    6) = (   0.5000000   0.0000000   0.5000000), wk =   0.3750000
        k(    7) = (   0.0000000  -1.0000000   0.0000000), wk =   0.0937500
        k(    8) = (  -0.5000000  -1.0000000   0.0000000), wk =   0.1875000

     Dense  grid:    10081 G-vectors     FFT dimensions: (  32,  32,  32)

     Estimated max dynamical RAM per process >       9.64 MB

     Estimated total dynamical RAM >      48.18 MB

     Initial potential from superposition of free atoms

     starting charge   10.99964, renormalised to   11.00000
     Starting wfcs are    9 randomized atomic wfcs +    1 random wfcs

     total cpu time spent up to now is        1.2 secs

     Self-consistent Calculation

     iteration #  1     ecut=    75.00 Ry     beta= 0.70
     Davidson diagonalization with overlap
     ethr =  1.00E-02,  avg # of iterations =  6.1

     Threshold (ethr) on eigenvalues was too large:
     Diagonalizing with lowered threshold

     Davidson diagonalization with overlap
     ethr =  4.46E-05,  avg # of iterations =  2.6

     total cpu time spent up to now is        1.5 secs

     total energy              =     -84.16677472 Ry
     Harris-Foulkes estimate   =     -84.17024768 Ry
     estimated scf accuracy    <       0.00535674 Ry

     iteration #  2     ecut=    75.00 Ry     beta= 0.70
     Davidson diagonalization with overlap
     ethr =  4.87E-05,  avg # of iterations =  2.0

     total cpu time spent up to now is        1.6 secs

     total energy              =     -84.16801664 Ry
     Harris-Foulkes estimate   =     -84.16995158 Ry
     estimated scf accuracy    <       0.00357339 Ry

     iteration #  3     ecut=    75.00 Ry     beta= 0.70
     Davidson diagonalization with overlap
     ethr =  3.25E-05,  avg # of iterations =  2.0

     total cpu time spent up to now is        1.8 secs

     total energy              =     -84.16881088 Ry
     Harris-Foulkes estimate   =     -84.16881435 Ry
     estimated scf accuracy    <       0.00002673 Ry

     iteration #  4     ecut=    75.00 Ry     beta= 0.70
     Davidson diagonalization with overlap
     ethr =  2.43E-07,  avg # of iterations =  2.4

     total cpu time spent up to now is        1.9 secs

     total energy              =     -84.16882131 Ry
     Harris-Foulkes estimate   =     -84.16882129 Ry
     estimated scf accuracy    <       0.00000067 Ry

     iteration #  5     ecut=    75.00 Ry     beta= 0.70
     Davidson diagonalization with overlap
     ethr =  6.11E-09,  avg # of iterations =  2.1

     total cpu time spent up to now is        2.0 secs

     total energy              =     -84.16882143 Ry
     Harris-Foulkes estimate   =     -84.16882147 Ry
     estimated scf accuracy    <       0.00000009 Ry

     iteration #  6     ecut=    75.00 Ry     beta= 0.70
     Davidson diagonalization with overlap
     ethr =  8.09E-10,  avg # of iterations =  1.6

     total cpu time spent up to now is        2.2 secs

     End of self-consistent calculation

          k = 0.0000 0.0000 0.0000 (  1243 PWs)   bands (ev):

     4.8049   7.9075   7.9075   7.9075   8.9595   8.9595  29.5401  32.8325
    32.8325  37.1535

          k =-0.2500 0.2500-0.2500 (  1278 PWs)   bands (ev):

     6.2208   8.1041   8.1120   8.1120   9.0861   9.0861  23.8368  29.9521
    32.3599  32.3599

          k = 0.5000-0.5000 0.5000 (  1260 PWs)   bands (ev):

     6.2720   7.8866   7.8866   9.7628   9.7628  12.1911  16.2488  28.5903
    30.8272  30.8272

          k = 0.0000 0.5000 0.0000 (  1283 PWs)   bands (ev):

     6.6410   7.1040   8.7912   8.7912   8.8693   9.3359  27.3835  27.3835
    28.4707  29.6275

          k = 0.7500-0.2500 0.7500 (  1264 PWs)   bands (ev):

     6.7596   7.3326   8.3758   8.7567   9.8206  13.6497  18.7733  23.8945
    26.3766  29.5143

          k = 0.5000 0.0000 0.5000 (  1264 PWs)   bands (ev):

     7.3215   7.5626   7.9453   8.5748   8.9695  12.1144  21.9313  22.0462
    30.2411  30.4944

          k = 0.0000-1.0000 0.0000 (  1266 PWs)   bands (ev):

     6.2423   6.3884   9.7322   9.9717   9.9717  14.2114  19.3735  23.4492
    23.4492  29.7410

          k =-0.5000-1.0000 0.0000 (  1232 PWs)   bands (ev):

     7.0031   7.6196   7.6196   8.9669   9.9728  18.5996  18.5996  19.6774
    20.8482  36.0127

     the Fermi energy is    13.4831 ev

!    total energy              =     -84.16882145 Ry
     Harris-Foulkes estimate   =     -84.16882145 Ry
     estimated scf accuracy    <          3.0E-10 Ry

     The total energy is the sum of the following terms:

     one-electron contribution =      -4.71794456 Ry
     hartree contribution      =      14.54960695 Ry
     xc contribution           =     -22.13883127 Ry
     ewald contribution        =     -71.86118018 Ry
     smearing contrib. (-TS)   =      -0.00047239 Ry

     convergence has been achieved in   6 iterations

     Forces acting on atoms (cartesian axes, Ry/au):

     atom    1 type  1   force =     0.00000000    0.00000000    0.00000000

     Total force =     0.000000     Total SCF correction =     0.000000


     Computing stress (Cartesian axis) and pressure

          total   stress  (Ry/bohr**3)                   (kbar)     P=   -9.64
  -0.00006554  -0.00000000  -0.00000000         -9.64     -0.00     -0.00
  -0.00000000  -0.00006554   0.00000000         -0.00     -9.64      0.00
  -0.00000000   0.00000000  -0.00006554         -0.00      0.00     -9.64


     Writing output data file Ag.save/

     init_run     :      0.33s CPU      0.34s WALL (       1 calls)
     electrons    :      0.90s CPU      0.97s WALL (       1 calls)
     forces       :      0.04s CPU      0.04s WALL (       1 calls)
     stress       :      0.13s CPU      0.13s WALL (       1 calls)

     Called by init_run:
     wfcinit      :      0.03s CPU      0.03s WALL (       1 calls)
     potinit      :      0.06s CPU      0.06s WALL (       1 calls)
     hinit0       :      0.21s CPU      0.22s WALL (       1 calls)

     Called by electrons:
     c_bands      :      0.60s CPU      0.66s WALL (       7 calls)
     sum_band     :      0.19s CPU      0.20s WALL (       7 calls)
     v_of_rho     :      0.06s CPU      0.07s WALL (       7 calls)
     newd         :      0.07s CPU      0.07s WALL (       7 calls)
     mix_rho      :      0.00s CPU      0.00s WALL (       7 calls)

     Called by c_bands:
     init_us_2    :      0.03s CPU      0.03s WALL (     136 calls)
     cegterg      :      0.57s CPU      0.62s WALL (      56 calls)

     Called by sum_band:
     sum_band:bec :      0.00s CPU      0.00s WALL (      56 calls)
     addusdens    :      0.07s CPU      0.07s WALL (       7 calls)

     Called by *egterg:
     h_psi        :      0.45s CPU      0.49s WALL (     215 calls)
     s_psi        :      0.01s CPU      0.02s WALL (     215 calls)
     g_psi        :      0.00s CPU      0.00s WALL (     151 calls)
     cdiaghg      :      0.05s CPU      0.05s WALL (     199 calls)

     Called by h_psi:
     h_psi:pot    :      0.44s CPU      0.49s WALL (     215 calls)
     h_psi:calbec :      0.03s CPU      0.03s WALL (     215 calls)
     vloc_psi     :      0.40s CPU      0.44s WALL (     215 calls)
     add_vuspsi   :      0.01s CPU      0.02s WALL (     215 calls)

     General routines
     calbec       :      0.05s CPU      0.05s WALL (     311 calls)
     fft          :      0.06s CPU      0.06s WALL (     104 calls)
     ffts         :      0.00s CPU      0.00s WALL (       7 calls)
     fftw         :      0.45s CPU      0.49s WALL (    3454 calls)

     Parallel routines
     fft_scatt_xy :      0.04s CPU      0.05s WALL (    3565 calls)
     fft_scatt_yz :      0.20s CPU      0.22s WALL (    3565 calls)

     PWSCF        :     2.27s CPU         2.39s WALL


   This run was terminated on:   0:34:31  27Mar2024            

=------------------------------------------------------------------------------=
   JOB DONE.
=------------------------------------------------------------------------------=
