
     Program PWSCF v.6.3MaX starts on 27Mar2024 at  0:13: 2 

     This program is part of the open-source Quantum ESPRESSO suite
     for quantum simulation of materials; please cite
         "P. Giannozzi et al., J. Phys.:Condens. Matter 21 395502 (2009);
         "P. Giannozzi et al., J. Phys.:Condens. Matter 29 465901 (2017);
          URL http://www.quantum-espresso.org", 
     in publications or presentations arising from this work. More details at
     http://www.quantum-espresso.org/quote

     Parallel version (MPI), running on     5 processors

     MPI processes distributed on     1 nodes
     R & G space division:  proc/nbgrp/npool/nimage =       5
     Waiting for input...
     Reading input from standard input

     Current dimensions of program PWSCF are:
     Max number of different atomic species (ntypx) = 10
     Max number of k-points (npk) =  40000
     Max angular momentum in pseudopotentials (lmaxx) =  3
               file Ag.pbesol-n-kjpaw_psl.1.0.0.UPF: wavefunction(s)  5S 5P renormalized

     Subspace diagonalization in iterative solution of the eigenvalue problem:
     a serial algorithm will be used


     Parallelization info
     --------------------
     sticks:   dense  smooth     PW     G-vecs:    dense   smooth      PW
     Min          50      50     17                  527      527     106
     Max          51      51     17                  528      528     107
     Sum         253     253     85                 2637     2637     531



     bravais-lattice index     =            2
     lattice parameter (alat)  =       7.7200  a.u.
     unit-cell volume          =     115.0249 (a.u.)^3
     number of atoms/cell      =            1
     number of atomic types    =            1
     number of electrons       =        11.00
     number of Kohn-Sham states=           10
     kinetic-energy cutoff     =      30.0000  Ry
     charge density cutoff     =     120.0000  Ry
     convergence threshold     =      1.0E-08
     mixing beta               =       0.7000
     number of iterations used =            8  plain     mixing
     Exchange-correlation      = SLA PW PSX PSC ( 1  4 10  8 0 0)

     celldm(1)=   7.720000  celldm(2)=   0.000000  celldm(3)=   0.000000
     celldm(4)=   0.000000  celldm(5)=   0.000000  celldm(6)=   0.000000

     crystal axes: (cart. coord. in units of alat)
               a(1) = (  -0.500000   0.000000   0.500000 )  
               a(2) = (   0.000000   0.500000   0.500000 )  
               a(3) = (  -0.500000   0.500000   0.000000 )  

     reciprocal axes: (cart. coord. in units 2 pi/alat)
               b(1) = ( -1.000000 -1.000000  1.000000 )  
               b(2) = (  1.000000  1.000000  1.000000 )  
               b(3) = ( -1.000000  1.000000 -1.000000 )  


     PseudoPot. # 1 for Ag read from file:
     /home/lorenzo/pseudos/Ag/Ag.pbesol-n-kjpaw_psl.1.0.0.UPF
     MD5 check sum: 3b245e14fa22881b2ac493bfd23f605f
     Pseudo is Projector augmented-wave + core cor, Zval = 11.0
     Generated using "atomic" code by A. Dal Corso v.6.2.2
     Shape of augmentation charge: PSQ
     Using radial grid of 1237 points,  6 beta functions with: 
                l(1) =   0
                l(2) =   0
                l(3) =   1
                l(4) =   1
                l(5) =   2
                l(6) =   2
     Q(r) pseudized with 0 coefficients 


     atomic species   valence    mass     pseudopotential
        Ag            11.00   107.86820     Ag( 1.00)

     48 Sym. Ops., with inversion, found



   Cartesian axes

     site n.     atom                  positions (alat units)
         1           Ag  tau(   1) = (   0.0000000   0.0000000   0.0000000  )

     number of k points=    10  gaussian smearing, width (Ry)=  0.0100
                       cart. coord. in units 2pi/alat
        k(    1) = (   0.0000000   0.0000000   0.0000000), wk =   0.0160000
        k(    2) = (  -0.2000000   0.2000000  -0.2000000), wk =   0.1280000
        k(    3) = (  -0.4000000   0.4000000  -0.4000000), wk =   0.1280000
        k(    4) = (   0.0000000   0.4000000   0.0000000), wk =   0.0960000
        k(    5) = (  -0.2000000   0.6000000  -0.2000000), wk =   0.3840000
        k(    6) = (   0.6000000  -0.2000000   0.6000000), wk =   0.3840000
        k(    7) = (   0.4000000   0.0000000   0.4000000), wk =   0.1920000
        k(    8) = (   0.0000000   0.8000000   0.0000000), wk =   0.0960000
        k(    9) = (   0.8000000   0.0000000   0.8000000), wk =   0.1920000
        k(   10) = (   0.6000000  -0.2000000   1.0000000), wk =   0.3840000

     Dense  grid:     2637 G-vectors     FFT dimensions: (  20,  20,  20)

     Estimated max dynamical RAM per process >       3.15 MB

     Estimated total dynamical RAM >      15.76 MB

     Initial potential from superposition of free atoms

     starting charge   10.99964, renormalised to   11.00000
     Starting wfcs are    9 randomized atomic wfcs +    1 random wfcs
     Checking if some PAW data can be deallocated... 

     total cpu time spent up to now is        1.1 secs

     Self-consistent Calculation

     iteration #  1     ecut=    30.00 Ry     beta= 0.70
     Davidson diagonalization with overlap
     ethr =  1.00E-02,  avg # of iterations =  4.9

     Threshold (ethr) on eigenvalues was too large:
     Diagonalizing with lowered threshold

     Davidson diagonalization with overlap
     ethr =  1.36E-04,  avg # of iterations =  1.1

     total cpu time spent up to now is        1.4 secs

     total energy              =    -350.14501644 Ry
     Harris-Foulkes estimate   =    -350.15620327 Ry
     estimated scf accuracy    <       0.01572755 Ry

     iteration #  2     ecut=    30.00 Ry     beta= 0.70
     Davidson diagonalization with overlap
     ethr =  1.43E-04,  avg # of iterations =  2.0

     total cpu time spent up to now is        1.5 secs

     total energy              =    -350.15060584 Ry
     Harris-Foulkes estimate   =    -350.15650029 Ry
     estimated scf accuracy    <       0.01277608 Ry

     iteration #  3     ecut=    30.00 Ry     beta= 0.70
     Davidson diagonalization with overlap
     ethr =  1.16E-04,  avg # of iterations =  1.4

     total cpu time spent up to now is        1.7 secs

     total energy              =    -350.15282801 Ry
     Harris-Foulkes estimate   =    -350.15275924 Ry
     estimated scf accuracy    <       0.00007416 Ry

     iteration #  4     ecut=    30.00 Ry     beta= 0.70
     Davidson diagonalization with overlap
     ethr =  6.74E-07,  avg # of iterations =  2.9

     total cpu time spent up to now is        1.9 secs

     total energy              =    -350.15287222 Ry
     Harris-Foulkes estimate   =    -350.15287250 Ry
     estimated scf accuracy    <       0.00000393 Ry

     iteration #  5     ecut=    30.00 Ry     beta= 0.70
     Davidson diagonalization with overlap
     ethr =  3.57E-08,  avg # of iterations =  1.0

     total cpu time spent up to now is        2.0 secs

     total energy              =    -350.15287129 Ry
     Harris-Foulkes estimate   =    -350.15287229 Ry
     estimated scf accuracy    <       0.00000271 Ry

     iteration #  6     ecut=    30.00 Ry     beta= 0.70
     Davidson diagonalization with overlap
     ethr =  2.46E-08,  avg # of iterations =  1.7

     total cpu time spent up to now is        2.2 secs

     total energy              =    -350.15287166 Ry
     Harris-Foulkes estimate   =    -350.15287171 Ry
     estimated scf accuracy    <       0.00000014 Ry

     iteration #  7     ecut=    30.00 Ry     beta= 0.70
     Davidson diagonalization with overlap
     ethr =  1.29E-09,  avg # of iterations =  1.0

     total cpu time spent up to now is        2.4 secs

     total energy              =    -350.15287167 Ry
     Harris-Foulkes estimate   =    -350.15287168 Ry
     estimated scf accuracy    <       0.00000002 Ry

     iteration #  8     ecut=    30.00 Ry     beta= 0.70
     Davidson diagonalization with overlap
     ethr =  2.08E-10,  avg # of iterations =  1.9

     total cpu time spent up to now is        2.5 secs

     End of self-consistent calculation

          k = 0.0000 0.0000 0.0000 (   331 PWs)   bands (ev):

     4.8001   7.8279   7.8279   7.8279   8.8652   8.8652  29.5590  32.8176
    32.8176  32.8176

          k =-0.2000 0.2000-0.2000 (   320 PWs)   bands (ev):

     5.8723   7.7996   8.0555   8.0555   8.9350   8.9350  25.8139  30.2295
    32.5963  32.5963

          k =-0.4000 0.4000-0.4000 (   323 PWs)   bands (ev):

     6.2955   7.9017   7.9017   9.5751   9.5751  10.6530  18.2736  28.8832
    31.1605  31.1605

          k = 0.0000 0.4000 0.0000 (   311 PWs)   bands (ev):

     6.2342   7.3118   8.4945   8.4945   8.5815   9.1937  28.7700  28.7700
    29.6363  29.7034

          k =-0.2000 0.6000-0.2000 (   324 PWs)   bands (ev):

     6.7442   7.4302   8.1469   8.5511   9.6489  11.0829  21.3024  26.9034
    27.1125  29.7281

          k = 0.6000-0.2000 0.6000 (   315 PWs)   bands (ev):

     6.8509   7.5580   8.3745   8.4766   9.5656  14.2233  17.0371  24.2794
    28.5811  29.5299

          k = 0.4000 0.0000 0.4000 (   323 PWs)   bands (ev):

     7.0664   7.4554   8.0171   8.5050   8.5967  10.4638  23.8742  24.1825
    31.2712  32.9150

          k = 0.0000 0.8000 0.0000 (   322 PWs)   bands (ev):

     6.3684   6.4720   9.6083   9.6757   9.6757  12.2164  21.9843  24.1452
    24.1452  29.7552

          k = 0.8000 0.0000 0.8000 (   322 PWs)   bands (ev):

     6.5133   6.8314   8.9401   9.3178   9.7602  16.0829  19.0947  19.7891
    24.7896  29.6711

          k = 0.6000-0.2000 1.0000 (   317 PWs)   bands (ev):

     7.0802   7.2288   7.8940   9.0805   9.6825  14.8678  20.4586  20.9747
    23.1627  34.4113

     the Fermi energy is    12.2366 ev

!    total energy              =    -350.15287167 Ry
     Harris-Foulkes estimate   =    -350.15287167 Ry
     estimated scf accuracy    <          1.0E-09 Ry

     total all-electron energy =    -10627.163280 Ry

     The total energy is the sum of the following terms:

     one-electron contribution =       1.73149120 Ry
     hartree contribution      =      14.45798420 Ry
     xc contribution           =     -22.12277379 Ry
     ewald contribution        =     -71.86118020 Ry
     one-center paw contrib.   =    -272.35812820 Ry
     smearing contrib. (-TS)   =      -0.00026488 Ry

     convergence has been achieved in   8 iterations

     Forces acting on atoms (cartesian axes, Ry/au):

     atom    1 type  1   force =     0.00000000    0.00000000    0.00000000

     Total force =     0.000000     Total SCF correction =     0.000000


     Computing stress (Cartesian axis) and pressure

          total   stress  (Ry/bohr**3)                   (kbar)     P= -882.24
  -0.00599732   0.00000000  -0.00000000       -882.24      0.00     -0.00
  -0.00000000  -0.00599732  -0.00000000         -0.00   -882.24     -0.00
  -0.00000000  -0.00000000  -0.00599732         -0.00     -0.00   -882.24


     Writing output data file Ag.save/

     init_run     :      0.24s CPU      0.26s WALL (       1 calls)
     electrons    :      1.29s CPU      1.45s WALL (       1 calls)
     forces       :      0.01s CPU      0.01s WALL (       1 calls)
     stress       :      0.03s CPU      0.03s WALL (       1 calls)

     Called by init_run:
     wfcinit      :      0.01s CPU      0.01s WALL (       1 calls)
     potinit      :      0.11s CPU      0.12s WALL (       1 calls)
     hinit0       :      0.11s CPU      0.11s WALL (       1 calls)

     Called by electrons:
     c_bands      :      0.32s CPU      0.35s WALL (       9 calls)
     sum_band     :      0.10s CPU      0.11s WALL (       9 calls)
     v_of_rho     :      0.02s CPU      0.02s WALL (       9 calls)
     newd         :      0.02s CPU      0.02s WALL (       9 calls)
     PAW_pot      :      0.93s CPU      1.05s WALL (       9 calls)
     mix_rho      :      0.00s CPU      0.00s WALL (       9 calls)

     Called by c_bands:
     init_us_2    :      0.01s CPU      0.01s WALL (     210 calls)
     cegterg      :      0.30s CPU      0.34s WALL (      90 calls)

     Called by sum_band:
     sum_band:bec :      0.00s CPU      0.00s WALL (      90 calls)
     addusdens    :      0.02s CPU      0.02s WALL (       9 calls)

     Called by *egterg:
     h_psi        :      0.21s CPU      0.24s WALL (     279 calls)
     s_psi        :      0.01s CPU      0.01s WALL (     279 calls)
     g_psi        :      0.00s CPU      0.00s WALL (     179 calls)
     cdiaghg      :      0.05s CPU      0.05s WALL (     259 calls)

     Called by h_psi:
     h_psi:pot    :      0.21s CPU      0.24s WALL (     279 calls)
     h_psi:calbec :      0.01s CPU      0.01s WALL (     279 calls)
     vloc_psi     :      0.19s CPU      0.22s WALL (     279 calls)
     add_vuspsi   :      0.01s CPU      0.01s WALL (     279 calls)

     General routines
     calbec       :      0.02s CPU      0.02s WALL (     419 calls)
     fft          :      0.02s CPU      0.02s WALL (     126 calls)
     ffts         :      0.00s CPU      0.00s WALL (       9 calls)
     fftw         :      0.23s CPU      0.26s WALL (    5258 calls)

     Parallel routines
     fft_scatt_xy :      0.02s CPU      0.02s WALL (    5393 calls)
     fft_scatt_yz :      0.09s CPU      0.10s WALL (    5393 calls)

     PWSCF        :     2.41s CPU         2.64s WALL


   This run was terminated on:   0:13: 5  27Mar2024            

=------------------------------------------------------------------------------=
   JOB DONE.
=------------------------------------------------------------------------------=
