
     Program PWSCF v.6.3MaX starts on 27Mar2024 at  0: 2:53 

     This program is part of the open-source Quantum ESPRESSO suite
     for quantum simulation of materials; please cite
         "P. Giannozzi et al., J. Phys.:Condens. Matter 21 395502 (2009);
         "P. Giannozzi et al., J. Phys.:Condens. Matter 29 465901 (2017);
          URL http://www.quantum-espresso.org", 
     in publications or presentations arising from this work. More details at
     http://www.quantum-espresso.org/quote

     Parallel version (MPI), running on     5 processors

     MPI processes distributed on     1 nodes
     R & G space division:  proc/nbgrp/npool/nimage =       5
     Waiting for input...
     Reading input from standard input

     Current dimensions of program PWSCF are:
     Max number of different atomic species (ntypx) = 10
     Max number of k-points (npk) =  40000
     Max angular momentum in pseudopotentials (lmaxx) =  3
               file Ag.pbesol-n-kjpaw_psl.1.0.0.UPF: wavefunction(s)  5S 5P renormalized

     Subspace diagonalization in iterative solution of the eigenvalue problem:
     a serial algorithm will be used


     Parallelization info
     --------------------
     sticks:   dense  smooth     PW     G-vecs:    dense   smooth      PW
     Min         164     164     50                 3117     3117     527
     Max         165     165     51                 3120     3120     528
     Sum         823     823    253                15593    15593    2637



     bravais-lattice index     =            2
     lattice parameter (alat)  =       7.7200  a.u.
     unit-cell volume          =     115.0249 (a.u.)^3
     number of atoms/cell      =            1
     number of atomic types    =            1
     number of electrons       =        11.00
     number of Kohn-Sham states=           10
     kinetic-energy cutoff     =     100.0000  Ry
     charge density cutoff     =     400.0000  Ry
     convergence threshold     =      1.0E-08
     mixing beta               =       0.7000
     number of iterations used =            8  plain     mixing
     Exchange-correlation      = SLA PW PSX PSC ( 1  4 10  8 0 0)

     celldm(1)=   7.720000  celldm(2)=   0.000000  celldm(3)=   0.000000
     celldm(4)=   0.000000  celldm(5)=   0.000000  celldm(6)=   0.000000

     crystal axes: (cart. coord. in units of alat)
               a(1) = (  -0.500000   0.000000   0.500000 )  
               a(2) = (   0.000000   0.500000   0.500000 )  
               a(3) = (  -0.500000   0.500000   0.000000 )  

     reciprocal axes: (cart. coord. in units 2 pi/alat)
               b(1) = ( -1.000000 -1.000000  1.000000 )  
               b(2) = (  1.000000  1.000000  1.000000 )  
               b(3) = ( -1.000000  1.000000 -1.000000 )  


     PseudoPot. # 1 for Ag read from file:
     /home/lorenzo/pseudos/Ag/Ag.pbesol-n-kjpaw_psl.1.0.0.UPF
     MD5 check sum: 3b245e14fa22881b2ac493bfd23f605f
     Pseudo is Projector augmented-wave + core cor, Zval = 11.0
     Generated using "atomic" code by A. Dal Corso v.6.2.2
     Shape of augmentation charge: PSQ
     Using radial grid of 1237 points,  6 beta functions with: 
                l(1) =   0
                l(2) =   0
                l(3) =   1
                l(4) =   1
                l(5) =   2
                l(6) =   2
     Q(r) pseudized with 0 coefficients 


     atomic species   valence    mass     pseudopotential
        Ag            11.00   107.86820     Ag( 1.00)

     48 Sym. Ops., with inversion, found



   Cartesian axes

     site n.     atom                  positions (alat units)
         1           Ag  tau(   1) = (   0.0000000   0.0000000   0.0000000  )

     number of k points=    16  gaussian smearing, width (Ry)=  0.0100
                       cart. coord. in units 2pi/alat
        k(    1) = (   0.0000000   0.0000000   0.0000000), wk =   0.0092593
        k(    2) = (  -0.1666667   0.1666667  -0.1666667), wk =   0.0740741
        k(    3) = (  -0.3333333   0.3333333  -0.3333333), wk =   0.0740741
        k(    4) = (   0.5000000  -0.5000000   0.5000000), wk =   0.0370370
        k(    5) = (   0.0000000   0.3333333   0.0000000), wk =   0.0555556
        k(    6) = (  -0.1666667   0.5000000  -0.1666667), wk =   0.2222222
        k(    7) = (   0.6666667  -0.3333333   0.6666667), wk =   0.2222222
        k(    8) = (   0.5000000  -0.1666667   0.5000000), wk =   0.2222222
        k(    9) = (   0.3333333   0.0000000   0.3333333), wk =   0.1111111
        k(   10) = (   0.0000000   0.6666667   0.0000000), wk =   0.0555556
        k(   11) = (   0.8333333  -0.1666667   0.8333333), wk =   0.2222222
        k(   12) = (   0.6666667  -0.0000000   0.6666667), wk =   0.1111111
        k(   13) = (   0.0000000  -1.0000000   0.0000000), wk =   0.0277778
        k(   14) = (   0.6666667  -0.3333333   1.0000000), wk =   0.2222222
        k(   15) = (   0.5000000  -0.1666667   0.8333333), wk =   0.2222222
        k(   16) = (  -0.3333333  -1.0000000   0.0000000), wk =   0.1111111

     Dense  grid:    15593 G-vectors     FFT dimensions: (  36,  36,  36)

     Estimated max dynamical RAM per process >      14.66 MB

     Estimated total dynamical RAM >      73.31 MB

     Initial potential from superposition of free atoms

     starting charge   10.99964, renormalised to   11.00000
     Starting wfcs are    9 randomized atomic wfcs +    1 random wfcs
     Checking if some PAW data can be deallocated... 

     total cpu time spent up to now is        1.3 secs

     Self-consistent Calculation

     iteration #  1     ecut=   100.00 Ry     beta= 0.70
     Davidson diagonalization with overlap
     ethr =  1.00E-02,  avg # of iterations =  4.9

     Threshold (ethr) on eigenvalues was too large:
     Diagonalizing with lowered threshold

     Davidson diagonalization with overlap
     ethr =  4.57E-05,  avg # of iterations =  2.4

     total cpu time spent up to now is        2.1 secs

     total energy              =    -350.23363599 Ry
     Harris-Foulkes estimate   =    -350.23726139 Ry
     estimated scf accuracy    <       0.00545554 Ry

     iteration #  2     ecut=   100.00 Ry     beta= 0.70
     Davidson diagonalization with overlap
     ethr =  4.96E-05,  avg # of iterations =  2.2

     total cpu time spent up to now is        2.6 secs

     total energy              =    -350.23518554 Ry
     Harris-Foulkes estimate   =    -350.23719600 Ry
     estimated scf accuracy    <       0.00418558 Ry

     iteration #  3     ecut=   100.00 Ry     beta= 0.70
     Davidson diagonalization with overlap
     ethr =  3.81E-05,  avg # of iterations =  1.6

     total cpu time spent up to now is        3.0 secs

     total energy              =    -350.23598744 Ry
     Harris-Foulkes estimate   =    -350.23597085 Ry
     estimated scf accuracy    <       0.00001481 Ry

     iteration #  4     ecut=   100.00 Ry     beta= 0.70
     Davidson diagonalization with overlap
     ethr =  1.35E-07,  avg # of iterations =  3.2

     total cpu time spent up to now is        3.4 secs

     total energy              =    -350.23599626 Ry
     Harris-Foulkes estimate   =    -350.23599609 Ry
     estimated scf accuracy    <       0.00000053 Ry

     iteration #  5     ecut=   100.00 Ry     beta= 0.70
     Davidson diagonalization with overlap
     ethr =  4.84E-09,  avg # of iterations =  1.1

     total cpu time spent up to now is        3.8 secs

     End of self-consistent calculation

          k = 0.0000 0.0000 0.0000 (  1917 PWs)   bands (ev):

     4.8045   7.9142   7.9142   7.9142   8.9670   8.9670  29.5433  32.8290
    32.8290  32.8290

          k =-0.1667 0.1667-0.1667 (  1940 PWs)   bands (ev):

     5.6035   7.8041   8.0929   8.0929   8.9403   8.9403  27.1154  30.3020
    32.7103  32.7103

          k =-0.3333 0.3333-0.3333 (  1940 PWs)   bands (ev):

     6.3803   8.0288   8.0288   9.2971   9.3922   9.3922  20.6222  29.3128
    31.7175  31.7175

          k = 0.5000-0.5000 0.5000 (  1946 PWs)   bands (ev):

     6.2772   7.8933   7.8933   9.7702   9.7702  12.1887  16.2508  28.5893
    30.8272  30.8272

          k = 0.0000 0.3333 0.0000 (  1960 PWs)   bands (ev):

     5.8739   7.4998   8.3293   8.3293   8.6298   9.1530  29.5815  29.7193
    29.7193  30.2450

          k =-0.1667 0.5000-0.1667 (  1943 PWs)   bands (ev):

     6.7612   7.4953   8.0997   8.4981   9.5167   9.8676  23.2472  28.0517
    28.6988  30.3165

          k = 0.6667-0.3333 0.6667 (  1942 PWs)   bands (ev):

     6.6841   7.6536   8.3106   8.5646   9.7979  13.2236  17.3591  26.3214
    28.1604  29.4185

          k = 0.5000-0.1667 0.5000 (  1943 PWs)   bands (ev):

     6.8355   7.7378   8.2945   8.5011   9.2898  12.1344  19.2033  25.1258
    29.9349  30.5640

          k = 0.3333 0.0000 0.3333 (  1943 PWs)   bands (ev):

     6.6589   7.5273   8.1585   8.4498   8.6001   9.7890  25.3587  25.7058
    32.2698  33.3824

          k = 0.0000 0.6667 0.0000 (  1948 PWs)   bands (ev):

     6.6235   6.7431   9.3380   9.3380   9.5392  10.4365  24.9386  25.3523
    25.3523  29.6838

          k = 0.8333-0.1667 0.8333 (  1941 PWs)   bands (ev):

     6.5705   6.8255   8.9965   9.2578   9.8655  13.9189  20.4975  21.7740
    24.8567  29.6503

          k = 0.6667-0.0000 0.6667 (  1935 PWs)   bands (ev):

     6.9358   7.5133   8.1368   8.9221   9.4883  15.7939  18.4602  20.1904
    26.9527  29.6056

          k = 0.0000-1.0000 0.0000 (  1964 PWs)   bands (ev):

     6.2468   6.3947   9.7400   9.9789   9.9789  14.2108  19.3748  23.4477
    23.4477  29.7424

          k = 0.6667-0.3333 1.0000 (  1938 PWs)   bands (ev):

     7.1704   7.2386   7.8961   9.1604   9.3265  12.4570  22.2650  22.2822
    25.6723  33.4850

          k = 0.5000-0.1667 0.8333 (  1930 PWs)   bands (ev):

     7.2338   7.2798   7.9380   8.8404   9.7310  16.3053  17.0431  22.8804
    23.5170  32.9897

          k =-0.3333-1.0000 0.0000 (  1940 PWs)   bands (ev):

     6.7683   6.9492   8.5176   9.2169   9.9797  16.6049  19.5432  20.6810
    21.4092  33.0683

     the Fermi energy is    12.4877 ev

!    total energy              =    -350.23599628 Ry
     Harris-Foulkes estimate   =    -350.23599628 Ry
     estimated scf accuracy    <          5.3E-09 Ry

     total all-electron energy =    -10627.246405 Ry

     The total energy is the sum of the following terms:

     one-electron contribution =       1.61420480 Ry
     hartree contribution      =      14.56939453 Ry
     xc contribution           =     -22.14332703 Ry
     ewald contribution        =     -71.86118018 Ry
     one-center paw contrib.   =    -272.41449112 Ry
     smearing contrib. (-TS)   =      -0.00059728 Ry

     convergence has been achieved in   5 iterations

     Forces acting on atoms (cartesian axes, Ry/au):

     atom    1 type  1   force =     0.00000000    0.00000000    0.00000000

     Total force =     0.000000     Total SCF correction =     0.000000


     Computing stress (Cartesian axis) and pressure

          total   stress  (Ry/bohr**3)                   (kbar)     P=  -13.39
  -0.00009103  -0.00000000  -0.00000000        -13.39     -0.00     -0.00
  -0.00000000  -0.00009103   0.00000000         -0.00    -13.39      0.00
  -0.00000000   0.00000000  -0.00009103         -0.00      0.00    -13.39


     Writing output data file Ag.save/

     init_run     :      0.45s CPU      0.48s WALL (       1 calls)
     electrons    :      2.36s CPU      2.47s WALL (       1 calls)
     forces       :      0.07s CPU      0.07s WALL (       1 calls)
     stress       :      0.20s CPU      0.20s WALL (       1 calls)

     Called by init_run:
     wfcinit      :      0.09s CPU      0.09s WALL (       1 calls)
     potinit      :      0.10s CPU      0.12s WALL (       1 calls)
     hinit0       :      0.22s CPU      0.22s WALL (       1 calls)

     Called by electrons:
     c_bands      :      1.41s CPU      1.47s WALL (       6 calls)
     sum_band     :      0.35s CPU      0.38s WALL (       6 calls)
     v_of_rho     :      0.06s CPU      0.06s WALL (       6 calls)
     newd         :      0.09s CPU      0.09s WALL (       6 calls)
     PAW_pot      :      0.55s CPU      0.58s WALL (       6 calls)
     mix_rho      :      0.00s CPU      0.00s WALL (       6 calls)

     Called by c_bands:
     init_us_2    :      0.05s CPU      0.06s WALL (     240 calls)
     cegterg      :      1.34s CPU      1.41s WALL (      96 calls)

     Called by sum_band:
     sum_band:bec :      0.00s CPU      0.00s WALL (      96 calls)
     addusdens    :      0.09s CPU      0.09s WALL (       6 calls)

     Called by *egterg:
     h_psi        :      1.14s CPU      1.20s WALL (     359 calls)
     s_psi        :      0.04s CPU      0.04s WALL (     359 calls)
     g_psi        :      0.00s CPU      0.00s WALL (     247 calls)
     cdiaghg      :      0.07s CPU      0.07s WALL (     327 calls)

     Called by h_psi:
     h_psi:pot    :      1.13s CPU      1.19s WALL (     359 calls)
     h_psi:calbec :      0.06s CPU      0.06s WALL (     359 calls)
     vloc_psi     :      1.03s CPU      1.09s WALL (     359 calls)
     add_vuspsi   :      0.04s CPU      0.04s WALL (     359 calls)

     General routines
     calbec       :      0.09s CPU      0.10s WALL (     535 calls)
     fft          :      0.03s CPU      0.04s WALL (      93 calls)
     ffts         :      0.00s CPU      0.00s WALL (       6 calls)
     fftw         :      1.16s CPU      1.23s WALL (    5960 calls)

     Parallel routines
     fft_scatt_xy :      0.10s CPU      0.10s WALL (    6059 calls)
     fft_scatt_yz :      0.28s CPU      0.30s WALL (    6059 calls)

     PWSCF        :     3.92s CPU         4.11s WALL


   This run was terminated on:   0: 2:57  27Mar2024            

=------------------------------------------------------------------------------=
   JOB DONE.
=------------------------------------------------------------------------------=
