
     Program PWSCF v.6.3MaX starts on 27Mar2024 at  0:26:26 

     This program is part of the open-source Quantum ESPRESSO suite
     for quantum simulation of materials; please cite
         "P. Giannozzi et al., J. Phys.:Condens. Matter 21 395502 (2009);
         "P. Giannozzi et al., J. Phys.:Condens. Matter 29 465901 (2017);
          URL http://www.quantum-espresso.org", 
     in publications or presentations arising from this work. More details at
     http://www.quantum-espresso.org/quote

     Parallel version (MPI), running on     5 processors

     MPI processes distributed on     1 nodes
     R & G space division:  proc/nbgrp/npool/nimage =       5
     Waiting for input...
     Reading input from standard input

     Current dimensions of program PWSCF are:
     Max number of different atomic species (ntypx) = 10
     Max number of k-points (npk) =  40000
     Max angular momentum in pseudopotentials (lmaxx) =  3

     Subspace diagonalization in iterative solution of the eigenvalue problem:
     a serial algorithm will be used


     Parallelization info
     --------------------
     sticks:   dense  smooth     PW     G-vecs:    dense   smooth      PW
     Min          99      99     30                 1446     1446     248
     Max         100     100     31                 1449     1449     251
     Sum         499     499    151                 7239     7239    1243



     bravais-lattice index     =            2
     lattice parameter (alat)  =       7.7200  a.u.
     unit-cell volume          =     115.0249 (a.u.)^3
     number of atoms/cell      =            1
     number of atomic types    =            1
     number of electrons       =        11.00
     number of Kohn-Sham states=           10
     kinetic-energy cutoff     =      60.0000  Ry
     charge density cutoff     =     240.0000  Ry
     convergence threshold     =      1.0E-08
     mixing beta               =       0.7000
     number of iterations used =            8  plain     mixing
     Exchange-correlation      = PBE ( 1  4  3  4 0 0)

     celldm(1)=   7.720000  celldm(2)=   0.000000  celldm(3)=   0.000000
     celldm(4)=   0.000000  celldm(5)=   0.000000  celldm(6)=   0.000000

     crystal axes: (cart. coord. in units of alat)
               a(1) = (  -0.500000   0.000000   0.500000 )  
               a(2) = (   0.000000   0.500000   0.500000 )  
               a(3) = (  -0.500000   0.500000   0.000000 )  

     reciprocal axes: (cart. coord. in units 2 pi/alat)
               b(1) = ( -1.000000 -1.000000  1.000000 )  
               b(2) = (  1.000000  1.000000  1.000000 )  
               b(3) = ( -1.000000  1.000000 -1.000000 )  


     PseudoPot. # 1 for Ag read from file:
     /home/lorenzo/pseudos/Ag/Ag.pbe-n-rrkjus_psl.1.0.0.UPF
     MD5 check sum: d841cbfac2b0861aec33b46768a516bf
     Pseudo is Ultrasoft + core correction, Zval = 11.0
     Generated using "atomic" code by A. Dal Corso v.6.2.2
     Using radial grid of 1237 points,  6 beta functions with: 
                l(1) =   0
                l(2) =   0
                l(3) =   1
                l(4) =   1
                l(5) =   2
                l(6) =   2
     Q(r) pseudized with 0 coefficients 


     atomic species   valence    mass     pseudopotential
        Ag            11.00   107.86820     Ag( 1.00)

     48 Sym. Ops., with inversion, found



   Cartesian axes

     site n.     atom                  positions (alat units)
         1           Ag  tau(   1) = (   0.0000000   0.0000000   0.0000000  )

     number of k points=    10  gaussian smearing, width (Ry)=  0.0100
                       cart. coord. in units 2pi/alat
        k(    1) = (   0.0000000   0.0000000   0.0000000), wk =   0.0160000
        k(    2) = (  -0.2000000   0.2000000  -0.2000000), wk =   0.1280000
        k(    3) = (  -0.4000000   0.4000000  -0.4000000), wk =   0.1280000
        k(    4) = (   0.0000000   0.4000000   0.0000000), wk =   0.0960000
        k(    5) = (  -0.2000000   0.6000000  -0.2000000), wk =   0.3840000
        k(    6) = (   0.6000000  -0.2000000   0.6000000), wk =   0.3840000
        k(    7) = (   0.4000000   0.0000000   0.4000000), wk =   0.1920000
        k(    8) = (   0.0000000   0.8000000   0.0000000), wk =   0.0960000
        k(    9) = (   0.8000000   0.0000000   0.8000000), wk =   0.1920000
        k(   10) = (   0.6000000  -0.2000000   1.0000000), wk =   0.3840000

     Dense  grid:     7239 G-vectors     FFT dimensions: (  27,  27,  27)

     Estimated max dynamical RAM per process >       7.23 MB

     Estimated total dynamical RAM >      36.13 MB

     Initial potential from superposition of free atoms

     starting charge   10.99960, renormalised to   11.00000
     Starting wfcs are    9 randomized atomic wfcs +    1 random wfcs

     total cpu time spent up to now is        0.9 secs

     Self-consistent Calculation

     iteration #  1     ecut=    60.00 Ry     beta= 0.70
     Davidson diagonalization with overlap
     ethr =  1.00E-02,  avg # of iterations =  4.7

     Threshold (ethr) on eigenvalues was too large:
     Diagonalizing with lowered threshold

     Davidson diagonalization with overlap
     ethr =  2.17E-05,  avg # of iterations =  3.1

     total cpu time spent up to now is        1.3 secs

     total energy              =     -84.28065639 Ry
     Harris-Foulkes estimate   =     -84.28214833 Ry
     estimated scf accuracy    <       0.00274164 Ry

     iteration #  2     ecut=    60.00 Ry     beta= 0.70
     Davidson diagonalization with overlap
     ethr =  2.49E-05,  avg # of iterations =  2.0

     total cpu time spent up to now is        1.4 secs

     total energy              =     -84.28124072 Ry
     Harris-Foulkes estimate   =     -84.28213468 Ry
     estimated scf accuracy    <       0.00164020 Ry

     iteration #  3     ecut=    60.00 Ry     beta= 0.70
     Davidson diagonalization with overlap
     ethr =  1.49E-05,  avg # of iterations =  2.0

     total cpu time spent up to now is        1.5 secs

     total energy              =     -84.28162693 Ry
     Harris-Foulkes estimate   =     -84.28162591 Ry
     estimated scf accuracy    <       0.00002687 Ry

     iteration #  4     ecut=    60.00 Ry     beta= 0.70
     Davidson diagonalization with overlap
     ethr =  2.44E-07,  avg # of iterations =  2.1

     total cpu time spent up to now is        1.6 secs

     total energy              =     -84.28163217 Ry
     Harris-Foulkes estimate   =     -84.28163208 Ry
     estimated scf accuracy    <       0.00000018 Ry

     iteration #  5     ecut=    60.00 Ry     beta= 0.70
     Davidson diagonalization with overlap
     ethr =  1.64E-09,  avg # of iterations =  2.6

     total cpu time spent up to now is        1.7 secs

     total energy              =     -84.28163226 Ry
     Harris-Foulkes estimate   =     -84.28163228 Ry
     estimated scf accuracy    <       0.00000005 Ry

     iteration #  6     ecut=    60.00 Ry     beta= 0.70
     Davidson diagonalization with overlap
     ethr =  4.62E-10,  avg # of iterations =  2.0

     total cpu time spent up to now is        1.8 secs

     End of self-consistent calculation

          k = 0.0000 0.0000 0.0000 (   893 PWs)   bands (ev):

     5.0709   8.0977   8.0977   8.0977   9.1346   9.1346  29.8028  33.0932
    33.0932  33.0932

          k =-0.2000 0.2000-0.2000 (   914 PWs)   bands (ev):

     6.1417   8.0383   8.3026   8.3026   9.1453   9.1453  26.0705  30.4665
    32.8707  32.8707

          k =-0.4000 0.4000-0.4000 (   899 PWs)   bands (ev):

     6.5426   8.1268   8.1268   9.7869   9.7869  10.9246  18.5360  29.1212
    31.4678  31.4678

          k = 0.0000 0.4000 0.0000 (   909 PWs)   bands (ev):

     6.4996   7.5365   8.6819   8.6819   8.7887   9.3905  29.0358  29.0358
    29.8460  29.9166

          k =-0.2000 0.6000-0.2000 (   893 PWs)   bands (ev):

     6.9925   7.6625   8.3865   8.7784   9.8833  11.3405  21.5704  27.1504
    27.3998  29.9731

          k = 0.6000-0.2000 0.6000 (   918 PWs)   bands (ev):

     7.0626   7.7734   8.5846   8.6637   9.7517  14.4665  17.2750  24.5371
    28.8654  29.7701

          k = 0.4000 0.0000 0.4000 (   909 PWs)   bands (ev):

     7.3295   7.6820   8.2572   8.7245   8.8309  10.7152  24.1449  24.4317
    31.5267  33.1826

          k = 0.0000 0.8000 0.0000 (   902 PWs)   bands (ev):

     6.6035   6.7196   9.8249   9.8916   9.8916  12.4948  22.2434  24.4408
    24.4408  29.9551

          k = 0.8000 0.0000 0.8000 (   904 PWs)   bands (ev):

     6.7514   7.0608   9.1495   9.5210   9.9654  16.3537  19.3793  20.0310
    25.0832  29.8862

          k = 0.6000-0.2000 1.0000 (   902 PWs)   bands (ev):

     7.2957   7.4454   8.1061   9.2710   9.8801  15.1126  20.7214  21.2521
    23.4055  34.6224

     the Fermi energy is    12.5150 ev

!    total energy              =     -84.28163227 Ry
     Harris-Foulkes estimate   =     -84.28163227 Ry
     estimated scf accuracy    <          6.5E-10 Ry

     The total energy is the sum of the following terms:

     one-electron contribution =      -4.72835064 Ry
     hartree contribution      =      14.66036589 Ry
     xc contribution           =     -22.35220245 Ry
     ewald contribution        =     -71.86118019 Ry
     smearing contrib. (-TS)   =      -0.00026488 Ry

     convergence has been achieved in   6 iterations

     Forces acting on atoms (cartesian axes, Ry/au):

     atom    1 type  1   force =     0.00000000    0.00000000    0.00000000

     Total force =     0.000000     Total SCF correction =     0.000000


     Computing stress (Cartesian axis) and pressure

          total   stress  (Ry/bohr**3)                   (kbar)     P=   34.11
   0.00023189   0.00000000  -0.00000000         34.11      0.00     -0.00
   0.00000000   0.00023189  -0.00000000          0.00     34.11     -0.00
  -0.00000000  -0.00000000   0.00023189         -0.00     -0.00     34.11


     Writing output data file Ag.save/

     init_run     :      0.21s CPU      0.21s WALL (       1 calls)
     electrons    :      0.81s CPU      0.85s WALL (       1 calls)
     forces       :      0.02s CPU      0.03s WALL (       1 calls)
     stress       :      0.08s CPU      0.08s WALL (       1 calls)

     Called by init_run:
     wfcinit      :      0.03s CPU      0.03s WALL (       1 calls)
     potinit      :      0.01s CPU      0.01s WALL (       1 calls)
     hinit0       :      0.16s CPU      0.16s WALL (       1 calls)

     Called by electrons:
     c_bands      :      0.60s CPU      0.62s WALL (       7 calls)
     sum_band     :      0.14s CPU      0.15s WALL (       7 calls)
     v_of_rho     :      0.03s CPU      0.03s WALL (       7 calls)
     newd         :      0.05s CPU      0.05s WALL (       7 calls)
     mix_rho      :      0.00s CPU      0.00s WALL (       7 calls)

     Called by c_bands:
     init_us_2    :      0.02s CPU      0.02s WALL (     170 calls)
     cegterg      :      0.58s CPU      0.60s WALL (      70 calls)

     Called by sum_band:
     sum_band:bec :      0.00s CPU      0.00s WALL (      70 calls)
     addusdens    :      0.05s CPU      0.05s WALL (       7 calls)

     Called by *egterg:
     h_psi        :      0.46s CPU      0.47s WALL (     265 calls)
     s_psi        :      0.02s CPU      0.02s WALL (     265 calls)
     g_psi        :      0.00s CPU      0.00s WALL (     185 calls)
     cdiaghg      :      0.06s CPU      0.06s WALL (     245 calls)

     Called by h_psi:
     h_psi:pot    :      0.45s CPU      0.47s WALL (     265 calls)
     h_psi:calbec :      0.02s CPU      0.02s WALL (     265 calls)
     vloc_psi     :      0.42s CPU      0.43s WALL (     265 calls)
     add_vuspsi   :      0.02s CPU      0.02s WALL (     265 calls)

     General routines
     calbec       :      0.03s CPU      0.03s WALL (     385 calls)
     fft          :      0.02s CPU      0.02s WALL (     104 calls)
     ffts         :      0.00s CPU      0.00s WALL (       7 calls)
     fftw         :      0.45s CPU      0.47s WALL (    4428 calls)

     Parallel routines
     fft_scatt_xy :      0.04s CPU      0.04s WALL (    4539 calls)
     fft_scatt_yz :      0.08s CPU      0.08s WALL (    4539 calls)

     PWSCF        :     1.87s CPU         1.94s WALL


   This run was terminated on:   0:26:28  27Mar2024            

=------------------------------------------------------------------------------=
   JOB DONE.
=------------------------------------------------------------------------------=
