
     Program PWSCF v.6.3MaX starts on 27Mar2024 at  0:42: 5 

     This program is part of the open-source Quantum ESPRESSO suite
     for quantum simulation of materials; please cite
         "P. Giannozzi et al., J. Phys.:Condens. Matter 21 395502 (2009);
         "P. Giannozzi et al., J. Phys.:Condens. Matter 29 465901 (2017);
          URL http://www.quantum-espresso.org", 
     in publications or presentations arising from this work. More details at
     http://www.quantum-espresso.org/quote

     Parallel version (MPI), running on     5 processors

     MPI processes distributed on     1 nodes
     R & G space division:  proc/nbgrp/npool/nimage =       5
     Waiting for input...
     Reading input from standard input

     Current dimensions of program PWSCF are:
     Max number of different atomic species (ntypx) = 10
     Max number of k-points (npk) =  40000
     Max angular momentum in pseudopotentials (lmaxx) =  3

     Subspace diagonalization in iterative solution of the eigenvalue problem:
     a serial algorithm will be used


     Parallelization info
     --------------------
     sticks:   dense  smooth     PW     G-vecs:    dense   smooth      PW
     Min         137     137     42                 2410     2410     416
     Max         139     139     43                 2411     2411     418
     Sum         691     691    211                12051    12051    2085



     bravais-lattice index     =            2
     lattice parameter (alat)  =       7.7200  a.u.
     unit-cell volume          =     115.0249 (a.u.)^3
     number of atoms/cell      =            1
     number of atomic types    =            1
     number of electrons       =        11.00
     number of Kohn-Sham states=           10
     kinetic-energy cutoff     =      85.0000  Ry
     charge density cutoff     =     340.0000  Ry
     convergence threshold     =      1.0E-08
     mixing beta               =       0.7000
     number of iterations used =            8  plain     mixing
     Exchange-correlation      = PBESOL ( 1  4 10  8 0 0)

     celldm(1)=   7.720000  celldm(2)=   0.000000  celldm(3)=   0.000000
     celldm(4)=   0.000000  celldm(5)=   0.000000  celldm(6)=   0.000000

     crystal axes: (cart. coord. in units of alat)
               a(1) = (  -0.500000   0.000000   0.500000 )  
               a(2) = (   0.000000   0.500000   0.500000 )  
               a(3) = (  -0.500000   0.500000   0.000000 )  

     reciprocal axes: (cart. coord. in units 2 pi/alat)
               b(1) = ( -1.000000 -1.000000  1.000000 )  
               b(2) = (  1.000000  1.000000  1.000000 )  
               b(3) = ( -1.000000  1.000000 -1.000000 )  


     PseudoPot. # 1 for Ag read from file:
     /home/lorenzo/pseudos/Ag/Ag.pbesol-n-rrkjus_psl.1.0.0.UPF
     MD5 check sum: 3b43e8aa747a56f565f44d11355b8b45
     Pseudo is Ultrasoft + core correction, Zval = 11.0
     Generated using "atomic" code by A. Dal Corso v.6.2.2
     Using radial grid of 1237 points,  6 beta functions with: 
                l(1) =   0
                l(2) =   0
                l(3) =   1
                l(4) =   1
                l(5) =   2
                l(6) =   2
     Q(r) pseudized with 0 coefficients 


     atomic species   valence    mass     pseudopotential
        Ag            11.00   107.86820     Ag( 1.00)

     48 Sym. Ops., with inversion, found



   Cartesian axes

     site n.     atom                  positions (alat units)
         1           Ag  tau(   1) = (   0.0000000   0.0000000   0.0000000  )

     number of k points=    35  gaussian smearing, width (Ry)=  0.0100
                       cart. coord. in units 2pi/alat
        k(    1) = (   0.0000000   0.0000000   0.0000000), wk =   0.0027435
        k(    2) = (  -0.1111111   0.1111111  -0.1111111), wk =   0.0219479
        k(    3) = (  -0.2222222   0.2222222  -0.2222222), wk =   0.0219479
        k(    4) = (  -0.3333333   0.3333333  -0.3333333), wk =   0.0219479
        k(    5) = (  -0.4444444   0.4444444  -0.4444444), wk =   0.0219479
        k(    6) = (   0.0000000   0.2222222   0.0000000), wk =   0.0164609
        k(    7) = (  -0.1111111   0.3333333  -0.1111111), wk =   0.0658436
        k(    8) = (  -0.2222222   0.4444444  -0.2222222), wk =   0.0658436
        k(    9) = (  -0.3333333   0.5555556  -0.3333333), wk =   0.0658436
        k(   10) = (   0.5555556  -0.3333333   0.5555556), wk =   0.0658436
        k(   11) = (   0.4444444  -0.2222222   0.4444444), wk =   0.0658436
        k(   12) = (   0.3333333  -0.1111111   0.3333333), wk =   0.0658436
        k(   13) = (   0.2222222  -0.0000000   0.2222222), wk =   0.0329218
        k(   14) = (   0.0000000   0.4444444   0.0000000), wk =   0.0164609
        k(   15) = (  -0.1111111   0.5555556  -0.1111111), wk =   0.0658436
        k(   16) = (  -0.2222222   0.6666667  -0.2222222), wk =   0.0658436
        k(   17) = (   0.6666667  -0.2222222   0.6666667), wk =   0.0658436
        k(   18) = (   0.5555556  -0.1111111   0.5555556), wk =   0.0658436
        k(   19) = (   0.4444444   0.0000000   0.4444444), wk =   0.0329218
        k(   20) = (   0.0000000   0.6666667   0.0000000), wk =   0.0164609
        k(   21) = (  -0.1111111   0.7777778  -0.1111111), wk =   0.0658436
        k(   22) = (   0.7777778  -0.1111111   0.7777778), wk =   0.0658436
        k(   23) = (   0.6666667  -0.0000000   0.6666667), wk =   0.0329218
        k(   24) = (   0.0000000   0.8888889   0.0000000), wk =   0.0164609
        k(   25) = (   0.8888889   0.0000000   0.8888889), wk =   0.0329218
        k(   26) = (  -0.2222222   0.4444444   0.0000000), wk =   0.0658436
        k(   27) = (  -0.3333333   0.5555556  -0.1111111), wk =   0.1316872
        k(   28) = (   0.5555556  -0.3333333   0.7777778), wk =   0.1316872
        k(   29) = (  -0.2222222   0.6666667   0.0000000), wk =   0.0658436
        k(   30) = (   0.6666667  -0.2222222   0.8888889), wk =   0.1316872
        k(   31) = (   0.5555556  -0.1111111   0.7777778), wk =   0.1316872
        k(   32) = (   0.4444444   0.0000000   0.6666667), wk =   0.0658436
        k(   33) = (   0.7777778  -0.1111111   1.0000000), wk =   0.0658436
        k(   34) = (   0.6666667  -0.0000000   0.8888889), wk =   0.0658436
        k(   35) = (   0.5555556  -0.1111111   1.0000000), wk =   0.0658436

     Dense  grid:    12051 G-vectors     FFT dimensions: (  36,  36,  36)

     Estimated max dynamical RAM per process >      12.68 MB

     Estimated total dynamical RAM >      63.40 MB

     Initial potential from superposition of free atoms

     starting charge   10.99964, renormalised to   11.00000
     Starting wfcs are    9 randomized atomic wfcs +    1 random wfcs

     total cpu time spent up to now is        1.2 secs

     Self-consistent Calculation

     iteration #  1     ecut=    85.00 Ry     beta= 0.70
     Davidson diagonalization with overlap
     ethr =  1.00E-02,  avg # of iterations =  4.8

     Threshold (ethr) on eigenvalues was too large:
     Diagonalizing with lowered threshold

     Davidson diagonalization with overlap
     ethr =  4.31E-05,  avg # of iterations =  2.3

     total cpu time spent up to now is        2.7 secs

     total energy              =     -84.18166658 Ry
     Harris-Foulkes estimate   =     -84.18496666 Ry
     estimated scf accuracy    <       0.00509545 Ry

     iteration #  2     ecut=    85.00 Ry     beta= 0.70
     Davidson diagonalization with overlap
     ethr =  4.63E-05,  avg # of iterations =  2.0

     total cpu time spent up to now is        3.5 secs

     total energy              =     -84.18285489 Ry
     Harris-Foulkes estimate   =     -84.18475964 Ry
     estimated scf accuracy    <       0.00354377 Ry

     iteration #  3     ecut=    85.00 Ry     beta= 0.70
     Davidson diagonalization with overlap
     ethr =  3.22E-05,  avg # of iterations =  2.0

     total cpu time spent up to now is        4.1 secs

     total energy              =     -84.18363781 Ry
     Harris-Foulkes estimate   =     -84.18363994 Ry
     estimated scf accuracy    <       0.00002536 Ry

     iteration #  4     ecut=    85.00 Ry     beta= 0.70
     Davidson diagonalization with overlap
     ethr =  2.31E-07,  avg # of iterations =  2.8

     total cpu time spent up to now is        4.8 secs

     total energy              =     -84.18364658 Ry
     Harris-Foulkes estimate   =     -84.18364656 Ry
     estimated scf accuracy    <       0.00000048 Ry

     iteration #  5     ecut=    85.00 Ry     beta= 0.70
     Davidson diagonalization with overlap
     ethr =  4.32E-09,  avg # of iterations =  2.1

     total cpu time spent up to now is        5.4 secs

     total energy              =     -84.18364668 Ry
     Harris-Foulkes estimate   =     -84.18364670 Ry
     estimated scf accuracy    <       0.00000003 Ry

     iteration #  6     ecut=    85.00 Ry     beta= 0.70
     Davidson diagonalization with overlap
     ethr =  2.48E-10,  avg # of iterations =  2.1

     total cpu time spent up to now is        5.9 secs

     End of self-consistent calculation

          k = 0.0000 0.0000 0.0000 (  1471 PWs)   bands (ev):

     4.8082   7.9212   7.9212   7.9212   8.9701   8.9701  29.5469  32.8314
    32.8314  37.1532

          k =-0.1111 0.1111-0.1111 (  1501 PWs)   bands (ev):

     5.1849   7.8437   8.0202   8.0202   8.9389   8.9389  28.9642  30.5760
    32.8007  32.8007

          k =-0.2222 0.2222-0.2222 (  1525 PWs)   bands (ev):

     6.0574   7.9290   8.1334   8.1334   9.0234   9.0234  24.9425  30.1192
    32.5164  32.5164

          k =-0.3333 0.3333-0.3333 (  1504 PWs)   bands (ev):

     6.3858   8.0338   8.0338   9.3022   9.3974   9.3974  20.6278  29.3156
    31.7229  31.7229

          k =-0.4444 0.4444-0.4444 (  1513 PWs)   bands (ev):

     6.3013   7.9153   7.9153   9.7272   9.7272  11.5903  17.0211  28.6794
    30.9497  30.9497

          k = 0.0000 0.2222 0.0000 (  1499 PWs)   bands (ev):

     5.3116   7.7238   8.1096   8.1096   8.7827   9.0565  29.5637  31.2222
    31.2222  31.2257

          k =-0.1111 0.3333-0.1111 (  1517 PWs)   bands (ev):

     6.0608   7.5659   8.2319   8.2900   8.8229   9.1780  26.6670  29.8389
    30.0339  32.5633

          k =-0.2222 0.4444-0.2222 (  1517 PWs)   bands (ev):

     6.6019   7.9963   8.0172   8.2718   9.4905   9.7550  22.2612  29.1852
    29.2620  31.4027

          k =-0.3333 0.5556-0.3333 (  1523 PWs)   bands (ev):

     6.5314   7.8157   8.1379   8.8224   9.7668  11.7207  18.2529  28.2327
    29.1082  29.9308

          k = 0.5556-0.3333 0.5556 (  1511 PWs)   bands (ev):

     6.4982   7.7737   8.0699   9.1626   9.7114  13.0754  16.4414  27.4087
    29.4826  29.8863

          k = 0.4444-0.2222 0.4444 (  1511 PWs)   bands (ev):

     6.6026   7.8872   8.1355   8.8057   9.3127  11.1118  19.5334  27.1239
    30.0914  31.7182

          k = 0.3333-0.1111 0.3333 (  1518 PWs)   bands (ev):

     6.5682   7.7710   8.1776   8.2823   8.8231   9.7445  23.7331  27.4190
    31.5913  34.2334

          k = 0.2222-0.0000 0.2222 (  1504 PWs)   bands (ev):

     5.7633   7.6859   8.1727   8.1746   8.7524   9.1431  28.0912  28.0932
    32.1486  34.4215

          k = 0.0000 0.4444 0.0000 (  1499 PWs)   bands (ev):

     6.4611   7.2498   8.6354   8.6354   8.6683   9.2799  28.1500  28.1501
    29.2291  29.6171

          k =-0.1111 0.5556-0.1111 (  1516 PWs)   bands (ev):

     6.8152   7.1297   8.4267   8.7868   9.5349   9.9466  24.3029  26.9759
    27.5856  29.9117

          k =-0.2222 0.6667-0.2222 (  1520 PWs)   bands (ev):

     6.7762   7.4081   8.3014   8.6770   9.8078  12.1687  20.1289  25.5533
    26.6985  29.5828

          k = 0.6667-0.2222 0.6667 (  1523 PWs)   bands (ev):

     6.8442   7.5304   8.3631   8.5493   9.7346  14.8480  16.7720  23.9927
    27.4920  29.4540

          k = 0.5556-0.1111 0.5556 (  1522 PWs)   bands (ev):

     7.0722   7.6232   8.2111   8.5101   9.3105  13.2605  19.0385  23.1377
    29.3077  29.8015

          k = 0.4444 0.0000 0.4444 (  1530 PWs)   bands (ev):

     7.2753   7.5106   8.0140   8.5525   8.8021  11.1648  23.0128  23.1781
    30.7444  31.8254

          k = 0.0000 0.6667 0.0000 (  1527 PWs)   bands (ev):

     6.6262   6.7496   9.3453   9.3453   9.5422  10.4407  24.9434  25.3570
    25.3570  29.6897

          k =-0.1111 0.7778-0.1111 (  1525 PWs)   bands (ev):

     6.5526   6.7057   9.2180   9.3393   9.8308  12.5504  22.2237  22.8183
    24.7278  29.7122

          k = 0.7778-0.1111 0.7778 (  1520 PWs)   bands (ev):

     6.6504   7.0236   8.7426   9.1718   9.8051  15.4323  18.8219  20.9422
    25.2985  29.6071

          k = 0.6667-0.0000 0.6667 (  1516 PWs)   bands (ev):

     6.9407   7.5175   8.1435   8.9251   9.4958  15.7991  18.4661  20.1950
    26.9575  29.6101

          k = 0.0000 0.8889 0.0000 (  1544 PWs)   bands (ev):

     6.3014   6.4422   9.7185   9.9023   9.9023  13.4308  20.3645  23.6795
    23.6795  29.7414

          k = 0.8889 0.0000 0.8889 (  1542 PWs)   bands (ev):

     6.3702   6.5387   9.5804   9.6099   9.9287  14.8922  19.4099  21.7286
    23.8891  29.7378

          k =-0.2222 0.4444 0.0000 (  1523 PWs)   bands (ev):

     6.7843   7.3540   8.0874   8.6352   8.8904   9.7829  25.5264  25.8305
    30.2501  32.2021

          k =-0.3333 0.5556-0.1111 (  1521 PWs)   bands (ev):

     6.9706   7.7323   7.8410   8.6262   9.3312  11.2855  21.3495  25.2340
    28.2006  32.1708

          k = 0.5556-0.3333 0.7778 (  1527 PWs)   bands (ev):

     6.8581   7.5669   8.3336   8.5189   9.6676  13.6320  17.5514  25.4988
    26.5441  31.3588

          k =-0.2222 0.6667 0.0000 (  1523 PWs)   bands (ev):

     6.9273   6.9436   8.4019   9.3374   9.4031  11.5911  23.4451  23.6185
    25.2690  31.7296

          k = 0.6667-0.2222 0.8889 (  1519 PWs)   bands (ev):

     6.9091   7.2041   8.1980   9.0851   9.7352  14.0976  19.6230  23.1651
    23.7843  31.8682

          k = 0.5556-0.1111 0.7778 (  1532 PWs)   bands (ev):

     7.0984   7.4114   7.9892   8.8572   9.6863  16.1085  17.4068  21.8508
    24.6751  32.0700

          k = 0.4444 0.0000 0.6667 (  1523 PWs)   bands (ev):

     7.4393   7.4814   7.6009   8.9126   9.3436  13.4294  20.9166  21.3525
    26.2731  32.8493

          k = 0.7778-0.1111 1.0000 (  1525 PWs)   bands (ev):

     6.5671   6.6837   9.0343   9.5185   9.9010  14.5665  20.5058  22.1868
    22.3912  31.4755

          k = 0.6667-0.0000 0.8889 (  1533 PWs)   bands (ev):

     6.7691   7.0472   8.4907   9.1861   9.8949  16.8484  18.9066  19.8230
    23.1201  31.8630

          k = 0.5556-0.1111 1.0000 (  1531 PWs)   bands (ev):

     7.0401   7.3937   7.8505   9.0205   9.8974  16.6697  19.4995  20.3687
    21.7475  35.0400

     the Fermi energy is    12.9276 ev

!    total energy              =     -84.18364669 Ry
     Harris-Foulkes estimate   =     -84.18364669 Ry
     estimated scf accuracy    <          5.0E-10 Ry

     The total energy is the sum of the following terms:

     one-electron contribution =      -4.74127260 Ry
     hartree contribution      =      14.55924917 Ry
     xc contribution           =     -22.14038543 Ry
     ewald contribution        =     -71.86118018 Ry
     smearing contrib. (-TS)   =      -0.00005765 Ry

     convergence has been achieved in   6 iterations

     Forces acting on atoms (cartesian axes, Ry/au):

     atom    1 type  1   force =     0.00000000    0.00000000    0.00000000

     Total force =     0.000000     Total SCF correction =     0.000000


     Computing stress (Cartesian axis) and pressure

          total   stress  (Ry/bohr**3)                   (kbar)     P=  -24.39
  -0.00016581   0.00000000   0.00000000        -24.39      0.00      0.00
   0.00000000  -0.00016581  -0.00000000          0.00    -24.39     -0.00
   0.00000000  -0.00000000  -0.00016581          0.00     -0.00    -24.39


     Writing output data file Ag.save/

     init_run     :      0.41s CPU      0.44s WALL (       1 calls)
     electrons    :      4.41s CPU      4.69s WALL (       1 calls)
     forces       :      0.06s CPU      0.06s WALL (       1 calls)
     stress       :      0.23s CPU      0.23s WALL (       1 calls)

     Called by init_run:
     wfcinit      :      0.18s CPU      0.20s WALL (       1 calls)
     potinit      :      0.01s CPU      0.01s WALL (       1 calls)
     hinit0       :      0.19s CPU      0.19s WALL (       1 calls)

     Called by electrons:
     c_bands      :      3.54s CPU      3.77s WALL (       7 calls)
     sum_band     :      0.73s CPU      0.78s WALL (       7 calls)
     v_of_rho     :      0.06s CPU      0.07s WALL (       7 calls)
     newd         :      0.09s CPU      0.09s WALL (       7 calls)
     mix_rho      :      0.00s CPU      0.00s WALL (       7 calls)

     Called by c_bands:
     init_us_2    :      0.11s CPU      0.11s WALL (     595 calls)
     cegterg      :      3.39s CPU      3.62s WALL (     245 calls)

     Called by sum_band:
     sum_band:bec :      0.00s CPU      0.00s WALL (     245 calls)
     addusdens    :      0.09s CPU      0.09s WALL (       7 calls)

     Called by *egterg:
     h_psi        :      2.89s CPU      3.11s WALL (     916 calls)
     s_psi        :      0.07s CPU      0.08s WALL (     916 calls)
     g_psi        :      0.01s CPU      0.01s WALL (     636 calls)
     cdiaghg      :      0.20s CPU      0.20s WALL (     846 calls)

     Called by h_psi:
     h_psi:pot    :      2.88s CPU      3.09s WALL (     916 calls)
     h_psi:calbec :      0.13s CPU      0.14s WALL (     916 calls)
     vloc_psi     :      2.67s CPU      2.87s WALL (     916 calls)
     add_vuspsi   :      0.08s CPU      0.08s WALL (     916 calls)

     General routines
     calbec       :      0.19s CPU      0.20s WALL (    1336 calls)
     fft          :      0.03s CPU      0.04s WALL (     104 calls)
     ffts         :      0.00s CPU      0.00s WALL (       7 calls)
     fftw         :      2.99s CPU      3.21s WALL (   15148 calls)

     Parallel routines
     fft_scatt_xy :      0.24s CPU      0.26s WALL (   15259 calls)
     fft_scatt_yz :      0.82s CPU      0.88s WALL (   15259 calls)

     PWSCF        :     5.92s CPU         6.30s WALL


   This run was terminated on:   0:42:12  27Mar2024            

=------------------------------------------------------------------------------=
   JOB DONE.
=------------------------------------------------------------------------------=
