
     Program PWSCF v.6.3MaX starts on 27Mar2024 at  0:41:20 

     This program is part of the open-source Quantum ESPRESSO suite
     for quantum simulation of materials; please cite
         "P. Giannozzi et al., J. Phys.:Condens. Matter 21 395502 (2009);
         "P. Giannozzi et al., J. Phys.:Condens. Matter 29 465901 (2017);
          URL http://www.quantum-espresso.org", 
     in publications or presentations arising from this work. More details at
     http://www.quantum-espresso.org/quote

     Parallel version (MPI), running on     5 processors

     MPI processes distributed on     1 nodes
     R & G space division:  proc/nbgrp/npool/nimage =       5
     Waiting for input...
     Reading input from standard input

     Current dimensions of program PWSCF are:
     Max number of different atomic species (ntypx) = 10
     Max number of k-points (npk) =  40000
     Max angular momentum in pseudopotentials (lmaxx) =  3

     Subspace diagonalization in iterative solution of the eigenvalue problem:
     a serial algorithm will be used


     Parallelization info
     --------------------
     sticks:   dense  smooth     PW     G-vecs:    dense   smooth      PW
     Min         137     137     42                 2410     2410     416
     Max         139     139     43                 2411     2411     418
     Sum         691     691    211                12051    12051    2085



     bravais-lattice index     =            2
     lattice parameter (alat)  =       7.7200  a.u.
     unit-cell volume          =     115.0249 (a.u.)^3
     number of atoms/cell      =            1
     number of atomic types    =            1
     number of electrons       =        11.00
     number of Kohn-Sham states=           10
     kinetic-energy cutoff     =      85.0000  Ry
     charge density cutoff     =     340.0000  Ry
     convergence threshold     =      1.0E-08
     mixing beta               =       0.7000
     number of iterations used =            8  plain     mixing
     Exchange-correlation      = PBESOL ( 1  4 10  8 0 0)

     celldm(1)=   7.720000  celldm(2)=   0.000000  celldm(3)=   0.000000
     celldm(4)=   0.000000  celldm(5)=   0.000000  celldm(6)=   0.000000

     crystal axes: (cart. coord. in units of alat)
               a(1) = (  -0.500000   0.000000   0.500000 )  
               a(2) = (   0.000000   0.500000   0.500000 )  
               a(3) = (  -0.500000   0.500000   0.000000 )  

     reciprocal axes: (cart. coord. in units 2 pi/alat)
               b(1) = ( -1.000000 -1.000000  1.000000 )  
               b(2) = (  1.000000  1.000000  1.000000 )  
               b(3) = ( -1.000000  1.000000 -1.000000 )  


     PseudoPot. # 1 for Ag read from file:
     /home/lorenzo/pseudos/Ag/Ag.pbesol-n-rrkjus_psl.1.0.0.UPF
     MD5 check sum: 3b43e8aa747a56f565f44d11355b8b45
     Pseudo is Ultrasoft + core correction, Zval = 11.0
     Generated using "atomic" code by A. Dal Corso v.6.2.2
     Using radial grid of 1237 points,  6 beta functions with: 
                l(1) =   0
                l(2) =   0
                l(3) =   1
                l(4) =   1
                l(5) =   2
                l(6) =   2
     Q(r) pseudized with 0 coefficients 


     atomic species   valence    mass     pseudopotential
        Ag            11.00   107.86820     Ag( 1.00)

     48 Sym. Ops., with inversion, found



   Cartesian axes

     site n.     atom                  positions (alat units)
         1           Ag  tau(   1) = (   0.0000000   0.0000000   0.0000000  )

     number of k points=    20  gaussian smearing, width (Ry)=  0.0100
                       cart. coord. in units 2pi/alat
        k(    1) = (   0.0000000   0.0000000   0.0000000), wk =   0.0058309
        k(    2) = (  -0.1428571   0.1428571  -0.1428571), wk =   0.0466472
        k(    3) = (  -0.2857143   0.2857143  -0.2857143), wk =   0.0466472
        k(    4) = (  -0.4285714   0.4285714  -0.4285714), wk =   0.0466472
        k(    5) = (   0.0000000   0.2857143   0.0000000), wk =   0.0349854
        k(    6) = (  -0.1428571   0.4285714  -0.1428571), wk =   0.1399417
        k(    7) = (  -0.2857143   0.5714286  -0.2857143), wk =   0.1399417
        k(    8) = (   0.5714286  -0.2857143   0.5714286), wk =   0.1399417
        k(    9) = (   0.4285714  -0.1428571   0.4285714), wk =   0.1399417
        k(   10) = (   0.2857143  -0.0000000   0.2857143), wk =   0.0699708
        k(   11) = (   0.0000000   0.5714286   0.0000000), wk =   0.0349854
        k(   12) = (  -0.1428571   0.7142857  -0.1428571), wk =   0.1399417
        k(   13) = (   0.7142857  -0.1428571   0.7142857), wk =   0.1399417
        k(   14) = (   0.5714286   0.0000000   0.5714286), wk =   0.0699708
        k(   15) = (   0.0000000   0.8571429   0.0000000), wk =   0.0349854
        k(   16) = (   0.8571429  -0.0000000   0.8571429), wk =   0.0699708
        k(   17) = (  -0.2857143   0.5714286   0.0000000), wk =   0.1399417
        k(   18) = (   0.5714286  -0.2857143   0.8571429), wk =   0.2798834
        k(   19) = (   0.7142857  -0.1428571   1.0000000), wk =   0.1399417
        k(   20) = (   0.5714286   0.0000000   0.8571429), wk =   0.1399417

     Dense  grid:    12051 G-vectors     FFT dimensions: (  36,  36,  36)

     Estimated max dynamical RAM per process >      11.98 MB

     Estimated total dynamical RAM >      59.92 MB

     Initial potential from superposition of free atoms

     starting charge   10.99964, renormalised to   11.00000
     Starting wfcs are    9 randomized atomic wfcs +    1 random wfcs

     total cpu time spent up to now is        1.2 secs

     Self-consistent Calculation

     iteration #  1     ecut=    85.00 Ry     beta= 0.70
     Davidson diagonalization with overlap
     ethr =  1.00E-02,  avg # of iterations =  4.5

     Threshold (ethr) on eigenvalues was too large:
     Diagonalizing with lowered threshold

     Davidson diagonalization with overlap
     ethr =  4.16E-05,  avg # of iterations =  2.8

     total cpu time spent up to now is        2.0 secs

     total energy              =     -84.18408190 Ry
     Harris-Foulkes estimate   =     -84.18729436 Ry
     estimated scf accuracy    <       0.00497063 Ry

     iteration #  2     ecut=    85.00 Ry     beta= 0.70
     Davidson diagonalization with overlap
     ethr =  4.52E-05,  avg # of iterations =  2.0

     total cpu time spent up to now is        2.4 secs

     total energy              =     -84.18523995 Ry
     Harris-Foulkes estimate   =     -84.18708767 Ry
     estimated scf accuracy    <       0.00343402 Ry

     iteration #  3     ecut=    85.00 Ry     beta= 0.70
     Davidson diagonalization with overlap
     ethr =  3.12E-05,  avg # of iterations =  2.0

     total cpu time spent up to now is        2.7 secs

     total energy              =     -84.18600067 Ry
     Harris-Foulkes estimate   =     -84.18600296 Ry
     estimated scf accuracy    <       0.00002580 Ry

     iteration #  4     ecut=    85.00 Ry     beta= 0.70
     Davidson diagonalization with overlap
     ethr =  2.35E-07,  avg # of iterations =  2.5

     total cpu time spent up to now is        3.0 secs

     total energy              =     -84.18600865 Ry
     Harris-Foulkes estimate   =     -84.18600860 Ry
     estimated scf accuracy    <       0.00000037 Ry

     iteration #  5     ecut=    85.00 Ry     beta= 0.70
     Davidson diagonalization with overlap
     ethr =  3.40E-09,  avg # of iterations =  2.3

     total cpu time spent up to now is        3.4 secs

     total energy              =     -84.18600875 Ry
     Harris-Foulkes estimate   =     -84.18600877 Ry
     estimated scf accuracy    <       0.00000004 Ry

     iteration #  6     ecut=    85.00 Ry     beta= 0.70
     Davidson diagonalization with overlap
     ethr =  3.92E-10,  avg # of iterations =  1.9

     total cpu time spent up to now is        3.7 secs

     End of self-consistent calculation

          k = 0.0000 0.0000 0.0000 (  1471 PWs)   bands (ev):

     4.8086   7.9243   7.9243   7.9243   8.9733   8.9733  29.5472  32.8315
    32.8315  37.1528

          k =-0.1429 0.1429-0.1429 (  1501 PWs)   bands (ev):

     5.4142   7.8195   8.0712   8.0712   8.9384   8.9384  27.9974  30.3630
    32.7623  32.7623

          k =-0.2857 0.2857-0.2857 (  1513 PWs)   bands (ev):

     6.3524   8.0963   8.0963   8.5184   9.2214   9.2214  22.4406  29.6926
    32.1152  32.1152

          k =-0.4286 0.4286-0.4286 (  1501 PWs)   bands (ev):

     6.3147   7.9295   7.9295   9.6998   9.6998  11.2810  17.4381  28.7357
    31.0246  31.0246

          k = 0.0000 0.2857 0.0000 (  1511 PWs)   bands (ev):

     5.6188   7.6095   8.2325   8.2325   8.6936   9.1129  29.5760  30.3882
    30.3882  30.6536

          k =-0.1429 0.4286-0.1429 (  1524 PWs)   bands (ev):

     6.5759   7.4864   8.1586   8.4248   9.2621   9.3646  24.7018  28.8607
    29.4066  31.3335

          k =-0.2857 0.5714-0.2857 (  1519 PWs)   bands (ev):

     6.6557   7.7877   8.2876   8.4185   9.7606  11.5229  19.2706  27.8381
    28.3778  29.7724

          k = 0.5714-0.2857 0.5714 (  1517 PWs)   bands (ev):

     6.6264   7.7089   8.1794   8.9080   9.6759  13.4889  16.5917  26.3698
    29.4361  29.4425

          k = 0.4286-0.1429 0.4286 (  1518 PWs)   bands (ev):

     6.8022   7.8595   8.2825   8.3349   9.0718  10.8857  21.0524  26.0066
    30.5275  32.1572

          k = 0.2857-0.0000 0.2857 (  1512 PWs)   bands (ev):

     6.2804   7.5927   8.1997   8.3285   8.6631   9.4373  26.4993  26.7796
    32.7634  33.1355

          k = 0.0000 0.5714 0.0000 (  1515 PWs)   bands (ev):

     6.7200   6.9539   9.0388   9.0388   9.4008   9.4363  26.4595  26.4595
    27.0984  29.6598

          k =-0.1429 0.7143-0.1429 (  1516 PWs)   bands (ev):

     6.6840   6.9316   8.8115   9.0828   9.8007  12.0001  21.9633  24.1439
    25.4840  29.6806

          k = 0.7143-0.1429 0.7143 (  1521 PWs)   bands (ev):

     6.8150   7.3465   8.3751   8.8877   9.7314  15.7590  17.3496  21.9283
    26.3631  29.5398

          k = 0.5714 0.0000 0.5714 (  1528 PWs)   bands (ev):

     7.2184   7.7512   7.8440   8.6912   9.2172  13.5746  20.3974  21.0651
    28.8906  29.8352

          k = 0.0000 0.8571 0.0000 (  1536 PWs)   bands (ev):

     6.3365   6.4714   9.7062   9.8530   9.8530  13.0284  20.8995  23.8262
    23.8262  29.7382

          k = 0.8571-0.0000 0.8571 (  1530 PWs)   bands (ev):

     6.4352   6.6396   9.3742   9.5337   9.8950  15.2786  19.4233  20.9357
    24.1671  29.7091

          k =-0.2857 0.5714 0.0000 (  1518 PWs)   bands (ev):

     7.2128   7.2248   7.9189   9.0322   9.0944  11.0611  23.5288  23.7383
    27.6234  32.9174

          k = 0.5714-0.2857 0.8571 (  1527 PWs)   bands (ev):

     7.0996   7.4292   8.0150   8.7698   9.6306  14.0493  18.4997  23.7430
    25.2559  32.3401

          k = 0.7143-0.1429 1.0000 (  1523 PWs)   bands (ev):

     6.7548   6.8630   8.6153   9.3803   9.8492  14.6864  21.0558  21.5826
    22.1369  32.4059

          k = 0.5714 0.0000 0.8571 (  1529 PWs)   bands (ev):

     7.0042   7.3706   7.9818   9.0033   9.8430  17.4453  18.0813  20.0291
    23.0502  33.0269

     the Fermi energy is    13.0081 ev

!    total energy              =     -84.18600876 Ry
     Harris-Foulkes estimate   =     -84.18600876 Ry
     estimated scf accuracy    <          4.4E-10 Ry

     The total energy is the sum of the following terms:

     one-electron contribution =      -4.74536452 Ry
     hartree contribution      =      14.56159946 Ry
     xc contribution           =     -22.14096698 Ry
     ewald contribution        =     -71.86118018 Ry
     smearing contrib. (-TS)   =      -0.00009653 Ry

     convergence has been achieved in   6 iterations

     Forces acting on atoms (cartesian axes, Ry/au):

     atom    1 type  1   force =     0.00000000    0.00000000    0.00000000

     Total force =     0.000000     Total SCF correction =     0.000000


     Computing stress (Cartesian axis) and pressure

          total   stress  (Ry/bohr**3)                   (kbar)     P=  -26.35
  -0.00017914   0.00000000   0.00000000        -26.35      0.00      0.00
   0.00000000  -0.00017914  -0.00000000          0.00    -26.35     -0.00
   0.00000000  -0.00000000  -0.00017914          0.00     -0.00    -26.35


     Writing output data file Ag.save/

     init_run     :      0.32s CPU      0.34s WALL (       1 calls)
     electrons    :      2.38s CPU      2.51s WALL (       1 calls)
     forces       :      0.05s CPU      0.05s WALL (       1 calls)
     stress       :      0.18s CPU      0.18s WALL (       1 calls)

     Called by init_run:
     wfcinit      :      0.09s CPU      0.10s WALL (       1 calls)
     potinit      :      0.01s CPU      0.01s WALL (       1 calls)
     hinit0       :      0.20s CPU      0.20s WALL (       1 calls)

     Called by electrons:
     c_bands      :      1.80s CPU      1.91s WALL (       7 calls)
     sum_band     :      0.45s CPU      0.46s WALL (       7 calls)
     v_of_rho     :      0.06s CPU      0.06s WALL (       7 calls)
     newd         :      0.08s CPU      0.08s WALL (       7 calls)
     mix_rho      :      0.00s CPU      0.00s WALL (       7 calls)

     Called by c_bands:
     init_us_2    :      0.06s CPU      0.06s WALL (     340 calls)
     cegterg      :      1.72s CPU      1.83s WALL (     140 calls)

     Called by sum_band:
     sum_band:bec :      0.00s CPU      0.00s WALL (     140 calls)
     addusdens    :      0.08s CPU      0.08s WALL (       7 calls)

     Called by *egterg:
     h_psi        :      1.48s CPU      1.57s WALL (     521 calls)
     s_psi        :      0.04s CPU      0.04s WALL (     521 calls)
     g_psi        :      0.00s CPU      0.00s WALL (     361 calls)
     cdiaghg      :      0.10s CPU      0.10s WALL (     481 calls)

     Called by h_psi:
     h_psi:pot    :      1.47s CPU      1.57s WALL (     521 calls)
     h_psi:calbec :      0.06s CPU      0.06s WALL (     521 calls)
     vloc_psi     :      1.37s CPU      1.45s WALL (     521 calls)
     add_vuspsi   :      0.04s CPU      0.04s WALL (     521 calls)

     General routines
     calbec       :      0.10s CPU      0.10s WALL (     761 calls)
     fft          :      0.03s CPU      0.03s WALL (     104 calls)
     ffts         :      0.00s CPU      0.00s WALL (       7 calls)
     fftw         :      1.55s CPU      1.64s WALL (    8664 calls)

     Parallel routines
     fft_scatt_xy :      0.13s CPU      0.14s WALL (    8775 calls)
     fft_scatt_yz :      0.36s CPU      0.38s WALL (    8775 calls)

     PWSCF        :     3.81s CPU         4.00s WALL


   This run was terminated on:   0:41:24  27Mar2024            

=------------------------------------------------------------------------------=
   JOB DONE.
=------------------------------------------------------------------------------=
