
     Program PWSCF v.6.3MaX starts on 27Mar2024 at  0:17:59 

     This program is part of the open-source Quantum ESPRESSO suite
     for quantum simulation of materials; please cite
         "P. Giannozzi et al., J. Phys.:Condens. Matter 21 395502 (2009);
         "P. Giannozzi et al., J. Phys.:Condens. Matter 29 465901 (2017);
          URL http://www.quantum-espresso.org", 
     in publications or presentations arising from this work. More details at
     http://www.quantum-espresso.org/quote

     Parallel version (MPI), running on     5 processors

     MPI processes distributed on     1 nodes
     R & G space division:  proc/nbgrp/npool/nimage =       5
     Waiting for input...
     Reading input from standard input

     Current dimensions of program PWSCF are:
     Max number of different atomic species (ntypx) = 10
     Max number of k-points (npk) =  40000
     Max angular momentum in pseudopotentials (lmaxx) =  3
               file Ag.pbesol-n-kjpaw_psl.1.0.0.UPF: wavefunction(s)  5S 5P renormalized

     Subspace diagonalization in iterative solution of the eigenvalue problem:
     a serial algorithm will be used


     Parallelization info
     --------------------
     sticks:   dense  smooth     PW     G-vecs:    dense   smooth      PW
     Min          62      62     21                  765      765     148
     Max          63      63     22                  770      770     151
     Sum         313     313    109                 3839     3839     749



     bravais-lattice index     =            2
     lattice parameter (alat)  =       7.7200  a.u.
     unit-cell volume          =     115.0249 (a.u.)^3
     number of atoms/cell      =            1
     number of atomic types    =            1
     number of electrons       =        11.00
     number of Kohn-Sham states=           10
     kinetic-energy cutoff     =      40.0000  Ry
     charge density cutoff     =     160.0000  Ry
     convergence threshold     =      1.0E-08
     mixing beta               =       0.7000
     number of iterations used =            8  plain     mixing
     Exchange-correlation      = SLA PW PSX PSC ( 1  4 10  8 0 0)

     celldm(1)=   7.720000  celldm(2)=   0.000000  celldm(3)=   0.000000
     celldm(4)=   0.000000  celldm(5)=   0.000000  celldm(6)=   0.000000

     crystal axes: (cart. coord. in units of alat)
               a(1) = (  -0.500000   0.000000   0.500000 )  
               a(2) = (   0.000000   0.500000   0.500000 )  
               a(3) = (  -0.500000   0.500000   0.000000 )  

     reciprocal axes: (cart. coord. in units 2 pi/alat)
               b(1) = ( -1.000000 -1.000000  1.000000 )  
               b(2) = (  1.000000  1.000000  1.000000 )  
               b(3) = ( -1.000000  1.000000 -1.000000 )  


     PseudoPot. # 1 for Ag read from file:
     /home/lorenzo/pseudos/Ag/Ag.pbesol-n-kjpaw_psl.1.0.0.UPF
     MD5 check sum: 3b245e14fa22881b2ac493bfd23f605f
     Pseudo is Projector augmented-wave + core cor, Zval = 11.0
     Generated using "atomic" code by A. Dal Corso v.6.2.2
     Shape of augmentation charge: PSQ
     Using radial grid of 1237 points,  6 beta functions with: 
                l(1) =   0
                l(2) =   0
                l(3) =   1
                l(4) =   1
                l(5) =   2
                l(6) =   2
     Q(r) pseudized with 0 coefficients 


     atomic species   valence    mass     pseudopotential
        Ag            11.00   107.86820     Ag( 1.00)

     48 Sym. Ops., with inversion, found



   Cartesian axes

     site n.     atom                  positions (alat units)
         1           Ag  tau(   1) = (   0.0000000   0.0000000   0.0000000  )

     number of k points=    35  gaussian smearing, width (Ry)=  0.0100
                       cart. coord. in units 2pi/alat
        k(    1) = (   0.0000000   0.0000000   0.0000000), wk =   0.0027435
        k(    2) = (  -0.1111111   0.1111111  -0.1111111), wk =   0.0219479
        k(    3) = (  -0.2222222   0.2222222  -0.2222222), wk =   0.0219479
        k(    4) = (  -0.3333333   0.3333333  -0.3333333), wk =   0.0219479
        k(    5) = (  -0.4444444   0.4444444  -0.4444444), wk =   0.0219479
        k(    6) = (   0.0000000   0.2222222   0.0000000), wk =   0.0164609
        k(    7) = (  -0.1111111   0.3333333  -0.1111111), wk =   0.0658436
        k(    8) = (  -0.2222222   0.4444444  -0.2222222), wk =   0.0658436
        k(    9) = (  -0.3333333   0.5555556  -0.3333333), wk =   0.0658436
        k(   10) = (   0.5555556  -0.3333333   0.5555556), wk =   0.0658436
        k(   11) = (   0.4444444  -0.2222222   0.4444444), wk =   0.0658436
        k(   12) = (   0.3333333  -0.1111111   0.3333333), wk =   0.0658436
        k(   13) = (   0.2222222  -0.0000000   0.2222222), wk =   0.0329218
        k(   14) = (   0.0000000   0.4444444   0.0000000), wk =   0.0164609
        k(   15) = (  -0.1111111   0.5555556  -0.1111111), wk =   0.0658436
        k(   16) = (  -0.2222222   0.6666667  -0.2222222), wk =   0.0658436
        k(   17) = (   0.6666667  -0.2222222   0.6666667), wk =   0.0658436
        k(   18) = (   0.5555556  -0.1111111   0.5555556), wk =   0.0658436
        k(   19) = (   0.4444444   0.0000000   0.4444444), wk =   0.0329218
        k(   20) = (   0.0000000   0.6666667   0.0000000), wk =   0.0164609
        k(   21) = (  -0.1111111   0.7777778  -0.1111111), wk =   0.0658436
        k(   22) = (   0.7777778  -0.1111111   0.7777778), wk =   0.0658436
        k(   23) = (   0.6666667  -0.0000000   0.6666667), wk =   0.0329218
        k(   24) = (   0.0000000   0.8888889   0.0000000), wk =   0.0164609
        k(   25) = (   0.8888889   0.0000000   0.8888889), wk =   0.0329218
        k(   26) = (  -0.2222222   0.4444444   0.0000000), wk =   0.0658436
        k(   27) = (  -0.3333333   0.5555556  -0.1111111), wk =   0.1316872
        k(   28) = (   0.5555556  -0.3333333   0.7777778), wk =   0.1316872
        k(   29) = (  -0.2222222   0.6666667   0.0000000), wk =   0.0658436
        k(   30) = (   0.6666667  -0.2222222   0.8888889), wk =   0.1316872
        k(   31) = (   0.5555556  -0.1111111   0.7777778), wk =   0.1316872
        k(   32) = (   0.4444444   0.0000000   0.6666667), wk =   0.0658436
        k(   33) = (   0.7777778  -0.1111111   1.0000000), wk =   0.0658436
        k(   34) = (   0.6666667  -0.0000000   0.8888889), wk =   0.0658436
        k(   35) = (   0.5555556  -0.1111111   1.0000000), wk =   0.0658436

     Dense  grid:     3839 G-vectors     FFT dimensions: (  24,  24,  24)

     Estimated max dynamical RAM per process >       4.69 MB

     Estimated total dynamical RAM >      23.46 MB

     Initial potential from superposition of free atoms

     starting charge   10.99964, renormalised to   11.00000
     Starting wfcs are    9 randomized atomic wfcs +    1 random wfcs
     Checking if some PAW data can be deallocated... 

     total cpu time spent up to now is        1.2 secs

     Self-consistent Calculation

     iteration #  1     ecut=    40.00 Ry     beta= 0.70
     Davidson diagonalization with overlap
     ethr =  1.00E-02,  avg # of iterations =  4.5

     Threshold (ethr) on eigenvalues was too large:
     Diagonalizing with lowered threshold

     Davidson diagonalization with overlap
     ethr =  4.80E-05,  avg # of iterations =  1.9

     total cpu time spent up to now is        1.8 secs

     total energy              =    -350.23258814 Ry
     Harris-Foulkes estimate   =    -350.23621841 Ry
     estimated scf accuracy    <       0.00569129 Ry

     iteration #  2     ecut=    40.00 Ry     beta= 0.70
     Davidson diagonalization with overlap
     ethr =  5.17E-05,  avg # of iterations =  2.1

     total cpu time spent up to now is        2.1 secs

     total energy              =    -350.23415051 Ry
     Harris-Foulkes estimate   =    -350.23617185 Ry
     estimated scf accuracy    <       0.00415428 Ry

     iteration #  3     ecut=    40.00 Ry     beta= 0.70
     Davidson diagonalization with overlap
     ethr =  3.78E-05,  avg # of iterations =  1.7

     total cpu time spent up to now is        2.4 secs

     total energy              =    -350.23496779 Ry
     Harris-Foulkes estimate   =    -350.23494879 Ry
     estimated scf accuracy    <       0.00001619 Ry

     iteration #  4     ecut=    40.00 Ry     beta= 0.70
     Davidson diagonalization with overlap
     ethr =  1.47E-07,  avg # of iterations =  3.0

     total cpu time spent up to now is        2.8 secs

     total energy              =    -350.23497652 Ry
     Harris-Foulkes estimate   =    -350.23497629 Ry
     estimated scf accuracy    <       0.00000044 Ry

     iteration #  5     ecut=    40.00 Ry     beta= 0.70
     Davidson diagonalization with overlap
     ethr =  4.02E-09,  avg # of iterations =  1.3

     total cpu time spent up to now is        3.0 secs

     End of self-consistent calculation

          k = 0.0000 0.0000 0.0000 (   531 PWs)   bands (ev):

     4.8065   7.9225   7.9225   7.9225   8.9739   8.9739  29.5458  32.8304
    32.8304  37.1539

          k =-0.1111 0.1111-0.1111 (   513 PWs)   bands (ev):

     5.1832   7.8450   8.0216   8.0216   8.9429   8.9429  28.9629  30.5752
    32.7995  32.7995

          k =-0.2222 0.2222-0.2222 (   489 PWs)   bands (ev):

     6.0563   7.9297   8.1356   8.1356   9.0268   9.0268  24.9416  30.1187
    32.5153  32.5153

          k =-0.3333 0.3333-0.3333 (   492 PWs)   bands (ev):

     6.3859   8.0364   8.0364   9.3011   9.3996   9.3996  20.6261  29.3149
    31.7210  31.7210

          k =-0.4444 0.4444-0.4444 (   489 PWs)   bands (ev):

     6.3018   7.9181   7.9181   9.7291   9.7291  11.5884  17.0198  28.6789
    30.9474  30.9474

          k = 0.0000 0.2222 0.0000 (   515 PWs)   bands (ev):

     5.3099   7.7251   8.1109   8.1109   8.7867   9.0603  29.5623  31.2207
    31.2207  31.2255

          k =-0.1111 0.3333-0.1111 (   497 PWs)   bands (ev):

     6.0594   7.5672   8.2340   8.2915   8.8258   9.1817  26.6660  29.8383
    30.0324  32.5629

          k =-0.2222 0.4444-0.2222 (   500 PWs)   bands (ev):

     6.6019   7.9969   8.0199   8.2741   9.4930   9.7556  22.2595  29.1847
    29.2602  31.4014

          k =-0.3333 0.5556-0.3333 (   491 PWs)   bands (ev):

     6.5320   7.8187   8.1406   8.8235   9.7688  11.7198  18.2513  28.2324
    29.1062  29.9292

          k = 0.5556-0.3333 0.5556 (   491 PWs)   bands (ev):

     6.4988   7.7765   8.0728   9.1637   9.7132  13.0739  16.4401  27.4077
    29.4812  29.8844

          k = 0.4444-0.2222 0.4444 (   494 PWs)   bands (ev):

     6.6029   7.8898   8.1383   8.8066   9.3147  11.1115  19.5318  27.1227
    30.0902  31.7166

          k = 0.3333-0.1111 0.3333 (   497 PWs)   bands (ev):

     6.5675   7.7718   8.1799   8.2845   8.8259   9.7462  23.7319  27.4179
    31.5902  34.2328

          k = 0.2222-0.0000 0.2222 (   501 PWs)   bands (ev):

     5.7617   7.6872   8.1739   8.1763   8.7565   9.1466  28.0904  28.0919
    32.1475  34.4192

          k = 0.0000 0.4444 0.0000 (   496 PWs)   bands (ev):

     6.4606   7.2511   8.6364   8.6364   8.6710   9.2837  28.1484  28.1484
    29.2299  29.6156

          k =-0.1111 0.5556-0.1111 (   492 PWs)   bands (ev):

     6.8163   7.1312   8.4279   8.7885   9.5378   9.9469  24.3015  26.9739
    27.5853  29.9110

          k =-0.2222 0.6667-0.2222 (   491 PWs)   bands (ev):

     6.7775   7.4106   8.3019   8.6796   9.8099  12.1679  20.1272  25.5529
    26.6965  29.5819

          k = 0.6667-0.2222 0.6667 (   491 PWs)   bands (ev):

     6.8454   7.5331   8.3638   8.5523   9.7362  14.8466  16.7706  23.9918
    27.4902  29.4535

          k = 0.5556-0.1111 0.5556 (   498 PWs)   bands (ev):

     7.0729   7.6256   8.2121   8.5134   9.3118  13.2595  19.0368  23.1365
    29.3062  29.8007

          k = 0.4444 0.0000 0.4444 (   495 PWs)   bands (ev):

     7.2751   7.5116   8.0167   8.5564   8.8032  11.1649  23.0119  23.1762
    30.7437  31.8244

          k = 0.0000 0.6667 0.0000 (   480 PWs)   bands (ev):

     6.6288   6.7510   9.3461   9.3461   9.5460  10.4401  24.9436  25.3549
    25.3549  29.6893

          k =-0.1111 0.7778-0.1111 (   488 PWs)   bands (ev):

     6.5551   6.7074   9.2184   9.3417   9.8324  12.5491  22.2220  22.8177
    24.7256  29.7118

          k = 0.7778-0.1111 0.7778 (   484 PWs)   bands (ev):

     6.6527   7.0255   8.7430   9.1750   9.8061  15.4305  18.8202  20.9417
    25.2964  29.6070

          k = 0.6667-0.0000 0.6667 (   498 PWs)   bands (ev):

     6.9427   7.5193   8.1439   8.9288   9.4963  15.7977  18.4638  20.1945
    26.9558  29.6094

          k = 0.0000 0.8889 0.0000 (   480 PWs)   bands (ev):

     6.3043   6.4436   9.7222   9.9028   9.9028  13.4287  20.3643  23.6772
    23.6772  29.7409

          k = 0.8889 0.0000 0.8889 (   480 PWs)   bands (ev):

     6.3730   6.5402   9.5806   9.6136   9.9293  14.8897  19.4100  21.7267
    23.8869  29.7384

          k =-0.2222 0.4444 0.0000 (   493 PWs)   bands (ev):

     6.7836   7.3554   8.0901   8.6363   8.8937   9.7844  25.5254  25.8293
    30.2497  32.2009

          k =-0.3333 0.5556-0.1111 (   491 PWs)   bands (ev):

     6.9713   7.7348   7.8422   8.6287   9.3332  11.2854  21.3480  25.2326
    28.2000  32.1695

          k = 0.5556-0.3333 0.7778 (   490 PWs)   bands (ev):

     6.8587   7.5700   8.3355   8.5208   9.6692  13.6309  17.5499  25.4976
    26.5432  31.3573

          k =-0.2222 0.6667 0.0000 (   488 PWs)   bands (ev):

     6.9299   6.9450   8.4029   9.3381   9.4065  11.5905  23.4436  23.6167
    25.2688  31.7287

          k = 0.6667-0.2222 0.8889 (   492 PWs)   bands (ev):

     6.9110   7.2062   8.1987   9.0878   9.7362  14.0962  19.6213  23.1638
    23.7834  31.8671

          k = 0.5556-0.1111 0.7778 (   489 PWs)   bands (ev):

     7.1005   7.4132   7.9900   8.8608   9.6871  16.1071  17.4052  21.8498
    24.6741  32.0690

          k = 0.4444 0.0000 0.6667 (   493 PWs)   bands (ev):

     7.4420   7.4823   7.6020   8.9161   9.3442  13.4284  20.9143  21.3517
    26.2724  32.8482

          k = 0.7778-0.1111 1.0000 (   488 PWs)   bands (ev):

     6.5701   6.6849   9.0351   9.5217   9.9012  14.5646  20.5052  22.1845
    22.3900  31.4741

          k = 0.6667-0.0000 0.8889 (   489 PWs)   bands (ev):

     6.7717   7.0487   8.4912   9.1897   9.8952  16.8461  18.9049  19.8225
    23.1187  31.8621

          k = 0.5556-0.1111 1.0000 (   491 PWs)   bands (ev):

     7.0432   7.3946   7.8512   9.0241   9.8977  16.6680  19.4972  20.3677
    21.7471  35.0380

     the Fermi energy is    12.9262 ev

!    total energy              =    -350.23497655 Ry
     Harris-Foulkes estimate   =    -350.23497655 Ry
     estimated scf accuracy    <          1.8E-09 Ry

     total all-electron energy =    -10627.245385 Ry

     The total energy is the sum of the following terms:

     one-electron contribution =       1.61565510 Ry
     hartree contribution      =      14.56395292 Ry
     xc contribution           =     -22.14134228 Ry
     ewald contribution        =     -71.86118024 Ry
     one-center paw contrib.   =    -272.41200440 Ry
     smearing contrib. (-TS)   =      -0.00005765 Ry

     convergence has been achieved in   5 iterations

     Forces acting on atoms (cartesian axes, Ry/au):

     atom    1 type  1   force =     0.00000000    0.00000000    0.00000000

     Total force =     0.000000     Total SCF correction =     0.000000


     Computing stress (Cartesian axis) and pressure

          total   stress  (Ry/bohr**3)                   (kbar)     P=  -29.94
  -0.00020349   0.00000000   0.00000000        -29.94      0.00      0.00
   0.00000000  -0.00020349  -0.00000000          0.00    -29.94     -0.00
   0.00000000  -0.00000000  -0.00020349          0.00     -0.00    -29.94


     Writing output data file Ag.save/

     init_run     :      0.31s CPU      0.33s WALL (       1 calls)
     electrons    :      1.75s CPU      1.87s WALL (       1 calls)
     forces       :      0.03s CPU      0.03s WALL (       1 calls)
     stress       :      0.09s CPU      0.09s WALL (       1 calls)

     Called by init_run:
     wfcinit      :      0.07s CPU      0.08s WALL (       1 calls)
     potinit      :      0.09s CPU      0.11s WALL (       1 calls)
     hinit0       :      0.11s CPU      0.12s WALL (       1 calls)

     Called by electrons:
     c_bands      :      1.03s CPU      1.08s WALL (       6 calls)
     sum_band     :      0.20s CPU      0.21s WALL (       6 calls)
     v_of_rho     :      0.02s CPU      0.02s WALL (       6 calls)
     newd         :      0.02s CPU      0.02s WALL (       6 calls)
     PAW_pot      :      0.57s CPU      0.64s WALL (       6 calls)
     mix_rho      :      0.00s CPU      0.00s WALL (       6 calls)

     Called by c_bands:
     init_us_2    :      0.03s CPU      0.04s WALL (     525 calls)
     cegterg      :      0.98s CPU      1.04s WALL (     210 calls)

     Called by sum_band:
     sum_band:bec :      0.00s CPU      0.00s WALL (     210 calls)
     addusdens    :      0.02s CPU      0.02s WALL (       6 calls)

     Called by *egterg:
     h_psi        :      0.76s CPU      0.80s WALL (     757 calls)
     s_psi        :      0.02s CPU      0.03s WALL (     757 calls)
     g_psi        :      0.00s CPU      0.00s WALL (     512 calls)
     cdiaghg      :      0.14s CPU      0.14s WALL (     687 calls)

     Called by h_psi:
     h_psi:pot    :      0.75s CPU      0.80s WALL (     757 calls)
     h_psi:calbec :      0.04s CPU      0.04s WALL (     757 calls)
     vloc_psi     :      0.69s CPU      0.73s WALL (     757 calls)
     add_vuspsi   :      0.02s CPU      0.03s WALL (     757 calls)

     General routines
     calbec       :      0.06s CPU      0.06s WALL (    1142 calls)
     fft          :      0.01s CPU      0.01s WALL (      93 calls)
     ffts         :      0.00s CPU      0.00s WALL (       6 calls)
     fftw         :      0.76s CPU      0.81s WALL (   12984 calls)

     Parallel routines
     fft_scatt_xy :      0.07s CPU      0.08s WALL (   13083 calls)
     fft_scatt_yz :      0.20s CPU      0.22s WALL (   13083 calls)

     PWSCF        :     3.04s CPU         3.23s WALL


   This run was terminated on:   0:18: 2  27Mar2024            

=------------------------------------------------------------------------------=
   JOB DONE.
=------------------------------------------------------------------------------=
