
     Program PWSCF v.6.3MaX starts on 27Mar2024 at  0:25: 9 

     This program is part of the open-source Quantum ESPRESSO suite
     for quantum simulation of materials; please cite
         "P. Giannozzi et al., J. Phys.:Condens. Matter 21 395502 (2009);
         "P. Giannozzi et al., J. Phys.:Condens. Matter 29 465901 (2017);
          URL http://www.quantum-espresso.org", 
     in publications or presentations arising from this work. More details at
     http://www.quantum-espresso.org/quote

     Parallel version (MPI), running on     5 processors

     MPI processes distributed on     1 nodes
     R & G space division:  proc/nbgrp/npool/nimage =       5
     Waiting for input...
     Reading input from standard input

     Current dimensions of program PWSCF are:
     Max number of different atomic species (ntypx) = 10
     Max number of k-points (npk) =  40000
     Max angular momentum in pseudopotentials (lmaxx) =  3
               file Ag.pbesol-n-kjpaw_psl.1.0.0.UPF: wavefunction(s)  5S 5P renormalized

     Subspace diagonalization in iterative solution of the eigenvalue problem:
     a serial algorithm will be used


     Parallelization info
     --------------------
     sticks:   dense  smooth     PW     G-vecs:    dense   smooth      PW
     Min          99      99     32                 1446     1446     272
     Max         100     100     33                 1449     1449     273
     Sum         499     499    163                 7239     7239    1363



     bravais-lattice index     =            2
     lattice parameter (alat)  =       7.7200  a.u.
     unit-cell volume          =     115.0249 (a.u.)^3
     number of atoms/cell      =            1
     number of atomic types    =            1
     number of electrons       =        11.00
     number of Kohn-Sham states=           10
     kinetic-energy cutoff     =      60.0000  Ry
     charge density cutoff     =     240.0000  Ry
     convergence threshold     =      1.0E-08
     mixing beta               =       0.7000
     number of iterations used =            8  plain     mixing
     Exchange-correlation      = SLA PW PSX PSC ( 1  4 10  8 0 0)

     celldm(1)=   7.720000  celldm(2)=   0.000000  celldm(3)=   0.000000
     celldm(4)=   0.000000  celldm(5)=   0.000000  celldm(6)=   0.000000

     crystal axes: (cart. coord. in units of alat)
               a(1) = (  -0.500000   0.000000   0.500000 )  
               a(2) = (   0.000000   0.500000   0.500000 )  
               a(3) = (  -0.500000   0.500000   0.000000 )  

     reciprocal axes: (cart. coord. in units 2 pi/alat)
               b(1) = ( -1.000000 -1.000000  1.000000 )  
               b(2) = (  1.000000  1.000000  1.000000 )  
               b(3) = ( -1.000000  1.000000 -1.000000 )  


     PseudoPot. # 1 for Ag read from file:
     /home/lorenzo/pseudos/Ag/Ag.pbesol-n-kjpaw_psl.1.0.0.UPF
     MD5 check sum: 3b245e14fa22881b2ac493bfd23f605f
     Pseudo is Projector augmented-wave + core cor, Zval = 11.0
     Generated using "atomic" code by A. Dal Corso v.6.2.2
     Shape of augmentation charge: PSQ
     Using radial grid of 1237 points,  6 beta functions with: 
                l(1) =   0
                l(2) =   0
                l(3) =   1
                l(4) =   1
                l(5) =   2
                l(6) =   2
     Q(r) pseudized with 0 coefficients 


     atomic species   valence    mass     pseudopotential
        Ag            11.00   107.86820     Ag( 1.00)

     48 Sym. Ops., with inversion, found



   Cartesian axes

     site n.     atom                  positions (alat units)
         1           Ag  tau(   1) = (   0.0000000   0.0000000   0.0000000  )

     number of k points=    47  gaussian smearing, width (Ry)=  0.0100
                       cart. coord. in units 2pi/alat
        k(    1) = (   0.0000000   0.0000000   0.0000000), wk =   0.0020000
        k(    2) = (  -0.1000000   0.1000000  -0.1000000), wk =   0.0160000
        k(    3) = (  -0.2000000   0.2000000  -0.2000000), wk =   0.0160000
        k(    4) = (  -0.3000000   0.3000000  -0.3000000), wk =   0.0160000
        k(    5) = (  -0.4000000   0.4000000  -0.4000000), wk =   0.0160000
        k(    6) = (   0.5000000  -0.5000000   0.5000000), wk =   0.0080000
        k(    7) = (   0.0000000   0.2000000   0.0000000), wk =   0.0120000
        k(    8) = (  -0.1000000   0.3000000  -0.1000000), wk =   0.0480000
        k(    9) = (  -0.2000000   0.4000000  -0.2000000), wk =   0.0480000
        k(   10) = (  -0.3000000   0.5000000  -0.3000000), wk =   0.0480000
        k(   11) = (   0.6000000  -0.4000000   0.6000000), wk =   0.0480000
        k(   12) = (   0.5000000  -0.3000000   0.5000000), wk =   0.0480000
        k(   13) = (   0.4000000  -0.2000000   0.4000000), wk =   0.0480000
        k(   14) = (   0.3000000  -0.1000000   0.3000000), wk =   0.0480000
        k(   15) = (   0.2000000   0.0000000   0.2000000), wk =   0.0240000
        k(   16) = (   0.0000000   0.4000000   0.0000000), wk =   0.0120000
        k(   17) = (  -0.1000000   0.5000000  -0.1000000), wk =   0.0480000
        k(   18) = (  -0.2000000   0.6000000  -0.2000000), wk =   0.0480000
        k(   19) = (   0.7000000  -0.3000000   0.7000000), wk =   0.0480000
        k(   20) = (   0.6000000  -0.2000000   0.6000000), wk =   0.0480000
        k(   21) = (   0.5000000  -0.1000000   0.5000000), wk =   0.0480000
        k(   22) = (   0.4000000   0.0000000   0.4000000), wk =   0.0240000
        k(   23) = (   0.0000000   0.6000000   0.0000000), wk =   0.0120000
        k(   24) = (  -0.1000000   0.7000000  -0.1000000), wk =   0.0480000
        k(   25) = (   0.8000000  -0.2000000   0.8000000), wk =   0.0480000
        k(   26) = (   0.7000000  -0.1000000   0.7000000), wk =   0.0480000
        k(   27) = (   0.6000000  -0.0000000   0.6000000), wk =   0.0240000
        k(   28) = (   0.0000000   0.8000000   0.0000000), wk =   0.0120000
        k(   29) = (   0.9000000  -0.1000000   0.9000000), wk =   0.0480000
        k(   30) = (   0.8000000   0.0000000   0.8000000), wk =   0.0240000
        k(   31) = (   0.0000000  -1.0000000   0.0000000), wk =   0.0060000
        k(   32) = (  -0.2000000   0.4000000   0.0000000), wk =   0.0480000
        k(   33) = (  -0.3000000   0.5000000  -0.1000000), wk =   0.0960000
        k(   34) = (   0.6000000  -0.4000000   0.8000000), wk =   0.0960000
        k(   35) = (   0.5000000  -0.3000000   0.7000000), wk =   0.0480000
        k(   36) = (  -0.2000000   0.6000000   0.0000000), wk =   0.0480000
        k(   37) = (   0.7000000  -0.3000000   0.9000000), wk =   0.0960000
        k(   38) = (   0.6000000  -0.2000000   0.8000000), wk =   0.0960000
        k(   39) = (   0.5000000  -0.1000000   0.7000000), wk =   0.0960000
        k(   40) = (   0.4000000   0.0000000   0.6000000), wk =   0.0480000
        k(   41) = (   0.8000000  -0.2000000   1.0000000), wk =   0.0480000
        k(   42) = (   0.7000000  -0.1000000   0.9000000), wk =   0.0960000
        k(   43) = (   0.6000000   0.0000000   0.8000000), wk =   0.0480000
        k(   44) = (  -0.2000000  -1.0000000   0.0000000), wk =   0.0240000
        k(   45) = (   0.6000000  -0.2000000   1.0000000), wk =   0.0480000
        k(   46) = (   0.5000000  -0.1000000   0.9000000), wk =   0.0480000
        k(   47) = (  -0.4000000  -1.0000000   0.0000000), wk =   0.0240000

     Dense  grid:     7239 G-vectors     FFT dimensions: (  27,  27,  27)

     Estimated max dynamical RAM per process >       8.24 MB

     Estimated total dynamical RAM >      41.21 MB

     Initial potential from superposition of free atoms

     starting charge   10.99964, renormalised to   11.00000
     Starting wfcs are    9 randomized atomic wfcs +    1 random wfcs
     Checking if some PAW data can be deallocated... 

     total cpu time spent up to now is        1.4 secs

     Self-consistent Calculation

     iteration #  1     ecut=    60.00 Ry     beta= 0.70
     Davidson diagonalization with overlap
     ethr =  1.00E-02,  avg # of iterations =  4.7

     Threshold (ethr) on eigenvalues was too large:
     Diagonalizing with lowered threshold

     Davidson diagonalization with overlap
     ethr =  4.56E-05,  avg # of iterations =  2.1

     total cpu time spent up to now is        2.7 secs

     total energy              =    -350.23626013 Ry
     Harris-Foulkes estimate   =    -350.23984547 Ry
     estimated scf accuracy    <       0.00542045 Ry

     iteration #  2     ecut=    60.00 Ry     beta= 0.70
     Davidson diagonalization with overlap
     ethr =  4.93E-05,  avg # of iterations =  2.1

     total cpu time spent up to now is        3.4 secs

     total energy              =    -350.23780268 Ry
     Harris-Foulkes estimate   =    -350.23981719 Ry
     estimated scf accuracy    <       0.00419860 Ry

     iteration #  3     ecut=    60.00 Ry     beta= 0.70
     Davidson diagonalization with overlap
     ethr =  3.82E-05,  avg # of iterations =  1.6

     total cpu time spent up to now is        3.9 secs

     total energy              =    -350.23860220 Ry
     Harris-Foulkes estimate   =    -350.23858526 Ry
     estimated scf accuracy    <       0.00001459 Ry

     iteration #  4     ecut=    60.00 Ry     beta= 0.70
     Davidson diagonalization with overlap
     ethr =  1.33E-07,  avg # of iterations =  3.0

     total cpu time spent up to now is        4.6 secs

     total energy              =    -350.23861096 Ry
     Harris-Foulkes estimate   =    -350.23861078 Ry
     estimated scf accuracy    <       0.00000053 Ry

     iteration #  5     ecut=    60.00 Ry     beta= 0.70
     Davidson diagonalization with overlap
     ethr =  4.82E-09,  avg # of iterations =  1.0

     total cpu time spent up to now is        5.1 secs

     End of self-consistent calculation

          k = 0.0000 0.0000 0.0000 (   893 PWs)   bands (ev):

     4.8054   7.9192   7.9192   7.9192   8.9728   8.9728  29.5444  32.8295
    32.8295  37.1492

          k =-0.1000 0.1000-0.1000 (   914 PWs)   bands (ev):

     5.1127   7.8535   8.0016   8.0016   8.9446   8.9446  29.1900  30.7416
    32.8071  32.8071

          k =-0.2000 0.2000-0.2000 (   914 PWs)   bands (ev):

     5.8838   7.8482   8.1267   8.1267   8.9817   8.9817  25.8196  30.2126
    32.6089  32.6090

          k =-0.3000 0.3000-0.3000 (   905 PWs)   bands (ev):

     6.3711   8.0764   8.0764   8.7239   9.2717   9.2717  21.8842  29.5769
    31.9979  31.9979

          k =-0.4000 0.4000-0.4000 (   899 PWs)   bands (ev):

     6.3348   7.9528   7.9528   9.6248   9.6248  10.6734  18.2948  28.8674
    31.1917  31.1917

          k = 0.5000-0.5000 0.5000 (   886 PWs)   bands (ev):

     6.2812   7.8984   7.8984   9.7765   9.7765  12.1895  16.2539  28.5897
    30.8285  30.8285

          k = 0.0000 0.2000 0.0000 (   909 PWs)   bands (ev):

     5.2159   7.7576   8.0722   8.0722   8.8165   9.0430  29.5578  31.4320
    31.4893  31.4893

          k =-0.1000 0.3000-0.1000 (   907 PWs)   bands (ev):

     5.8542   7.6118   8.2169   8.2368   8.7764   9.1308  27.3426  29.9403
    30.4481  32.7074

          k =-0.2000 0.4000-0.2000 (   906 PWs)   bands (ev):

     6.5082   7.8407   8.0958   8.2634   9.3530   9.3747  23.3736  29.4649
    29.6871  32.2274

          k =-0.3000 0.5000-0.3000 (   904 PWs)   bands (ev):

     6.5350   7.8938   8.1517   8.6543   9.6794  10.7798  19.5923  28.7072
    29.3184  30.6067

          k = 0.6000-0.4000 0.6000 (   903 PWs)   bands (ev):

     6.4576   7.7941   8.0539   9.1718   9.7867  12.7304  16.6362  27.9899
    29.5887  29.6534

          k = 0.5000-0.3000 0.5000 (   897 PWs)   bands (ev):

     6.4881   7.8306   8.0519   9.1936   9.5861  12.1654  17.4490  27.5441
    29.6498  30.6952

          k = 0.4000-0.2000 0.4000 (   899 PWs)   bands (ev):

     6.5923   7.9537   8.1549   8.5946   9.1674  10.4149  20.8269  27.5526
    30.4976  32.6327

          k = 0.3000-0.1000 0.3000 (   902 PWs)   bands (ev):

     6.3775   7.7123   8.1871   8.2645   8.7813   9.4901  24.7080  27.9448
    31.9002  34.0655

          k = 0.2000 0.0000 0.2000 (   911 PWs)   bands (ev):

     5.5931   7.7200   8.1245   8.1471   8.7881   9.0862  28.4886  28.6605
    32.0157  34.2549

          k = 0.0000 0.4000 0.0000 (   909 PWs)   bands (ev):

     6.2441   7.3532   8.5066   8.5066   8.6107   9.2305  28.7736  28.7736
    29.6010  29.6730

          k =-0.1000 0.5000-0.1000 (   899 PWs)   bands (ev):

     6.7463   7.2062   8.3351   8.6728   9.4309   9.4460  25.1916  27.6322
    28.6463  30.1583

          k =-0.2000 0.6000-0.2000 (   893 PWs)   bands (ev):

     6.7931   7.4750   8.1953   8.6079   9.7227  11.1216  21.3188  26.9010
    27.1335  29.7222

          k = 0.7000-0.3000 0.7000 (   902 PWs)   bands (ev):

     6.7674   7.5751   8.3689   8.4844   9.8150  13.4234  17.8675  25.3469
    27.4314  29.4420

          k = 0.6000-0.2000 0.6000 (   918 PWs)   bands (ev):

     6.8649   7.5937   8.4147   8.4778   9.5879  14.2283  17.0342  24.2839
    28.5981  29.5165

          k = 0.5000-0.1000 0.5000 (   900 PWs)   bands (ev):

     7.0630   7.6902   8.1903   8.4450   9.1341  12.1271  20.2577  23.8515
    30.1179  30.5219

          k = 0.4000 0.0000 0.4000 (   909 PWs)   bands (ev):

     7.0982   7.4964   8.0755   8.5583   8.6576  10.5246  23.8898  24.1848
    31.2676  32.9186

          k = 0.0000 0.6000 0.0000 (   894 PWs)   bands (ev):

     6.7063   6.8858   9.1278   9.1278   9.4693   9.6764  26.1066  26.1066
    26.4651  29.6652

          k =-0.1000 0.7000-0.1000 (   901 PWs)   bands (ev):

     6.6580   6.8043   9.0244   9.1962   9.7307  11.4090  23.2424  24.3344
    25.3093  29.7286

          k = 0.8000-0.2000 0.8000 (   904 PWs)   bands (ev):

     6.6660   7.0260   8.7140   9.0698   9.8553  13.8260  19.8069  22.5492
    25.4194  29.5999

          k = 0.7000-0.1000 0.7000 (   897 PWs)   bands (ev):

     6.8437   7.3793   8.3196   8.9242   9.6524  16.4484  17.0516  21.2150
    26.4696  29.5591

          k = 0.6000-0.0000 0.6000 (   899 PWs)   bands (ev):

     7.1388   7.7671   7.8455   8.7509   9.3008  14.2076  19.7969  20.7489
    28.2785  29.7311

          k = 0.0000 0.8000 0.0000 (   902 PWs)   bands (ev):

     6.4111   6.5302   9.6683   9.7256   9.7256  12.2386  21.9984  24.1700
    24.1700  29.7226

          k = 0.9000-0.1000 0.9000 (   907 PWs)   bands (ev):

     6.3923   6.5428   9.5694   9.5802   9.9139  14.0838  20.2428  22.1631
    23.9801  29.7359

          k = 0.8000 0.0000 0.8000 (   904 PWs)   bands (ev):

     6.5630   6.8716   8.9690   9.3609   9.8007  16.1011  19.1175  19.7984
    24.8135  29.6464

          k = 0.0000-1.0000 0.0000 (   934 PWs)   bands (ev):

     6.2502   6.3990   9.7455   9.9846   9.9846  14.2120  19.3772  23.4487
    23.4487  29.7454

          k =-0.2000 0.4000 0.0000 (   899 PWs)   bands (ev):

     6.5256   7.4221   8.1577   8.5079   8.8173   9.5140  26.2924  26.5682
    31.0956  31.9737

          k =-0.3000 0.5000-0.1000 (   903 PWs)   bands (ev):

     6.9164   7.6714   7.9115   8.5529   9.1860  10.5553  22.4726  25.9089
    29.2582  32.2528

          k = 0.6000-0.4000 0.8000 (   899 PWs)   bands (ev):

     6.8062   7.6851   8.2497   8.5017   9.5852  12.3761  18.8259  25.8824
    27.6557  31.3709

          k = 0.5000-0.3000 0.7000 (   900 PWs)   bands (ev):

     6.7512   7.5967   8.3217   8.6453   9.7165  14.1502  16.4489  26.4248
    26.5369  30.9704

          k =-0.2000 0.6000 0.0000 (   895 PWs)   bands (ev):

     6.9668   7.0252   8.3044   9.1205   9.3228  10.7195  24.2851  24.4987
    26.7078  31.5278

          k = 0.7000-0.3000 0.9000 (   897 PWs)   bands (ev):

     6.9151   7.2528   8.1520   9.0263   9.6379  12.7047  20.6972  24.1747
    24.8710  31.6118

          k = 0.6000-0.2000 0.8000 (   907 PWs)   bands (ev):

     6.9883   7.3939   8.1224   8.8069   9.7356  15.2342  17.4528  23.3192
    24.7899  31.5522

          k = 0.5000-0.1000 0.7000 (   902 PWs)   bands (ev):

     7.2121   7.4305   7.9602   8.7652   9.5275  14.4461  18.5685  22.3855
    25.9453  32.0187

          k = 0.4000 0.0000 0.6000 (   900 PWs)   bands (ev):

     7.4024   7.5163   7.6233   8.8940   9.1344  12.2445  22.0591  22.1362
    27.5053  33.0662

          k = 0.8000-0.2000 1.0000 (   905 PWs)   bands (ev):

     6.6370   6.7152   8.9258   9.5682   9.7218  13.1657  22.0595  22.8573
    23.0235  31.2453

          k = 0.7000-0.1000 0.9000 (   907 PWs)   bands (ev):

     6.7247   6.9646   8.5953   9.2662   9.8701  15.5808  19.5900  20.7678
    23.2874  31.4984

          k = 0.6000 0.0000 0.8000 (   905 PWs)   bands (ev):

     6.9618   7.3713   8.0913   9.0002   9.7178  16.8560  18.0704  20.0483
    24.4009  31.7166

          k =-0.2000-1.0000 0.0000 (   912 PWs)   bands (ev):

     6.4662   6.6000   9.2978   9.5304   9.9852  15.2400  19.4328  22.2202
    22.3710  31.1596

          k = 0.6000-0.2000 1.0000 (   902 PWs)   bands (ev):

     7.1112   7.2570   7.9168   9.1066   9.7142  14.8738  20.4702  20.9926
    23.1623  34.3659

          k = 0.5000-0.1000 0.9000 (   902 PWs)   bands (ev):

     7.0987   7.4938   7.7421   8.9604   9.8575  17.4440  17.6256  21.2722
    22.1442  34.2841

          k =-0.4000-1.0000 0.0000 (   896 PWs)   bands (ev):

     6.9138   7.1947   8.1457   9.0790   9.9861  17.3806  19.6173  19.8548
    21.0685  34.1842

     the Fermi energy is    12.5920 ev

!    total energy              =    -350.23861098 Ry
     Harris-Foulkes estimate   =    -350.23861099 Ry
     estimated scf accuracy    <          5.9E-09 Ry

     total all-electron energy =    -10627.249020 Ry

     The total energy is the sum of the following terms:

     one-electron contribution =       1.60915194 Ry
     hartree contribution      =      14.57150753 Ry
     xc contribution           =     -22.14384158 Ry
     ewald contribution        =     -71.86118019 Ry
     one-center paw contrib.   =    -272.41404210 Ry
     smearing contrib. (-TS)   =      -0.00020657 Ry

     convergence has been achieved in   5 iterations

     Forces acting on atoms (cartesian axes, Ry/au):

     atom    1 type  1   force =     0.00000000    0.00000000    0.00000000

     Total force =     0.000000     Total SCF correction =     0.000000


     Computing stress (Cartesian axis) and pressure

          total   stress  (Ry/bohr**3)                   (kbar)     P=  -27.90
  -0.00018963   0.00000000   0.00000000        -27.90      0.00      0.00
   0.00000000  -0.00018963  -0.00000000          0.00    -27.90     -0.00
   0.00000000  -0.00000000  -0.00018963          0.00     -0.00    -27.90


     Writing output data file Ag.save/

     init_run     :      0.53s CPU      0.57s WALL (       1 calls)
     electrons    :      3.44s CPU      3.63s WALL (       1 calls)
     forces       :      0.07s CPU      0.07s WALL (       1 calls)
     stress       :      0.16s CPU      0.16s WALL (       1 calls)

     Called by init_run:
     wfcinit      :      0.18s CPU      0.18s WALL (       1 calls)
     potinit      :      0.15s CPU      0.17s WALL (       1 calls)
     hinit0       :      0.18s CPU      0.18s WALL (       1 calls)

     Called by electrons:
     c_bands      :      2.37s CPU      2.47s WALL (       6 calls)
     sum_band     :      0.48s CPU      0.49s WALL (       6 calls)
     v_of_rho     :      0.03s CPU      0.03s WALL (       6 calls)
     newd         :      0.05s CPU      0.06s WALL (       6 calls)
     PAW_pot      :      0.67s CPU      0.76s WALL (       6 calls)
     mix_rho      :      0.00s CPU      0.00s WALL (       6 calls)

     Called by c_bands:
     init_us_2    :      0.08s CPU      0.08s WALL (     705 calls)
     cegterg      :      2.26s CPU      2.35s WALL (     282 calls)

     Called by sum_band:
     sum_band:bec :      0.00s CPU      0.00s WALL (     282 calls)
     addusdens    :      0.04s CPU      0.04s WALL (       6 calls)

     Called by *egterg:
     h_psi        :      1.85s CPU      1.94s WALL (    1008 calls)
     s_psi        :      0.06s CPU      0.06s WALL (    1008 calls)
     g_psi        :      0.01s CPU      0.01s WALL (     679 calls)
     cdiaghg      :      0.21s CPU      0.21s WALL (     914 calls)

     Called by h_psi:
     h_psi:pot    :      1.84s CPU      1.93s WALL (    1008 calls)
     h_psi:calbec :      0.10s CPU      0.10s WALL (    1008 calls)
     vloc_psi     :      1.68s CPU      1.76s WALL (    1008 calls)
     add_vuspsi   :      0.06s CPU      0.06s WALL (    1008 calls)

     General routines
     calbec       :      0.17s CPU      0.17s WALL (    1525 calls)
     fft          :      0.02s CPU      0.02s WALL (      93 calls)
     ffts         :      0.00s CPU      0.00s WALL (       6 calls)
     fftw         :      1.91s CPU      1.99s WALL (   17434 calls)

     Parallel routines
     fft_scatt_xy :      0.15s CPU      0.16s WALL (   17533 calls)
     fft_scatt_yz :      0.57s CPU      0.59s WALL (   17533 calls)

     PWSCF        :     5.13s CPU         5.41s WALL


   This run was terminated on:   0:25:14  27Mar2024            

=------------------------------------------------------------------------------=
   JOB DONE.
=------------------------------------------------------------------------------=
