
     Program PWSCF v.6.3MaX starts on 27Mar2024 at  0:20:21 

     This program is part of the open-source Quantum ESPRESSO suite
     for quantum simulation of materials; please cite
         "P. Giannozzi et al., J. Phys.:Condens. Matter 21 395502 (2009);
         "P. Giannozzi et al., J. Phys.:Condens. Matter 29 465901 (2017);
          URL http://www.quantum-espresso.org", 
     in publications or presentations arising from this work. More details at
     http://www.quantum-espresso.org/quote

     Parallel version (MPI), running on     5 processors

     MPI processes distributed on     1 nodes
     R & G space division:  proc/nbgrp/npool/nimage =       5
     Waiting for input...
     Reading input from standard input

     Current dimensions of program PWSCF are:
     Max number of different atomic species (ntypx) = 10
     Max number of k-points (npk) =  40000
     Max angular momentum in pseudopotentials (lmaxx) =  3

     Subspace diagonalization in iterative solution of the eigenvalue problem:
     a serial algorithm will be used


     Parallelization info
     --------------------
     sticks:   dense  smooth     PW     G-vecs:    dense   smooth      PW
     Min          84      84     27                 1115     1115     207
     Max          85      85     28                 1117     1117     208
     Sum         421     421    139                 5577     5577    1037



     bravais-lattice index     =            2
     lattice parameter (alat)  =       7.7200  a.u.
     unit-cell volume          =     115.0249 (a.u.)^3
     number of atoms/cell      =            1
     number of atomic types    =            1
     number of electrons       =        11.00
     number of Kohn-Sham states=           10
     kinetic-energy cutoff     =      50.0000  Ry
     charge density cutoff     =     200.0000  Ry
     convergence threshold     =      1.0E-08
     mixing beta               =       0.7000
     number of iterations used =            8  plain     mixing
     Exchange-correlation      = PBE ( 1  4  3  4 0 0)

     celldm(1)=   7.720000  celldm(2)=   0.000000  celldm(3)=   0.000000
     celldm(4)=   0.000000  celldm(5)=   0.000000  celldm(6)=   0.000000

     crystal axes: (cart. coord. in units of alat)
               a(1) = (  -0.500000   0.000000   0.500000 )  
               a(2) = (   0.000000   0.500000   0.500000 )  
               a(3) = (  -0.500000   0.500000   0.000000 )  

     reciprocal axes: (cart. coord. in units 2 pi/alat)
               b(1) = ( -1.000000 -1.000000  1.000000 )  
               b(2) = (  1.000000  1.000000  1.000000 )  
               b(3) = ( -1.000000  1.000000 -1.000000 )  


     PseudoPot. # 1 for Ag read from file:
     /home/lorenzo/pseudos/Ag/Ag.pbe-n-rrkjus_psl.1.0.0.UPF
     MD5 check sum: d841cbfac2b0861aec33b46768a516bf
     Pseudo is Ultrasoft + core correction, Zval = 11.0
     Generated using "atomic" code by A. Dal Corso v.6.2.2
     Using radial grid of 1237 points,  6 beta functions with: 
                l(1) =   0
                l(2) =   0
                l(3) =   1
                l(4) =   1
                l(5) =   2
                l(6) =   2
     Q(r) pseudized with 0 coefficients 


     atomic species   valence    mass     pseudopotential
        Ag            11.00   107.86820     Ag( 1.00)

     48 Sym. Ops., with inversion, found



   Cartesian axes

     site n.     atom                  positions (alat units)
         1           Ag  tau(   1) = (   0.0000000   0.0000000   0.0000000  )

     number of k points=    47  gaussian smearing, width (Ry)=  0.0100
                       cart. coord. in units 2pi/alat
        k(    1) = (   0.0000000   0.0000000   0.0000000), wk =   0.0020000
        k(    2) = (  -0.1000000   0.1000000  -0.1000000), wk =   0.0160000
        k(    3) = (  -0.2000000   0.2000000  -0.2000000), wk =   0.0160000
        k(    4) = (  -0.3000000   0.3000000  -0.3000000), wk =   0.0160000
        k(    5) = (  -0.4000000   0.4000000  -0.4000000), wk =   0.0160000
        k(    6) = (   0.5000000  -0.5000000   0.5000000), wk =   0.0080000
        k(    7) = (   0.0000000   0.2000000   0.0000000), wk =   0.0120000
        k(    8) = (  -0.1000000   0.3000000  -0.1000000), wk =   0.0480000
        k(    9) = (  -0.2000000   0.4000000  -0.2000000), wk =   0.0480000
        k(   10) = (  -0.3000000   0.5000000  -0.3000000), wk =   0.0480000
        k(   11) = (   0.6000000  -0.4000000   0.6000000), wk =   0.0480000
        k(   12) = (   0.5000000  -0.3000000   0.5000000), wk =   0.0480000
        k(   13) = (   0.4000000  -0.2000000   0.4000000), wk =   0.0480000
        k(   14) = (   0.3000000  -0.1000000   0.3000000), wk =   0.0480000
        k(   15) = (   0.2000000   0.0000000   0.2000000), wk =   0.0240000
        k(   16) = (   0.0000000   0.4000000   0.0000000), wk =   0.0120000
        k(   17) = (  -0.1000000   0.5000000  -0.1000000), wk =   0.0480000
        k(   18) = (  -0.2000000   0.6000000  -0.2000000), wk =   0.0480000
        k(   19) = (   0.7000000  -0.3000000   0.7000000), wk =   0.0480000
        k(   20) = (   0.6000000  -0.2000000   0.6000000), wk =   0.0480000
        k(   21) = (   0.5000000  -0.1000000   0.5000000), wk =   0.0480000
        k(   22) = (   0.4000000   0.0000000   0.4000000), wk =   0.0240000
        k(   23) = (   0.0000000   0.6000000   0.0000000), wk =   0.0120000
        k(   24) = (  -0.1000000   0.7000000  -0.1000000), wk =   0.0480000
        k(   25) = (   0.8000000  -0.2000000   0.8000000), wk =   0.0480000
        k(   26) = (   0.7000000  -0.1000000   0.7000000), wk =   0.0480000
        k(   27) = (   0.6000000  -0.0000000   0.6000000), wk =   0.0240000
        k(   28) = (   0.0000000   0.8000000   0.0000000), wk =   0.0120000
        k(   29) = (   0.9000000  -0.1000000   0.9000000), wk =   0.0480000
        k(   30) = (   0.8000000   0.0000000   0.8000000), wk =   0.0240000
        k(   31) = (   0.0000000  -1.0000000   0.0000000), wk =   0.0060000
        k(   32) = (  -0.2000000   0.4000000   0.0000000), wk =   0.0480000
        k(   33) = (  -0.3000000   0.5000000  -0.1000000), wk =   0.0960000
        k(   34) = (   0.6000000  -0.4000000   0.8000000), wk =   0.0960000
        k(   35) = (   0.5000000  -0.3000000   0.7000000), wk =   0.0480000
        k(   36) = (  -0.2000000   0.6000000   0.0000000), wk =   0.0480000
        k(   37) = (   0.7000000  -0.3000000   0.9000000), wk =   0.0960000
        k(   38) = (   0.6000000  -0.2000000   0.8000000), wk =   0.0960000
        k(   39) = (   0.5000000  -0.1000000   0.7000000), wk =   0.0960000
        k(   40) = (   0.4000000   0.0000000   0.6000000), wk =   0.0480000
        k(   41) = (   0.8000000  -0.2000000   1.0000000), wk =   0.0480000
        k(   42) = (   0.7000000  -0.1000000   0.9000000), wk =   0.0960000
        k(   43) = (   0.6000000   0.0000000   0.8000000), wk =   0.0480000
        k(   44) = (  -0.2000000  -1.0000000   0.0000000), wk =   0.0240000
        k(   45) = (   0.6000000  -0.2000000   1.0000000), wk =   0.0480000
        k(   46) = (   0.5000000  -0.1000000   0.9000000), wk =   0.0480000
        k(   47) = (  -0.4000000  -1.0000000   0.0000000), wk =   0.0240000

     Dense  grid:     5577 G-vectors     FFT dimensions: (  25,  25,  25)

     Estimated max dynamical RAM per process >       6.54 MB

     Estimated total dynamical RAM >      32.70 MB

     Initial potential from superposition of free atoms

     starting charge   10.99960, renormalised to   11.00000
     Starting wfcs are    9 randomized atomic wfcs +    1 random wfcs

     total cpu time spent up to now is        1.0 secs

     Self-consistent Calculation

     iteration #  1     ecut=    50.00 Ry     beta= 0.70
     Davidson diagonalization with overlap
     ethr =  1.00E-02,  avg # of iterations =  4.6

     Threshold (ethr) on eigenvalues was too large:
     Diagonalizing with lowered threshold

     Davidson diagonalization with overlap
     ethr =  2.36E-05,  avg # of iterations =  2.7

     total cpu time spent up to now is        1.9 secs

     total energy              =     -84.26671434 Ry
     Harris-Foulkes estimate   =     -84.26822540 Ry
     estimated scf accuracy    <       0.00286929 Ry

     iteration #  2     ecut=    50.00 Ry     beta= 0.70
     Davidson diagonalization with overlap
     ethr =  2.61E-05,  avg # of iterations =  2.0

     total cpu time spent up to now is        2.3 secs

     total energy              =     -84.26730952 Ry
     Harris-Foulkes estimate   =     -84.26825417 Ry
     estimated scf accuracy    <       0.00173665 Ry

     iteration #  3     ecut=    50.00 Ry     beta= 0.70
     Davidson diagonalization with overlap
     ethr =  1.58E-05,  avg # of iterations =  2.0

     total cpu time spent up to now is        2.7 secs

     total energy              =     -84.26772309 Ry
     Harris-Foulkes estimate   =     -84.26772122 Ry
     estimated scf accuracy    <       0.00002979 Ry

     iteration #  4     ecut=    50.00 Ry     beta= 0.70
     Davidson diagonalization with overlap
     ethr =  2.71E-07,  avg # of iterations =  2.2

     total cpu time spent up to now is        3.0 secs

     total energy              =     -84.26772880 Ry
     Harris-Foulkes estimate   =     -84.26772868 Ry
     estimated scf accuracy    <       0.00000020 Ry

     iteration #  5     ecut=    50.00 Ry     beta= 0.70
     Davidson diagonalization with overlap
     ethr =  1.79E-09,  avg # of iterations =  2.6

     total cpu time spent up to now is        3.4 secs

     total energy              =     -84.26772891 Ry
     Harris-Foulkes estimate   =     -84.26772894 Ry
     estimated scf accuracy    <       0.00000007 Ry

     iteration #  6     ecut=    50.00 Ry     beta= 0.70
     Davidson diagonalization with overlap
     ethr =  5.95E-10,  avg # of iterations =  2.0

     total cpu time spent up to now is        3.8 secs

     End of self-consistent calculation

          k = 0.0000 0.0000 0.0000 (   701 PWs)   bands (ev):

     5.0702   8.0981   8.0981   8.0981   9.1359   9.1359  29.8036  33.0939
    33.0939  37.3851

          k =-0.1000 0.1000-0.1000 (   685 PWs)   bands (ev):

     5.3773   8.0342   8.1808   8.1808   9.1092   9.1092  29.4450  31.0011
    33.0700  33.0700

          k =-0.2000 0.2000-0.2000 (   685 PWs)   bands (ev):

     6.1412   8.0392   8.3039   8.3039   9.1474   9.1474  26.0708  30.4670
    32.8709  32.8709

          k =-0.3000 0.3000-0.3000 (   682 PWs)   bands (ev):

     6.5947   8.2521   8.2521   8.9527   9.4374   9.4374  22.1315  29.8299
    32.2655  32.2655

          k =-0.4000 0.4000-0.4000 (   679 PWs)   bands (ev):

     6.5429   8.1287   8.1287   9.7883   9.7883  10.9246  18.5361  29.1209
    31.4667  31.4667

          k = 0.5000-0.5000 0.5000 (   700 PWs)   bands (ev):

     6.4861   8.0737   8.0737   9.9377   9.9377  12.4535  16.4850  28.8435
    31.1062  31.1062

          k = 0.0000 0.2000 0.0000 (   693 PWs)   bands (ev):

     5.4805   7.9376   8.2511   8.2511   8.9822   9.2063  29.8127  31.6865
    31.7513  31.7513

          k =-0.1000 0.3000-0.1000 (   683 PWs)   bands (ev):

     6.1155   7.7953   8.3942   8.4141   8.9474   9.2944  27.5953  30.1918
    30.7097  32.9640

          k =-0.2000 0.4000-0.2000 (   691 PWs)   bands (ev):

     6.7400   8.0413   8.2713   8.4386   9.5385   9.5395  23.6233  29.7131
    29.9507  32.4912

          k =-0.3000 0.5000-0.3000 (   691 PWs)   bands (ev):

     6.7430   8.0698   8.3263   8.8463   9.8418  11.0013  19.8376  28.9559
    29.5859  30.8744

          k = 0.6000-0.4000 0.6000 (   689 PWs)   bands (ev):

     6.6612   7.9709   8.2288   9.3504   9.9485  12.9765  16.8721  28.2418
    29.8596  29.9207

          k = 0.5000-0.3000 0.5000 (   688 PWs)   bands (ev):

     6.6925   8.0075   8.2263   9.3748   9.7502  12.4029  17.6885  27.7987
    29.9145  30.9670

          k = 0.4000-0.2000 0.4000 (   678 PWs)   bands (ev):

     6.8055   8.1314   8.3295   8.7977   9.3348  10.6147  21.0737  27.8066
    30.7606  32.9035

          k = 0.3000-0.1000 0.3000 (   679 PWs)   bands (ev):

     6.6253   7.9035   8.3674   8.4401   8.9496   9.6619  24.9587  28.1977
    32.1620  34.3260

          k = 0.2000 0.0000 0.2000 (   682 PWs)   bands (ev):

     5.8564   7.9021   8.3025   8.3261   8.9545   9.2515  28.7401  28.9164
    32.2791  34.5162

          k = 0.0000 0.4000 0.0000 (   681 PWs)   bands (ev):

     6.4993   7.5373   8.6831   8.6831   8.7908   9.3929  29.0357  29.0357
    29.8470  29.9164

          k =-0.1000 0.5000-0.1000 (   683 PWs)   bands (ev):

     6.9741   7.3957   8.5192   8.8465   9.5931   9.6425  25.4462  27.8959
    28.8908  30.4115

          k =-0.2000 0.6000-0.2000 (   682 PWs)   bands (ev):

     6.9931   7.6638   8.3872   8.7799   9.8848  11.3408  21.5703  27.1502
    27.3994  29.9733

          k = 0.7000-0.3000 0.7000 (   691 PWs)   bands (ev):

     6.9646   7.7566   8.5579   8.6561   9.9768  13.6581  18.1134  25.5984
    27.6986  29.6935

          k = 0.6000-0.2000 0.6000 (   687 PWs)   bands (ev):

     7.0630   7.7752   8.5863   8.6647   9.7530  14.4668  17.2749  24.5369
    28.8647  29.7698

          k = 0.5000-0.1000 0.5000 (   686 PWs)   bands (ev):

     7.2650   7.8712   8.3858   8.6157   9.3031  12.3447  20.5051  24.1040
    30.3736  30.7867

          k = 0.4000 0.0000 0.4000 (   686 PWs)   bands (ev):

     7.3294   7.6828   8.2593   8.7264   8.8318  10.7158  24.1447  24.4321
    31.5260  33.1820

          k = 0.0000 0.6000 0.0000 (   689 PWs)   bands (ev):

     6.9147   7.0733   9.2992   9.2992   9.6297   9.9092  26.3720  26.3720
    26.7112  29.9035

          k =-0.1000 0.7000-0.1000 (   686 PWs)   bands (ev):

     6.8531   6.9950   9.2070   9.3637   9.8926  11.6435  23.5047  24.5795
    25.5769  29.9705

          k = 0.8000-0.2000 0.8000 (   688 PWs)   bands (ev):

     6.8573   7.2150   8.8995   9.2366  10.0178  14.0648  20.0636  22.7939
    25.6876  29.8426

          k = 0.7000-0.1000 0.7000 (   695 PWs)   bands (ev):

     7.0329   7.5676   8.5056   9.0908   9.8176  16.6916  17.2993  21.4614
    26.7363  29.8044

          k = 0.6000-0.0000 0.6000 (   684 PWs)   bands (ev):

     7.3280   7.9591   8.0329   8.9182   9.4702  14.4413  20.0431  20.9990
    28.5431  29.9807

          k = 0.0000 0.8000 0.0000 (   684 PWs)   bands (ev):

     6.6051   6.7204   9.8273   9.8920   9.8920  12.4948  22.2435  24.4402
    24.4402  29.9563

          k = 0.9000-0.1000 0.9000 (   689 PWs)   bands (ev):

     6.5836   6.7337   9.7408   9.7421  10.0776  14.3397  20.4863  22.4238
    24.2512  29.9736

          k = 0.8000 0.0000 0.8000 (   688 PWs)   bands (ev):

     6.7525   7.0619   9.1498   9.5232   9.9659  16.3537  19.3788  20.0312
    25.0827  29.8865

          k = 0.0000-1.0000 0.0000 (   692 PWs)   bands (ev):

     6.4419   6.5904   9.9039  10.1488  10.1488  14.4814  19.6125  23.7216
    23.7216  29.9777

          k =-0.2000 0.4000 0.0000 (   681 PWs)   bands (ev):

     6.7773   7.6069   8.3331   8.6838   8.9917   9.6862  26.5478  26.8188
    31.3497  32.2315

          k =-0.3000 0.5000-0.1000 (   685 PWs)   bands (ev):

     7.1287   7.8722   8.0886   8.7279   9.3570  10.7537  22.7230  26.1631
    29.5131  32.5149

          k = 0.6000-0.4000 0.8000 (   683 PWs)   bands (ev):

     7.0079   7.8636   8.4318   8.6842   9.7504  12.6027  19.0716  26.1382
    27.9117  31.6367

          k = 0.5000-0.3000 0.7000 (   684 PWs)   bands (ev):

     6.9514   7.7760   8.4945   8.8304   9.8802  14.3928  16.6862  26.6727
    26.8022  31.2371

          k =-0.2000 0.6000 0.0000 (   680 PWs)   bands (ev):

     7.1728   7.2133   8.4921   9.2922   9.4923  10.9306  24.5449  24.7531
    26.9572  31.7779

          k = 0.7000-0.3000 0.9000 (   686 PWs)   bands (ev):

     7.1079   7.4405   8.3412   9.1966   9.8027  12.9336  20.9507  24.4357
    25.1166  31.8668

          k = 0.6000-0.2000 0.8000 (   695 PWs)   bands (ev):

     7.1798   7.5793   8.3101   8.9761   9.8999  15.4733  17.7000  23.5719
    25.0441  31.8104

          k = 0.5000-0.1000 0.7000 (   687 PWs)   bands (ev):

     7.4041   7.6160   8.1497   8.9344   9.6942  14.6817  18.8149  22.6382
    26.1989  32.2802

          k = 0.4000 0.0000 0.6000 (   684 PWs)   bands (ev):

     7.5905   7.7229   7.8040   9.0642   9.3055  12.4633  22.3070  22.3915
    27.7585  33.3311

          k = 0.8000-0.2000 1.0000 (   687 PWs)   bands (ev):

     6.8290   6.9054   9.1050   9.7313   9.8882  13.4079  22.3176  23.1173
    23.2732  31.4902

          k = 0.7000-0.1000 0.9000 (   692 PWs)   bands (ev):

     6.9138   7.1543   8.7783   9.4305  10.0345  15.8270  19.8495  21.0086
    23.5447  31.7484

          k = 0.6000 0.0000 0.8000 (   693 PWs)   bands (ev):

     7.1487   7.5614   8.2775   9.1659   9.8840  17.1031  18.3190  20.2934
    24.6560  31.9711

          k =-0.2000-1.0000 0.0000 (   698 PWs)   bands (ev):

     6.6562   6.7905   9.4735   9.6911  10.1486  15.4980  19.6730  22.4831
    22.6304  31.4027

          k = 0.6000-0.2000 1.0000 (   696 PWs)   bands (ev):

     7.2972   7.4458   8.1065   9.2725   9.8803  15.1126  20.7214  21.2516
    23.4055  34.6228

          k = 0.5000-0.1000 0.9000 (   696 PWs)   bands (ev):

     7.2836   7.6837   7.9300   9.1271  10.0221  17.6879  17.8765  21.5338
    22.3816  34.5456

          k =-0.4000-1.0000 0.0000 (   692 PWs)   bands (ev):

     7.1005   7.3841   8.3313   9.2447  10.1495  17.6319  19.8740  20.1084
    21.3051  34.4400

     the Fermi energy is    12.8244 ev

!    total energy              =     -84.26772892 Ry
     Harris-Foulkes estimate   =     -84.26772892 Ry
     estimated scf accuracy    <          6.4E-10 Ry

     The total energy is the sum of the following terms:

     one-electron contribution =      -4.71218103 Ry
     hartree contribution      =      14.65732966 Ry
     xc contribution           =     -22.35149715 Ry
     ewald contribution        =     -71.86118022 Ry
     smearing contrib. (-TS)   =      -0.00020018 Ry

     convergence has been achieved in   6 iterations

     Forces acting on atoms (cartesian axes, Ry/au):

     atom    1 type  1   force =     0.00000000    0.00000000    0.00000000

     Total force =     0.000000     Total SCF correction =     0.000000


     Computing stress (Cartesian axis) and pressure

          total   stress  (Ry/bohr**3)                   (kbar)     P=   35.48
   0.00024119  -0.00000000  -0.00000000         35.48     -0.00     -0.00
  -0.00000000   0.00024119   0.00000000         -0.00     35.48      0.00
  -0.00000000   0.00000000   0.00024119         -0.00      0.00     35.48


     Writing output data file Ag.save/

     init_run     :      0.26s CPU      0.27s WALL (       1 calls)
     electrons    :      2.58s CPU      2.73s WALL (       1 calls)
     forces       :      0.04s CPU      0.04s WALL (       1 calls)
     stress       :      0.13s CPU      0.13s WALL (       1 calls)

     Called by init_run:
     wfcinit      :      0.11s CPU      0.12s WALL (       1 calls)
     potinit      :      0.01s CPU      0.01s WALL (       1 calls)
     hinit0       :      0.14s CPU      0.14s WALL (       1 calls)

     Called by electrons:
     c_bands      :      2.12s CPU      2.26s WALL (       7 calls)
     sum_band     :      0.40s CPU      0.42s WALL (       7 calls)
     v_of_rho     :      0.02s CPU      0.02s WALL (       7 calls)
     newd         :      0.04s CPU      0.04s WALL (       7 calls)
     mix_rho      :      0.00s CPU      0.00s WALL (       7 calls)

     Called by c_bands:
     init_us_2    :      0.07s CPU      0.07s WALL (     799 calls)
     cegterg      :      2.03s CPU      2.16s WALL (     329 calls)

     Called by sum_band:
     sum_band:bec :      0.00s CPU      0.00s WALL (     329 calls)
     addusdens    :      0.04s CPU      0.04s WALL (       7 calls)

     Called by *egterg:
     h_psi        :      1.60s CPU      1.70s WALL (    1231 calls)
     s_psi        :      0.05s CPU      0.05s WALL (    1231 calls)
     g_psi        :      0.01s CPU      0.01s WALL (     855 calls)
     cdiaghg      :      0.23s CPU      0.24s WALL (    1137 calls)

     Called by h_psi:
     h_psi:pot    :      1.59s CPU      1.70s WALL (    1231 calls)
     h_psi:calbec :      0.07s CPU      0.08s WALL (    1231 calls)
     vloc_psi     :      1.46s CPU      1.56s WALL (    1231 calls)
     add_vuspsi   :      0.05s CPU      0.05s WALL (    1231 calls)

     General routines
     calbec       :      0.12s CPU      0.12s WALL (    1795 calls)
     fft          :      0.02s CPU      0.02s WALL (     104 calls)
     ffts         :      0.00s CPU      0.00s WALL (       7 calls)
     fftw         :      1.64s CPU      1.75s WALL (   20668 calls)

     Parallel routines
     fft_scatt_xy :      0.13s CPU      0.15s WALL (   20779 calls)
     fft_scatt_yz :      0.43s CPU      0.45s WALL (   20779 calls)

     PWSCF        :     3.79s CPU         4.02s WALL


   This run was terminated on:   0:20:25  27Mar2024            

=------------------------------------------------------------------------------=
   JOB DONE.
=------------------------------------------------------------------------------=
