
     Program PWSCF v.6.3MaX starts on 27Mar2024 at  0:29: 7 

     This program is part of the open-source Quantum ESPRESSO suite
     for quantum simulation of materials; please cite
         "P. Giannozzi et al., J. Phys.:Condens. Matter 21 395502 (2009);
         "P. Giannozzi et al., J. Phys.:Condens. Matter 29 465901 (2017);
          URL http://www.quantum-espresso.org", 
     in publications or presentations arising from this work. More details at
     http://www.quantum-espresso.org/quote

     Parallel version (MPI), running on     5 processors

     MPI processes distributed on     1 nodes
     R & G space division:  proc/nbgrp/npool/nimage =       5
     Waiting for input...
     Reading input from standard input

     Current dimensions of program PWSCF are:
     Max number of different atomic species (ntypx) = 10
     Max number of k-points (npk) =  40000
     Max angular momentum in pseudopotentials (lmaxx) =  3

     Subspace diagonalization in iterative solution of the eigenvalue problem:
     a serial algorithm will be used


     Parallelization info
     --------------------
     sticks:   dense  smooth     PW     G-vecs:    dense   smooth      PW
     Min         106     106     32                 1619     1619     280
     Max         108     108     33                 1620     1620     283
     Sum         535     535    163                 8099     8099    1411



     bravais-lattice index     =            2
     lattice parameter (alat)  =       7.7200  a.u.
     unit-cell volume          =     115.0249 (a.u.)^3
     number of atoms/cell      =            1
     number of atomic types    =            1
     number of electrons       =        11.00
     number of Kohn-Sham states=           10
     kinetic-energy cutoff     =      65.0000  Ry
     charge density cutoff     =     260.0000  Ry
     convergence threshold     =      1.0E-08
     mixing beta               =       0.7000
     number of iterations used =            8  plain     mixing
     Exchange-correlation      = PBESOL ( 1  4 10  8 0 0)

     celldm(1)=   7.720000  celldm(2)=   0.000000  celldm(3)=   0.000000
     celldm(4)=   0.000000  celldm(5)=   0.000000  celldm(6)=   0.000000

     crystal axes: (cart. coord. in units of alat)
               a(1) = (  -0.500000   0.000000   0.500000 )  
               a(2) = (   0.000000   0.500000   0.500000 )  
               a(3) = (  -0.500000   0.500000   0.000000 )  

     reciprocal axes: (cart. coord. in units 2 pi/alat)
               b(1) = ( -1.000000 -1.000000  1.000000 )  
               b(2) = (  1.000000  1.000000  1.000000 )  
               b(3) = ( -1.000000  1.000000 -1.000000 )  


     PseudoPot. # 1 for Ag read from file:
     /home/lorenzo/pseudos/Ag/Ag.pbesol-n-rrkjus_psl.1.0.0.UPF
     MD5 check sum: 3b43e8aa747a56f565f44d11355b8b45
     Pseudo is Ultrasoft + core correction, Zval = 11.0
     Generated using "atomic" code by A. Dal Corso v.6.2.2
     Using radial grid of 1237 points,  6 beta functions with: 
                l(1) =   0
                l(2) =   0
                l(3) =   1
                l(4) =   1
                l(5) =   2
                l(6) =   2
     Q(r) pseudized with 0 coefficients 


     atomic species   valence    mass     pseudopotential
        Ag            11.00   107.86820     Ag( 1.00)

     48 Sym. Ops., with inversion, found



   Cartesian axes

     site n.     atom                  positions (alat units)
         1           Ag  tau(   1) = (   0.0000000   0.0000000   0.0000000  )

     number of k points=    10  gaussian smearing, width (Ry)=  0.0100
                       cart. coord. in units 2pi/alat
        k(    1) = (   0.0000000   0.0000000   0.0000000), wk =   0.0160000
        k(    2) = (  -0.2000000   0.2000000  -0.2000000), wk =   0.1280000
        k(    3) = (  -0.4000000   0.4000000  -0.4000000), wk =   0.1280000
        k(    4) = (   0.0000000   0.4000000   0.0000000), wk =   0.0960000
        k(    5) = (  -0.2000000   0.6000000  -0.2000000), wk =   0.3840000
        k(    6) = (   0.6000000  -0.2000000   0.6000000), wk =   0.3840000
        k(    7) = (   0.4000000   0.0000000   0.4000000), wk =   0.1920000
        k(    8) = (   0.0000000   0.8000000   0.0000000), wk =   0.0960000
        k(    9) = (   0.8000000   0.0000000   0.8000000), wk =   0.1920000
        k(   10) = (   0.6000000  -0.2000000   1.0000000), wk =   0.3840000

     Dense  grid:     8099 G-vectors     FFT dimensions: (  30,  30,  30)

     Estimated max dynamical RAM per process >       8.00 MB

     Estimated total dynamical RAM >      40.00 MB

     Initial potential from superposition of free atoms

     starting charge   10.99964, renormalised to   11.00000
     Starting wfcs are    9 randomized atomic wfcs +    1 random wfcs

     total cpu time spent up to now is        1.0 secs

     Self-consistent Calculation

     iteration #  1     ecut=    65.00 Ry     beta= 0.70
     Davidson diagonalization with overlap
     ethr =  1.00E-02,  avg # of iterations =  4.6

     Threshold (ethr) on eigenvalues was too large:
     Diagonalizing with lowered threshold

     Davidson diagonalization with overlap
     ethr =  3.87E-05,  avg # of iterations =  3.0

     total cpu time spent up to now is        1.3 secs

     total energy              =     -84.18901493 Ry
     Harris-Foulkes estimate   =     -84.19205405 Ry
     estimated scf accuracy    <       0.00472747 Ry

     iteration #  2     ecut=    65.00 Ry     beta= 0.70
     Davidson diagonalization with overlap
     ethr =  4.30E-05,  avg # of iterations =  2.0

     total cpu time spent up to now is        1.4 secs

     total energy              =     -84.19011594 Ry
     Harris-Foulkes estimate   =     -84.19184607 Ry
     estimated scf accuracy    <       0.00320620 Ry

     iteration #  3     ecut=    65.00 Ry     beta= 0.70
     Davidson diagonalization with overlap
     ethr =  2.91E-05,  avg # of iterations =  2.0

     total cpu time spent up to now is        1.5 secs

     total energy              =     -84.19082987 Ry
     Harris-Foulkes estimate   =     -84.19083204 Ry
     estimated scf accuracy    <       0.00002560 Ry

     iteration #  4     ecut=    65.00 Ry     beta= 0.70
     Davidson diagonalization with overlap
     ethr =  2.33E-07,  avg # of iterations =  2.4

     total cpu time spent up to now is        1.6 secs

     total energy              =     -84.19083666 Ry
     Harris-Foulkes estimate   =     -84.19083662 Ry
     estimated scf accuracy    <       0.00000031 Ry

     iteration #  5     ecut=    65.00 Ry     beta= 0.70
     Davidson diagonalization with overlap
     ethr =  2.78E-09,  avg # of iterations =  2.1

     total cpu time spent up to now is        1.8 secs

     total energy              =     -84.19083674 Ry
     Harris-Foulkes estimate   =     -84.19083676 Ry
     estimated scf accuracy    <       0.00000004 Ry

     iteration #  6     ecut=    65.00 Ry     beta= 0.70
     Davidson diagonalization with overlap
     ethr =  3.46E-10,  avg # of iterations =  2.7

     total cpu time spent up to now is        1.9 secs

     End of self-consistent calculation

          k = 0.0000 0.0000 0.0000 (   965 PWs)   bands (ev):

     4.8091   7.9304   7.9304   7.9304   8.9797   8.9797  29.5472  32.8320
    32.8320  32.8320

          k =-0.2000 0.2000-0.2000 (  1001 PWs)   bands (ev):

     5.8882   7.8584   8.1374   8.1374   8.9898   8.9898  25.8253  30.2151
    32.6141  32.6141

          k =-0.4000 0.4000-0.4000 (  1023 PWs)   bands (ev):

     6.3432   7.9614   7.9614   9.6345   9.6345  10.6787  18.3021  28.8692
    31.1979  31.1979

          k = 0.0000 0.4000 0.0000 (   998 PWs)   bands (ev):

     6.2481   7.3637   8.5179   8.5179   8.6176   9.2380  28.7791  28.7791
    29.6062  29.6753

          k =-0.2000 0.6000-0.2000 (  1017 PWs)   bands (ev):

     6.8012   7.4820   8.2049   8.6170   9.7323  11.1290  21.3251  26.9059
    27.1390  29.7278

          k = 0.6000-0.2000 0.6000 (  1012 PWs)   bands (ev):

     6.8741   7.6012   8.4228   8.4872   9.5987  14.2346  17.0417  24.2897
    28.6038  29.5205

          k = 0.4000 0.0000 0.4000 (  1015 PWs)   bands (ev):

     7.1048   7.5066   8.0828   8.5652   8.6693  10.5334  23.8951  24.1918
    31.2710  32.9247

          k = 0.0000 0.8000 0.0000 (  1022 PWs)   bands (ev):

     6.4164   6.5401   9.6758   9.7374   9.7374  12.2437  22.0046  24.1749
    24.1749  29.7301

          k = 0.8000 0.0000 0.8000 (  1021 PWs)   bands (ev):

     6.5701   6.8799   8.9799   9.3682   9.8127  16.1075  19.1236  19.8042
    24.8185  29.6522

          k = 0.6000-0.2000 1.0000 (  1031 PWs)   bands (ev):

     7.1169   7.2669   7.9265   9.1139   9.7263  14.8806  20.4769  20.9982
    23.1677  34.3703

     the Fermi energy is    12.2640 ev

!    total energy              =     -84.19083675 Ry
     Harris-Foulkes estimate   =     -84.19083675 Ry
     estimated scf accuracy    <          5.9E-10 Ry

     The total energy is the sum of the following terms:

     one-electron contribution =      -4.75304806 Ry
     hartree contribution      =      14.56572863 Ry
     xc contribution           =     -22.14207226 Ry
     ewald contribution        =     -71.86118018 Ry
     smearing contrib. (-TS)   =      -0.00026488 Ry

     convergence has been achieved in   6 iterations

     Forces acting on atoms (cartesian axes, Ry/au):

     atom    1 type  1   force =     0.00000000    0.00000000    0.00000000

     Total force =     0.000000     Total SCF correction =     0.000000


     Computing stress (Cartesian axis) and pressure

          total   stress  (Ry/bohr**3)                   (kbar)     P=  -31.84
  -0.00021644   0.00000000   0.00000000        -31.84      0.00      0.00
   0.00000000  -0.00021644  -0.00000000          0.00    -31.84     -0.00
   0.00000000  -0.00000000  -0.00021644          0.00     -0.00    -31.84


     Writing output data file Ag.save/

     init_run     :      0.23s CPU      0.23s WALL (       1 calls)
     electrons    :      0.85s CPU      0.90s WALL (       1 calls)
     forces       :      0.03s CPU      0.03s WALL (       1 calls)
     stress       :      0.10s CPU      0.10s WALL (       1 calls)

     Called by init_run:
     wfcinit      :      0.04s CPU      0.04s WALL (       1 calls)
     potinit      :      0.01s CPU      0.01s WALL (       1 calls)
     hinit0       :      0.16s CPU      0.17s WALL (       1 calls)

     Called by electrons:
     c_bands      :      0.60s CPU      0.63s WALL (       7 calls)
     sum_band     :      0.17s CPU      0.18s WALL (       7 calls)
     v_of_rho     :      0.04s CPU      0.04s WALL (       7 calls)
     newd         :      0.05s CPU      0.05s WALL (       7 calls)
     mix_rho      :      0.00s CPU      0.00s WALL (       7 calls)

     Called by c_bands:
     init_us_2    :      0.02s CPU      0.02s WALL (     170 calls)
     cegterg      :      0.57s CPU      0.60s WALL (      70 calls)

     Called by sum_band:
     sum_band:bec :      0.00s CPU      0.00s WALL (      70 calls)
     addusdens    :      0.05s CPU      0.06s WALL (       7 calls)

     Called by *egterg:
     h_psi        :      0.47s CPU      0.49s WALL (     268 calls)
     s_psi        :      0.01s CPU      0.02s WALL (     268 calls)
     g_psi        :      0.00s CPU      0.00s WALL (     188 calls)
     cdiaghg      :      0.05s CPU      0.06s WALL (     248 calls)

     Called by h_psi:
     h_psi:pot    :      0.47s CPU      0.49s WALL (     268 calls)
     h_psi:calbec :      0.03s CPU      0.03s WALL (     268 calls)
     vloc_psi     :      0.43s CPU      0.44s WALL (     268 calls)
     add_vuspsi   :      0.01s CPU      0.02s WALL (     268 calls)

     General routines
     calbec       :      0.04s CPU      0.05s WALL (     388 calls)
     fft          :      0.02s CPU      0.02s WALL (     104 calls)
     ffts         :      0.00s CPU      0.00s WALL (       7 calls)
     fftw         :      0.47s CPU      0.49s WALL (    4366 calls)

     Parallel routines
     fft_scatt_xy :      0.04s CPU      0.04s WALL (    4477 calls)
     fft_scatt_yz :      0.12s CPU      0.12s WALL (    4477 calls)

     PWSCF        :     2.01s CPU         2.09s WALL


   This run was terminated on:   0:29: 9  27Mar2024            

=------------------------------------------------------------------------------=
   JOB DONE.
=------------------------------------------------------------------------------=
