
     Program PWSCF v.6.3MaX starts on 27Mar2024 at  0:15:55 

     This program is part of the open-source Quantum ESPRESSO suite
     for quantum simulation of materials; please cite
         "P. Giannozzi et al., J. Phys.:Condens. Matter 21 395502 (2009);
         "P. Giannozzi et al., J. Phys.:Condens. Matter 29 465901 (2017);
          URL http://www.quantum-espresso.org", 
     in publications or presentations arising from this work. More details at
     http://www.quantum-espresso.org/quote

     Parallel version (MPI), running on     5 processors

     MPI processes distributed on     1 nodes
     R & G space division:  proc/nbgrp/npool/nimage =       5
     Waiting for input...
     Reading input from standard input

     Current dimensions of program PWSCF are:
     Max number of different atomic species (ntypx) = 10
     Max number of k-points (npk) =  40000
     Max angular momentum in pseudopotentials (lmaxx) =  3
               file Ag.pbesol-n-kjpaw_psl.1.0.0.UPF: wavefunction(s)  5S 5P renormalized

     Subspace diagonalization in iterative solution of the eigenvalue problem:
     a serial algorithm will be used


     Parallelization info
     --------------------
     sticks:   dense  smooth     PW     G-vecs:    dense   smooth      PW
     Min          58      58     19                  643      643     128
     Max          60      60     20                  643      643     130
     Sum         295     295     97                 3215     3215     645



     bravais-lattice index     =            2
     lattice parameter (alat)  =       7.7200  a.u.
     unit-cell volume          =     115.0249 (a.u.)^3
     number of atoms/cell      =            1
     number of atomic types    =            1
     number of electrons       =        11.00
     number of Kohn-Sham states=           10
     kinetic-energy cutoff     =      35.0000  Ry
     charge density cutoff     =     140.0000  Ry
     convergence threshold     =      1.0E-08
     mixing beta               =       0.7000
     number of iterations used =            8  plain     mixing
     Exchange-correlation      = SLA PW PSX PSC ( 1  4 10  8 0 0)

     celldm(1)=   7.720000  celldm(2)=   0.000000  celldm(3)=   0.000000
     celldm(4)=   0.000000  celldm(5)=   0.000000  celldm(6)=   0.000000

     crystal axes: (cart. coord. in units of alat)
               a(1) = (  -0.500000   0.000000   0.500000 )  
               a(2) = (   0.000000   0.500000   0.500000 )  
               a(3) = (  -0.500000   0.500000   0.000000 )  

     reciprocal axes: (cart. coord. in units 2 pi/alat)
               b(1) = ( -1.000000 -1.000000  1.000000 )  
               b(2) = (  1.000000  1.000000  1.000000 )  
               b(3) = ( -1.000000  1.000000 -1.000000 )  


     PseudoPot. # 1 for Ag read from file:
     /home/lorenzo/pseudos/Ag/Ag.pbesol-n-kjpaw_psl.1.0.0.UPF
     MD5 check sum: 3b245e14fa22881b2ac493bfd23f605f
     Pseudo is Projector augmented-wave + core cor, Zval = 11.0
     Generated using "atomic" code by A. Dal Corso v.6.2.2
     Shape of augmentation charge: PSQ
     Using radial grid of 1237 points,  6 beta functions with: 
                l(1) =   0
                l(2) =   0
                l(3) =   1
                l(4) =   1
                l(5) =   2
                l(6) =   2
     Q(r) pseudized with 0 coefficients 


     atomic species   valence    mass     pseudopotential
        Ag            11.00   107.86820     Ag( 1.00)

     48 Sym. Ops., with inversion, found



   Cartesian axes

     site n.     atom                  positions (alat units)
         1           Ag  tau(   1) = (   0.0000000   0.0000000   0.0000000  )

     number of k points=    35  gaussian smearing, width (Ry)=  0.0100
                       cart. coord. in units 2pi/alat
        k(    1) = (   0.0000000   0.0000000   0.0000000), wk =   0.0027435
        k(    2) = (  -0.1111111   0.1111111  -0.1111111), wk =   0.0219479
        k(    3) = (  -0.2222222   0.2222222  -0.2222222), wk =   0.0219479
        k(    4) = (  -0.3333333   0.3333333  -0.3333333), wk =   0.0219479
        k(    5) = (  -0.4444444   0.4444444  -0.4444444), wk =   0.0219479
        k(    6) = (   0.0000000   0.2222222   0.0000000), wk =   0.0164609
        k(    7) = (  -0.1111111   0.3333333  -0.1111111), wk =   0.0658436
        k(    8) = (  -0.2222222   0.4444444  -0.2222222), wk =   0.0658436
        k(    9) = (  -0.3333333   0.5555556  -0.3333333), wk =   0.0658436
        k(   10) = (   0.5555556  -0.3333333   0.5555556), wk =   0.0658436
        k(   11) = (   0.4444444  -0.2222222   0.4444444), wk =   0.0658436
        k(   12) = (   0.3333333  -0.1111111   0.3333333), wk =   0.0658436
        k(   13) = (   0.2222222  -0.0000000   0.2222222), wk =   0.0329218
        k(   14) = (   0.0000000   0.4444444   0.0000000), wk =   0.0164609
        k(   15) = (  -0.1111111   0.5555556  -0.1111111), wk =   0.0658436
        k(   16) = (  -0.2222222   0.6666667  -0.2222222), wk =   0.0658436
        k(   17) = (   0.6666667  -0.2222222   0.6666667), wk =   0.0658436
        k(   18) = (   0.5555556  -0.1111111   0.5555556), wk =   0.0658436
        k(   19) = (   0.4444444   0.0000000   0.4444444), wk =   0.0329218
        k(   20) = (   0.0000000   0.6666667   0.0000000), wk =   0.0164609
        k(   21) = (  -0.1111111   0.7777778  -0.1111111), wk =   0.0658436
        k(   22) = (   0.7777778  -0.1111111   0.7777778), wk =   0.0658436
        k(   23) = (   0.6666667  -0.0000000   0.6666667), wk =   0.0329218
        k(   24) = (   0.0000000   0.8888889   0.0000000), wk =   0.0164609
        k(   25) = (   0.8888889   0.0000000   0.8888889), wk =   0.0329218
        k(   26) = (  -0.2222222   0.4444444   0.0000000), wk =   0.0658436
        k(   27) = (  -0.3333333   0.5555556  -0.1111111), wk =   0.1316872
        k(   28) = (   0.5555556  -0.3333333   0.7777778), wk =   0.1316872
        k(   29) = (  -0.2222222   0.6666667   0.0000000), wk =   0.0658436
        k(   30) = (   0.6666667  -0.2222222   0.8888889), wk =   0.1316872
        k(   31) = (   0.5555556  -0.1111111   0.7777778), wk =   0.1316872
        k(   32) = (   0.4444444   0.0000000   0.6666667), wk =   0.0658436
        k(   33) = (   0.7777778  -0.1111111   1.0000000), wk =   0.0658436
        k(   34) = (   0.6666667  -0.0000000   0.8888889), wk =   0.0658436
        k(   35) = (   0.5555556  -0.1111111   1.0000000), wk =   0.0658436

     Dense  grid:     3215 G-vectors     FFT dimensions: (  24,  24,  24)

     Estimated max dynamical RAM per process >       4.07 MB

     Estimated total dynamical RAM >      20.33 MB

     Initial potential from superposition of free atoms

     starting charge   10.99964, renormalised to   11.00000
     Starting wfcs are    9 randomized atomic wfcs +    1 random wfcs
     Checking if some PAW data can be deallocated... 

     total cpu time spent up to now is        1.1 secs

     Self-consistent Calculation

     iteration #  1     ecut=    35.00 Ry     beta= 0.70
     Davidson diagonalization with overlap
     ethr =  1.00E-02,  avg # of iterations =  4.6

     Threshold (ethr) on eigenvalues was too large:
     Diagonalizing with lowered threshold

     Davidson diagonalization with overlap
     ethr =  5.74E-05,  avg # of iterations =  1.9

     total cpu time spent up to now is        1.7 secs

     total energy              =    -350.22209283 Ry
     Harris-Foulkes estimate   =    -350.22652822 Ry
     estimated scf accuracy    <       0.00675019 Ry

     iteration #  2     ecut=    35.00 Ry     beta= 0.70
     Davidson diagonalization with overlap
     ethr =  6.14E-05,  avg # of iterations =  2.0

     total cpu time spent up to now is        2.1 secs

     total energy              =    -350.22416138 Ry
     Harris-Foulkes estimate   =    -350.22667645 Ry
     estimated scf accuracy    <       0.00529512 Ry

     iteration #  3     ecut=    35.00 Ry     beta= 0.70
     Davidson diagonalization with overlap
     ethr =  4.81E-05,  avg # of iterations =  1.6

     total cpu time spent up to now is        2.4 secs

     total energy              =    -350.22515510 Ry
     Harris-Foulkes estimate   =    -350.22512529 Ry
     estimated scf accuracy    <       0.00001784 Ry

     iteration #  4     ecut=    35.00 Ry     beta= 0.70
     Davidson diagonalization with overlap
     ethr =  1.62E-07,  avg # of iterations =  3.1

     total cpu time spent up to now is        2.8 secs

     total energy              =    -350.22516760 Ry
     Harris-Foulkes estimate   =    -350.22516741 Ry
     estimated scf accuracy    <       0.00000077 Ry

     iteration #  5     ecut=    35.00 Ry     beta= 0.70
     Davidson diagonalization with overlap
     ethr =  6.99E-09,  avg # of iterations =  1.0

     total cpu time spent up to now is        3.0 secs

     total energy              =    -350.22516761 Ry
     Harris-Foulkes estimate   =    -350.22516762 Ry
     estimated scf accuracy    <       0.00000006 Ry

     iteration #  6     ecut=    35.00 Ry     beta= 0.70
     Davidson diagonalization with overlap
     ethr =  5.38E-10,  avg # of iterations =  2.0

     total cpu time spent up to now is        3.3 secs

     End of self-consistent calculation

          k = 0.0000 0.0000 0.0000 (   411 PWs)   bands (ev):

     4.8043   7.9081   7.9081   7.9081   8.9536   8.9536  29.5481  32.8271
    32.8271  32.8271

          k =-0.1111 0.1111-0.1111 (   396 PWs)   bands (ev):

     5.1808   7.8395   8.0119   8.0119   8.9315   8.9315  28.9677  30.5747
    32.7976  32.7976

          k =-0.2222 0.2222-0.2222 (   392 PWs)   bands (ev):

     6.0528   7.9232   8.1266   8.1266   9.0185   9.0185  24.9420  30.1222
    32.5148  32.5148

          k =-0.3333 0.3333-0.3333 (   401 PWs)   bands (ev):

     6.3757   8.0278   8.0278   9.2939   9.3844   9.3844  20.6202  29.3172
    31.7159  31.7159

          k =-0.4444 0.4444-0.4444 (   401 PWs)   bands (ev):

     6.2952   7.9082   7.9082   9.7096   9.7096  11.5846  17.0172  28.6810
    30.9390  30.9390

          k = 0.0000 0.2222 0.0000 (   391 PWs)   bands (ev):

     5.3075   7.7127   8.1092   8.1092   8.7781   9.0468  29.5667  31.2226
    31.2226  31.2264

          k =-0.1111 0.3333-0.1111 (   396 PWs)   bands (ev):

     6.0562   7.5564   8.2279   8.2829   8.8157   9.1701  26.6666  29.8429
    30.0311  32.5664

          k =-0.2222 0.4444-0.2222 (   395 PWs)   bands (ev):

     6.5937   7.9889   8.0146   8.2679   9.4825   9.7439  22.2566  29.1905
    29.2577  31.3987

          k =-0.3333 0.5556-0.3333 (   401 PWs)   bands (ev):

     6.5229   7.8111   8.1333   8.8091   9.7484  11.7123  18.2466  28.2362
    29.1022  29.9244

          k = 0.5556-0.3333 0.5556 (   397 PWs)   bands (ev):

     6.4926   7.7687   8.0659   9.1484   9.6942  13.0673  16.4381  27.4093
    29.4787  29.8791

          k = 0.4444-0.2222 0.4444 (   406 PWs)   bands (ev):

     6.5917   7.8804   8.1274   8.7926   9.2944  11.0990  19.5258  27.1225
    30.0883  31.7098

          k = 0.3333-0.1111 0.3333 (   400 PWs)   bands (ev):

     6.5609   7.7632   8.1702   8.2752   8.8148   9.7299  23.7286  27.4191
    31.5886  34.2337

          k = 0.2222-0.0000 0.2222 (   389 PWs)   bands (ev):

     5.7589   7.6826   8.1674   8.1694   8.7523   9.1343  28.0897  28.0988
    32.1460  34.4197

          k = 0.0000 0.4444 0.0000 (   407 PWs)   bands (ev):

     6.4564   7.2386   8.6240   8.6240   8.6616   9.2640  28.1444  28.1444
    29.2360  29.6224

          k =-0.1111 0.5556-0.1111 (   409 PWs)   bands (ev):

     6.8058   7.1209   8.4143   8.7727   9.5237   9.9338  24.2966  26.9680
    27.5836  29.9144

          k =-0.2222 0.6667-0.2222 (   399 PWs)   bands (ev):

     6.7726   7.3982   8.2906   8.6713   9.7948  12.1603  20.1225  25.5510
    26.6920  29.5901

          k = 0.6667-0.2222 0.6667 (   400 PWs)   bands (ev):

     6.8389   7.5200   8.3520   8.5419   9.7175  14.8406  16.7668  23.9875
    27.4855  29.4577

          k = 0.5556-0.1111 0.5556 (   400 PWs)   bands (ev):

     7.0646   7.6127   8.2006   8.5020   9.2975  13.2535  19.0323  23.1316
    29.3017  29.8033

          k = 0.4444 0.0000 0.4444 (   403 PWs)   bands (ev):

     7.2659   7.4966   8.0066   8.5415   8.7951  11.1511  23.0087  23.1700
    30.7445  31.8212

          k = 0.0000 0.6667 0.0000 (   419 PWs)   bands (ev):

     6.6164   6.7399   9.3248   9.3248   9.5248  10.4323  24.9378  25.3477
    25.3477  29.6978

          k =-0.1111 0.7778-0.1111 (   406 PWs)   bands (ev):

     6.5488   6.6976   9.2035   9.3230   9.8174  12.5416  22.2167  22.8150
    24.7187  29.7248

          k = 0.7778-0.1111 0.7778 (   408 PWs)   bands (ev):

     6.6435   7.0154   8.7269   9.1582   9.7844  15.4230  18.8150  20.9379
    25.2899  29.6140

          k = 0.6667-0.0000 0.6667 (   403 PWs)   bands (ev):

     6.9331   7.5088   8.1294   8.9123   9.4791  15.7923  18.4567  20.1906
    26.9497  29.6147

          k = 0.0000 0.8889 0.0000 (   404 PWs)   bands (ev):

     6.2971   6.4383   9.7134   9.8832   9.8832  13.4236  20.3626  23.6706
    23.6706  29.7622

          k = 0.8889 0.0000 0.8889 (   412 PWs)   bands (ev):

     6.3651   6.5297   9.5596   9.5921   9.9106  14.8829  19.4065  21.7217
    23.8802  29.7472

          k =-0.2222 0.4444 0.0000 (   401 PWs)   bands (ev):

     6.7777   7.3460   8.0805   8.6243   8.8842   9.7687  25.5231  25.8285
    30.2504  32.2054

          k =-0.3333 0.5556-0.1111 (   401 PWs)   bands (ev):

     6.9613   7.7242   7.8359   8.6160   9.3175  11.2739  21.3438  25.2310
    28.2002  32.1681

          k = 0.5556-0.3333 0.7778 (   404 PWs)   bands (ev):

     6.8494   7.5597   8.3215   8.5075   9.6500  13.6239  17.5442  25.4947
    26.5412  31.3543

          k =-0.2222 0.6667 0.0000 (   407 PWs)   bands (ev):

     6.9196   6.9349   8.3893   9.3189   9.3916  11.5810  23.4380  23.6120
    25.2665  31.7372

          k = 0.6667-0.2222 0.8889 (   403 PWs)   bands (ev):

     6.9008   7.1954   8.1865   9.0722   9.7220  14.0894  19.6162  23.1580
    23.7805  31.8709

          k = 0.5556-0.1111 0.7778 (   402 PWs)   bands (ev):

     7.0900   7.4034   7.9787   8.8457   9.6691  16.1020  17.4001  21.8456
    24.6696  32.0701

          k = 0.4444 0.0000 0.6667 (   404 PWs)   bands (ev):

     7.4314   7.4690   7.5920   8.8983   9.3293  13.4209  20.9077  21.3473
    26.2702  32.8464

          k = 0.7778-0.1111 1.0000 (   406 PWs)   bands (ev):

     6.5614   6.6733   9.0200   9.5077   9.8833  14.5579  20.5009  22.1788
    22.3867  31.4825

          k = 0.6667-0.0000 0.8889 (   406 PWs)   bands (ev):

     6.7616   7.0376   8.4778   9.1741   9.8756  16.8398  18.8991  19.8187
    23.1145  31.8668

          k = 0.5556-0.1111 1.0000 (   399 PWs)   bands (ev):

     7.0354   7.3833   7.8408   9.0107   9.8812  16.6636  19.4919  20.3623
    21.7466  35.0452

     the Fermi energy is    12.9196 ev

!    total energy              =    -350.22516762 Ry
     Harris-Foulkes estimate   =    -350.22516762 Ry
     estimated scf accuracy    <          2.2E-10 Ry

     total all-electron energy =    -10627.235576 Ry

     The total energy is the sum of the following terms:

     one-electron contribution =       1.63015227 Ry
     hartree contribution      =      14.54933392 Ry
     xc contribution           =     -22.13923326 Ry
     ewald contribution        =     -71.86118026 Ry
     one-center paw contrib.   =    -272.40418264 Ry
     smearing contrib. (-TS)   =      -0.00005764 Ry

     convergence has been achieved in   6 iterations

     Forces acting on atoms (cartesian axes, Ry/au):

     atom    1 type  1   force =     0.00000000    0.00000000    0.00000000

     Total force =     0.000000     Total SCF correction =     0.000000


     Computing stress (Cartesian axis) and pressure

          total   stress  (Ry/bohr**3)                   (kbar)     P= -186.36
  -0.00126687   0.00000000   0.00000000       -186.36      0.00      0.00
   0.00000000  -0.00126687   0.00000000          0.00   -186.36      0.00
   0.00000000   0.00000000  -0.00126687          0.00      0.00   -186.36


     Writing output data file Ag.save/

     init_run     :      0.32s CPU      0.35s WALL (       1 calls)
     electrons    :      2.02s CPU      2.21s WALL (       1 calls)
     forces       :      0.02s CPU      0.02s WALL (       1 calls)
     stress       :      0.07s CPU      0.07s WALL (       1 calls)

     Called by init_run:
     wfcinit      :      0.06s CPU      0.06s WALL (       1 calls)
     potinit      :      0.12s CPU      0.14s WALL (       1 calls)
     hinit0       :      0.12s CPU      0.13s WALL (       1 calls)

     Called by electrons:
     c_bands      :      1.19s CPU      1.28s WALL (       7 calls)
     sum_band     :      0.23s CPU      0.24s WALL (       7 calls)
     v_of_rho     :      0.02s CPU      0.02s WALL (       7 calls)
     newd         :      0.02s CPU      0.02s WALL (       7 calls)
     PAW_pot      :      0.68s CPU      0.77s WALL (       7 calls)
     mix_rho      :      0.00s CPU      0.00s WALL (       7 calls)

     Called by c_bands:
     init_us_2    :      0.03s CPU      0.03s WALL (     595 calls)
     cegterg      :      1.14s CPU      1.22s WALL (     245 calls)

     Called by sum_band:
     sum_band:bec :      0.00s CPU      0.00s WALL (     245 calls)
     addusdens    :      0.02s CPU      0.02s WALL (       7 calls)

     Called by *egterg:
     h_psi        :      0.87s CPU      0.94s WALL (     847 calls)
     s_psi        :      0.02s CPU      0.03s WALL (     847 calls)
     g_psi        :      0.00s CPU      0.00s WALL (     567 calls)
     cdiaghg      :      0.16s CPU      0.17s WALL (     777 calls)

     Called by h_psi:
     h_psi:pot    :      0.87s CPU      0.94s WALL (     847 calls)
     h_psi:calbec :      0.04s CPU      0.04s WALL (     847 calls)
     vloc_psi     :      0.80s CPU      0.87s WALL (     847 calls)
     add_vuspsi   :      0.02s CPU      0.03s WALL (     847 calls)

     General routines
     calbec       :      0.06s CPU      0.06s WALL (    1267 calls)
     fft          :      0.01s CPU      0.01s WALL (     104 calls)
     ffts         :      0.00s CPU      0.00s WALL (       7 calls)
     fftw         :      0.89s CPU      0.97s WALL (   14812 calls)

     Parallel routines
     fft_scatt_xy :      0.08s CPU      0.09s WALL (   14923 calls)
     fft_scatt_yz :      0.29s CPU      0.31s WALL (   14923 calls)

     PWSCF        :     3.22s CPU         3.50s WALL


   This run was terminated on:   0:15:59  27Mar2024            

=------------------------------------------------------------------------------=
   JOB DONE.
=------------------------------------------------------------------------------=
