
     Program PWSCF v.6.3MaX starts on 27Mar2024 at  0: 3:21 

     This program is part of the open-source Quantum ESPRESSO suite
     for quantum simulation of materials; please cite
         "P. Giannozzi et al., J. Phys.:Condens. Matter 21 395502 (2009);
         "P. Giannozzi et al., J. Phys.:Condens. Matter 29 465901 (2017);
          URL http://www.quantum-espresso.org", 
     in publications or presentations arising from this work. More details at
     http://www.quantum-espresso.org/quote

     Parallel version (MPI), running on     5 processors

     MPI processes distributed on     1 nodes
     R & G space division:  proc/nbgrp/npool/nimage =       5
     Waiting for input...
     Reading input from standard input

     Current dimensions of program PWSCF are:
     Max number of different atomic species (ntypx) = 10
     Max number of k-points (npk) =  40000
     Max angular momentum in pseudopotentials (lmaxx) =  3
               file Ag.pbe-n-kjpaw_psl.1.0.0.UPF: wavefunction(s)  5S 5P renormalized

     Subspace diagonalization in iterative solution of the eigenvalue problem:
     a serial algorithm will be used


     Parallelization info
     --------------------
     sticks:   dense  smooth     PW     G-vecs:    dense   smooth      PW
     Min         164     164     50                 3117     3117     527
     Max         165     165     51                 3120     3120     528
     Sum         823     823    253                15593    15593    2637



     bravais-lattice index     =            2
     lattice parameter (alat)  =       7.7200  a.u.
     unit-cell volume          =     115.0249 (a.u.)^3
     number of atoms/cell      =            1
     number of atomic types    =            1
     number of electrons       =        11.00
     number of Kohn-Sham states=           10
     kinetic-energy cutoff     =     100.0000  Ry
     charge density cutoff     =     400.0000  Ry
     convergence threshold     =      1.0E-08
     mixing beta               =       0.7000
     number of iterations used =            8  plain     mixing
     Exchange-correlation      = SLA PW PBX PBC ( 1  4  3  4 0 0)

     celldm(1)=   7.720000  celldm(2)=   0.000000  celldm(3)=   0.000000
     celldm(4)=   0.000000  celldm(5)=   0.000000  celldm(6)=   0.000000

     crystal axes: (cart. coord. in units of alat)
               a(1) = (  -0.500000   0.000000   0.500000 )  
               a(2) = (   0.000000   0.500000   0.500000 )  
               a(3) = (  -0.500000   0.500000   0.000000 )  

     reciprocal axes: (cart. coord. in units 2 pi/alat)
               b(1) = ( -1.000000 -1.000000  1.000000 )  
               b(2) = (  1.000000  1.000000  1.000000 )  
               b(3) = ( -1.000000  1.000000 -1.000000 )  


     PseudoPot. # 1 for Ag read from file:
     /home/lorenzo/pseudos/Ag/Ag.pbe-n-kjpaw_psl.1.0.0.UPF
     MD5 check sum: 51099775af2a3182a6a1caffb86952a3
     Pseudo is Projector augmented-wave + core cor, Zval = 11.0
     Generated using "atomic" code by A. Dal Corso v.6.2.2
     Shape of augmentation charge: PSQ
     Using radial grid of 1237 points,  6 beta functions with: 
                l(1) =   0
                l(2) =   0
                l(3) =   1
                l(4) =   1
                l(5) =   2
                l(6) =   2
     Q(r) pseudized with 0 coefficients 


     atomic species   valence    mass     pseudopotential
        Ag            11.00   107.86820     Ag( 1.00)

     48 Sym. Ops., with inversion, found



   Cartesian axes

     site n.     atom                  positions (alat units)
         1           Ag  tau(   1) = (   0.0000000   0.0000000   0.0000000  )

     number of k points=    29  gaussian smearing, width (Ry)=  0.0100
                       cart. coord. in units 2pi/alat
        k(    1) = (   0.0000000   0.0000000   0.0000000), wk =   0.0039062
        k(    2) = (  -0.1250000   0.1250000  -0.1250000), wk =   0.0312500
        k(    3) = (  -0.2500000   0.2500000  -0.2500000), wk =   0.0312500
        k(    4) = (  -0.3750000   0.3750000  -0.3750000), wk =   0.0312500
        k(    5) = (   0.5000000  -0.5000000   0.5000000), wk =   0.0156250
        k(    6) = (   0.0000000   0.2500000   0.0000000), wk =   0.0234375
        k(    7) = (  -0.1250000   0.3750000  -0.1250000), wk =   0.0937500
        k(    8) = (  -0.2500000   0.5000000  -0.2500000), wk =   0.0937500
        k(    9) = (   0.6250000  -0.3750000   0.6250000), wk =   0.0937500
        k(   10) = (   0.5000000  -0.2500000   0.5000000), wk =   0.0937500
        k(   11) = (   0.3750000  -0.1250000   0.3750000), wk =   0.0937500
        k(   12) = (   0.2500000   0.0000000   0.2500000), wk =   0.0468750
        k(   13) = (   0.0000000   0.5000000   0.0000000), wk =   0.0234375
        k(   14) = (  -0.1250000   0.6250000  -0.1250000), wk =   0.0937500
        k(   15) = (   0.7500000  -0.2500000   0.7500000), wk =   0.0937500
        k(   16) = (   0.6250000  -0.1250000   0.6250000), wk =   0.0937500
        k(   17) = (   0.5000000   0.0000000   0.5000000), wk =   0.0468750
        k(   18) = (   0.0000000   0.7500000   0.0000000), wk =   0.0234375
        k(   19) = (   0.8750000  -0.1250000   0.8750000), wk =   0.0937500
        k(   20) = (   0.7500000   0.0000000   0.7500000), wk =   0.0468750
        k(   21) = (   0.0000000  -1.0000000   0.0000000), wk =   0.0117188
        k(   22) = (  -0.2500000   0.5000000   0.0000000), wk =   0.0937500
        k(   23) = (   0.6250000  -0.3750000   0.8750000), wk =   0.1875000
        k(   24) = (   0.5000000  -0.2500000   0.7500000), wk =   0.0937500
        k(   25) = (   0.7500000  -0.2500000   1.0000000), wk =   0.0937500
        k(   26) = (   0.6250000  -0.1250000   0.8750000), wk =   0.1875000
        k(   27) = (   0.5000000   0.0000000   0.7500000), wk =   0.0937500
        k(   28) = (  -0.2500000  -1.0000000   0.0000000), wk =   0.0468750
        k(   29) = (  -0.5000000  -1.0000000   0.0000000), wk =   0.0234375

     Dense  grid:    15593 G-vectors     FFT dimensions: (  36,  36,  36)

     Estimated max dynamical RAM per process >      15.43 MB

     Estimated total dynamical RAM >      77.16 MB

     Initial potential from superposition of free atoms

     starting charge   10.99960, renormalised to   11.00000
     Starting wfcs are    9 randomized atomic wfcs +    1 random wfcs
     Checking if some PAW data can be deallocated... 

     total cpu time spent up to now is        1.4 secs

     Self-consistent Calculation

     iteration #  1     ecut=   100.00 Ry     beta= 0.70
     Davidson diagonalization with overlap
     ethr =  1.00E-02,  avg # of iterations =  5.0

     Threshold (ethr) on eigenvalues was too large:
     Diagonalizing with lowered threshold

     Davidson diagonalization with overlap
     ethr =  2.48E-05,  avg # of iterations =  2.6

     total cpu time spent up to now is        2.8 secs

     total energy              =    -355.30348477 Ry
     Harris-Foulkes estimate   =    -355.30517621 Ry
     estimated scf accuracy    <       0.00301979 Ry

     iteration #  2     ecut=   100.00 Ry     beta= 0.70
     Davidson diagonalization with overlap
     ethr =  2.75E-05,  avg # of iterations =  2.0

     total cpu time spent up to now is        3.6 secs

     total energy              =    -355.30435225 Ry
     Harris-Foulkes estimate   =    -355.30537914 Ry
     estimated scf accuracy    <       0.00221697 Ry

     iteration #  3     ecut=   100.00 Ry     beta= 0.70
     Davidson diagonalization with overlap
     ethr =  2.02E-05,  avg # of iterations =  1.6

     total cpu time spent up to now is        4.2 secs

     total energy              =    -355.30478194 Ry
     Harris-Foulkes estimate   =    -355.30476103 Ry
     estimated scf accuracy    <       0.00001420 Ry

     iteration #  4     ecut=   100.00 Ry     beta= 0.70
     Davidson diagonalization with overlap
     ethr =  1.29E-07,  avg # of iterations =  2.8

     total cpu time spent up to now is        4.9 secs

     total energy              =    -355.30478750 Ry
     Harris-Foulkes estimate   =    -355.30478728 Ry
     estimated scf accuracy    <       0.00000031 Ry

     iteration #  5     ecut=   100.00 Ry     beta= 0.70
     Davidson diagonalization with overlap
     ethr =  2.79E-09,  avg # of iterations =  1.6

     total cpu time spent up to now is        5.5 secs

     End of self-consistent calculation

          k = 0.0000 0.0000 0.0000 (  1917 PWs)   bands (ev):

     5.0655   8.0869   8.0869   8.0869   9.1273   9.1273  29.8006  33.0878
    33.0878  33.0878

          k =-0.1250 0.1250-0.1250 (  1946 PWs)   bands (ev):

     5.5363   7.9985   8.2063   8.2063   9.0935   9.0935  28.8298  30.6981
    33.0396  33.0396

          k =-0.2500 0.2500-0.2500 (  1949 PWs)   bands (ev):

     6.4596   8.2891   8.2891   8.3105   9.2545   9.2545  24.0783  30.2017
    32.6157  32.6157

          k =-0.3750 0.3750-0.3750 (  1943 PWs)   bands (ev):

     6.5587   8.1462   8.1462   9.6998   9.6998  10.3775  19.3630  29.2649
    31.6412  31.6412

          k = 0.5000-0.5000 0.5000 (  1946 PWs)   bands (ev):

     6.4773   8.0641   8.0641   9.9268   9.9268  12.4469  16.4754  28.8395
    31.0999  31.0999

          k = 0.0000 0.2500 0.0000 (  1949 PWs)   bands (ev):

     5.6952   7.8432   8.3231   8.3231   8.9025   9.2349  29.8140  31.1179
    31.1179  31.2143

          k =-0.1250 0.3750-0.1250 (  1948 PWs)   bands (ev):

     6.5524   7.6910   8.3768   8.5142   9.1288   9.4067  26.0473  29.7635
    29.9236  32.4016

          k =-0.2500 0.5000-0.2500 (  1952 PWs)   bands (ev):

     6.8417   8.0794   8.3893   8.4402   9.7792  10.6265  21.1446  28.9648
    29.0573  30.7572

          k = 0.6250-0.3750 0.6250 (  1947 PWs)   bands (ev):

     6.7373   7.9132   8.3031   9.1069   9.9427  13.1615  17.0909  27.7009
    29.3324  29.7444

          k = 0.5000-0.2500 0.5000 (  1940 PWs)   bands (ev):

     6.7968   7.9668   8.2980   9.1162   9.6410  12.3764  18.2760  26.9427
    29.9616  30.9056

          k = 0.3750-0.1250 0.3750 (  1943 PWs)   bands (ev):

     6.9282   8.0334   8.3797   8.4475   9.0728  10.3404  22.7716  27.0177
    31.3649  33.6793

          k = 0.2500 0.0000 0.2500 (  1943 PWs)   bands (ev):

     6.2374   7.8118   8.3612   8.3993   8.8706   9.4047  27.6301  27.7809
    32.6358  34.0952

          k = 0.0000 0.5000 0.0000 (  1964 PWs)   bands (ev):

     6.8707   7.2903   8.9654   8.9654   9.0756   9.5011  27.6391  27.6391
    28.7058  29.8665

          k =-0.1250 0.6250-0.1250 (  1951 PWs)   bands (ev):

     6.9699   7.2240   8.7693   9.0797   9.8156  10.9544  23.4791  26.3190
    26.4973  29.9967

          k = 0.7500-0.2500 0.7500 (  1941 PWs)   bands (ev):

     6.9532   7.5197   8.5643   8.9286   9.9844  13.8799  19.0180  24.1372
    26.6374  29.7548

          k = 0.6250-0.1250 0.6250 (  1944 PWs)   bands (ev):

     7.1800   7.7459   8.3696   8.8050   9.6684  15.0569  17.8824  22.6939
    28.1654  29.8298

          k = 0.5000 0.0000 0.5000 (  1947 PWs)   bands (ev):

     7.5210   7.7503   8.1389   8.7465   9.1413  12.3267  22.1712  22.2927
    30.4906  30.7525

          k = 0.0000 0.7500 0.0000 (  1956 PWs)   bands (ev):

     6.6781   6.7803   9.7496   9.7496   9.7770  11.7851  23.2990  24.8193
    24.8193  29.9361

          k = 0.8750-0.1250 0.8750 (  1951 PWs)   bands (ev):

     6.6412   6.8118   9.5328   9.6295  10.0463  14.2701  20.8780  21.9247
    24.5302  29.9384

          k = 0.7500 0.0000 0.7500 (  1926 PWs)   bands (ev):

     6.8743   7.2953   8.8022   9.3498   9.8536  17.1699  18.1676  20.0254
    25.7852  29.8388

          k = 0.0000-1.0000 0.0000 (  1964 PWs)   bands (ev):

     6.4351   6.5799   9.8944  10.1356  10.1356  14.4750  19.6041  23.7152
    23.7152  29.9681

          k =-0.2500 0.5000 0.0000 (  1944 PWs)   bands (ev):

     7.2600   7.4528   8.1663   8.9623   9.1528  10.4288  24.8565  25.1414
    29.3584  32.7538

          k = 0.6250-0.3750 0.8750 (  1944 PWs)   bands (ev):

     7.1999   7.7777   8.1128   8.8695   9.6382  12.6001  20.2655  24.7379
    27.1217  32.4066

          k = 0.5000-0.2500 0.7500 (  1954 PWs)   bands (ev):

     7.1436   7.6327   8.5139   8.6928   9.8522  15.1566  16.8346  25.3815
    25.5802  31.8722

          k = 0.7500-0.2500 1.0000 (  1944 PWs)   bands (ev):

     7.0246   7.0543   8.6890   9.5976   9.7422  13.0898  22.7298  22.8702
    23.8384  32.2418

          k = 0.6250-0.1250 0.8750 (  1937 PWs)   bands (ev):

     7.1049   7.4005   8.3536   9.2279   9.9690  16.2226  18.7399  21.7005
    23.5072  32.5661

          k = 0.5000 0.0000 0.7500 (  1930 PWs)   bands (ev):

     7.4074   7.7656   7.8273   9.0841   9.7390  15.3170  19.8190  20.8553
    25.0336  33.0630

          k =-0.2500-1.0000 0.0000 (  1940 PWs)   bands (ev):

     6.7567   6.8924   9.1788   9.5743  10.1362  15.9633  19.7025  21.9259
    22.2302  32.0578

          k =-0.5000-1.0000 0.0000 (  1912 PWs)   bands (ev):

     7.1903   7.8078   7.8078   9.1373  10.1367  18.8451  18.8451  19.9362
    21.0700  36.2706

     the Fermi energy is    12.7018 ev

!    total energy              =    -355.30478752 Ry
     Harris-Foulkes estimate   =    -355.30478752 Ry
     estimated scf accuracy    <          7.6E-09 Ry

     total all-electron energy =    -10632.270841 Ry

     The total energy is the sum of the following terms:

     one-electron contribution =       1.55752821 Ry
     hartree contribution      =      14.67310324 Ry
     xc contribution           =     -22.35581461 Ry
     ewald contribution        =     -71.86118018 Ry
     one-center paw contrib.   =    -277.31811922 Ry
     smearing contrib. (-TS)   =      -0.00030496 Ry

     convergence has been achieved in   5 iterations

     Forces acting on atoms (cartesian axes, Ry/au):

     atom    1 type  1   force =     0.00000000    0.00000000    0.00000000

     Total force =     0.000000     Total SCF correction =     0.000000


     Computing stress (Cartesian axis) and pressure

          total   stress  (Ry/bohr**3)                   (kbar)     P=   57.73
   0.00039243   0.00000000   0.00000000         57.73      0.00      0.00
   0.00000000   0.00039243  -0.00000000          0.00     57.73     -0.00
   0.00000000  -0.00000000   0.00039243          0.00     -0.00     57.73


     Writing output data file Ag.save/

     init_run     :      0.54s CPU      0.57s WALL (       1 calls)
     electrons    :      3.90s CPU      4.10s WALL (       1 calls)
     forces       :      0.07s CPU      0.07s WALL (       1 calls)
     stress       :      0.26s CPU      0.26s WALL (       1 calls)

     Called by init_run:
     wfcinit      :      0.18s CPU      0.20s WALL (       1 calls)
     potinit      :      0.11s CPU      0.12s WALL (       1 calls)
     hinit0       :      0.21s CPU      0.21s WALL (       1 calls)

     Called by electrons:
     c_bands      :      2.75s CPU      2.91s WALL (       6 calls)
     sum_band     :      0.54s CPU      0.58s WALL (       6 calls)
     v_of_rho     :      0.05s CPU      0.06s WALL (       6 calls)
     newd         :      0.09s CPU      0.09s WALL (       6 calls)
     PAW_pot      :      0.56s CPU      0.59s WALL (       6 calls)
     mix_rho      :      0.00s CPU      0.00s WALL (       6 calls)

     Called by c_bands:
     init_us_2    :      0.09s CPU      0.10s WALL (     435 calls)
     cegterg      :      2.61s CPU      2.76s WALL (     174 calls)

     Called by sum_band:
     sum_band:bec :      0.00s CPU      0.00s WALL (     174 calls)
     addusdens    :      0.09s CPU      0.09s WALL (       6 calls)

     Called by *egterg:
     h_psi        :      2.20s CPU      2.35s WALL (     656 calls)
     s_psi        :      0.07s CPU      0.07s WALL (     656 calls)
     g_psi        :      0.01s CPU      0.01s WALL (     453 calls)
     cdiaghg      :      0.14s CPU      0.15s WALL (     598 calls)

     Called by h_psi:
     h_psi:pot    :      2.19s CPU      2.34s WALL (     656 calls)
     h_psi:calbec :      0.11s CPU      0.12s WALL (     656 calls)
     vloc_psi     :      2.00s CPU      2.13s WALL (     656 calls)
     add_vuspsi   :      0.07s CPU      0.08s WALL (     656 calls)

     General routines
     calbec       :      0.18s CPU      0.19s WALL (     975 calls)
     fft          :      0.04s CPU      0.04s WALL (      93 calls)
     ffts         :      0.00s CPU      0.00s WALL (       6 calls)
     fftw         :      2.20s CPU      2.35s WALL (   10864 calls)

     Parallel routines
     fft_scatt_xy :      0.17s CPU      0.19s WALL (   10963 calls)
     fft_scatt_yz :      0.62s CPU      0.66s WALL (   10963 calls)

     PWSCF        :     5.61s CPU         5.91s WALL


   This run was terminated on:   0: 3:27  27Mar2024            

=------------------------------------------------------------------------------=
   JOB DONE.
=------------------------------------------------------------------------------=
