
     Program PWSCF v.6.3MaX starts on 27Mar2024 at  0:20:49 

     This program is part of the open-source Quantum ESPRESSO suite
     for quantum simulation of materials; please cite
         "P. Giannozzi et al., J. Phys.:Condens. Matter 21 395502 (2009);
         "P. Giannozzi et al., J. Phys.:Condens. Matter 29 465901 (2017);
          URL http://www.quantum-espresso.org", 
     in publications or presentations arising from this work. More details at
     http://www.quantum-espresso.org/quote

     Parallel version (MPI), running on     5 processors

     MPI processes distributed on     1 nodes
     R & G space division:  proc/nbgrp/npool/nimage =       5
     Waiting for input...
     Reading input from standard input

     Current dimensions of program PWSCF are:
     Max number of different atomic species (ntypx) = 10
     Max number of k-points (npk) =  40000
     Max angular momentum in pseudopotentials (lmaxx) =  3

     Subspace diagonalization in iterative solution of the eigenvalue problem:
     a serial algorithm will be used


     Parallelization info
     --------------------
     sticks:   dense  smooth     PW     G-vecs:    dense   smooth      PW
     Min          84      84     27                 1115     1115     207
     Max          85      85     28                 1117     1117     208
     Sum         421     421    139                 5577     5577    1037



     bravais-lattice index     =            2
     lattice parameter (alat)  =       7.7200  a.u.
     unit-cell volume          =     115.0249 (a.u.)^3
     number of atoms/cell      =            1
     number of atomic types    =            1
     number of electrons       =        11.00
     number of Kohn-Sham states=           10
     kinetic-energy cutoff     =      50.0000  Ry
     charge density cutoff     =     200.0000  Ry
     convergence threshold     =      1.0E-08
     mixing beta               =       0.7000
     number of iterations used =            8  plain     mixing
     Exchange-correlation      = PBESOL ( 1  4 10  8 0 0)

     celldm(1)=   7.720000  celldm(2)=   0.000000  celldm(3)=   0.000000
     celldm(4)=   0.000000  celldm(5)=   0.000000  celldm(6)=   0.000000

     crystal axes: (cart. coord. in units of alat)
               a(1) = (  -0.500000   0.000000   0.500000 )  
               a(2) = (   0.000000   0.500000   0.500000 )  
               a(3) = (  -0.500000   0.500000   0.000000 )  

     reciprocal axes: (cart. coord. in units 2 pi/alat)
               b(1) = ( -1.000000 -1.000000  1.000000 )  
               b(2) = (  1.000000  1.000000  1.000000 )  
               b(3) = ( -1.000000  1.000000 -1.000000 )  


     PseudoPot. # 1 for Ag read from file:
     /home/lorenzo/pseudos/Ag/Ag.pbesol-n-rrkjus_psl.1.0.0.UPF
     MD5 check sum: 3b43e8aa747a56f565f44d11355b8b45
     Pseudo is Ultrasoft + core correction, Zval = 11.0
     Generated using "atomic" code by A. Dal Corso v.6.2.2
     Using radial grid of 1237 points,  6 beta functions with: 
                l(1) =   0
                l(2) =   0
                l(3) =   1
                l(4) =   1
                l(5) =   2
                l(6) =   2
     Q(r) pseudized with 0 coefficients 


     atomic species   valence    mass     pseudopotential
        Ag            11.00   107.86820     Ag( 1.00)

     48 Sym. Ops., with inversion, found



   Cartesian axes

     site n.     atom                  positions (alat units)
         1           Ag  tau(   1) = (   0.0000000   0.0000000   0.0000000  )

     number of k points=    56  gaussian smearing, width (Ry)=  0.0100
                       cart. coord. in units 2pi/alat
        k(    1) = (   0.0000000   0.0000000   0.0000000), wk =   0.0015026
        k(    2) = (  -0.0909091   0.0909091  -0.0909091), wk =   0.0120210
        k(    3) = (  -0.1818182   0.1818182  -0.1818182), wk =   0.0120210
        k(    4) = (  -0.2727273   0.2727273  -0.2727273), wk =   0.0120210
        k(    5) = (  -0.3636364   0.3636364  -0.3636364), wk =   0.0120210
        k(    6) = (  -0.4545455   0.4545455  -0.4545455), wk =   0.0120210
        k(    7) = (   0.0000000   0.1818182   0.0000000), wk =   0.0090158
        k(    8) = (  -0.0909091   0.2727273  -0.0909091), wk =   0.0360631
        k(    9) = (  -0.1818182   0.3636364  -0.1818182), wk =   0.0360631
        k(   10) = (  -0.2727273   0.4545455  -0.2727273), wk =   0.0360631
        k(   11) = (  -0.3636364   0.5454545  -0.3636364), wk =   0.0360631
        k(   12) = (   0.5454545  -0.3636364   0.5454545), wk =   0.0360631
        k(   13) = (   0.4545455  -0.2727273   0.4545455), wk =   0.0360631
        k(   14) = (   0.3636364  -0.1818182   0.3636364), wk =   0.0360631
        k(   15) = (   0.2727273  -0.0909091   0.2727273), wk =   0.0360631
        k(   16) = (   0.1818182  -0.0000000   0.1818182), wk =   0.0180316
        k(   17) = (   0.0000000   0.3636364   0.0000000), wk =   0.0090158
        k(   18) = (  -0.0909091   0.4545455  -0.0909091), wk =   0.0360631
        k(   19) = (  -0.1818182   0.5454545  -0.1818182), wk =   0.0360631
        k(   20) = (  -0.2727273   0.6363636  -0.2727273), wk =   0.0360631
        k(   21) = (   0.6363636  -0.2727273   0.6363636), wk =   0.0360631
        k(   22) = (   0.5454545  -0.1818182   0.5454545), wk =   0.0360631
        k(   23) = (   0.4545455  -0.0909091   0.4545455), wk =   0.0360631
        k(   24) = (   0.3636364   0.0000000   0.3636364), wk =   0.0180316
        k(   25) = (   0.0000000   0.5454545   0.0000000), wk =   0.0090158
        k(   26) = (  -0.0909091   0.6363636  -0.0909091), wk =   0.0360631
        k(   27) = (  -0.1818182   0.7272727  -0.1818182), wk =   0.0360631
        k(   28) = (   0.7272727  -0.1818182   0.7272727), wk =   0.0360631
        k(   29) = (   0.6363636  -0.0909091   0.6363636), wk =   0.0360631
        k(   30) = (   0.5454545   0.0000000   0.5454545), wk =   0.0180316
        k(   31) = (   0.0000000   0.7272727   0.0000000), wk =   0.0090158
        k(   32) = (  -0.0909091   0.8181818  -0.0909091), wk =   0.0360631
        k(   33) = (   0.8181818  -0.0909091   0.8181818), wk =   0.0360631
        k(   34) = (   0.7272727   0.0000000   0.7272727), wk =   0.0180316
        k(   35) = (   0.0000000   0.9090909   0.0000000), wk =   0.0090158
        k(   36) = (   0.9090909  -0.0000000   0.9090909), wk =   0.0180316
        k(   37) = (  -0.1818182   0.3636364   0.0000000), wk =   0.0360631
        k(   38) = (  -0.2727273   0.4545455  -0.0909091), wk =   0.0721262
        k(   39) = (  -0.3636364   0.5454545  -0.1818182), wk =   0.0721262
        k(   40) = (   0.5454545  -0.3636364   0.7272727), wk =   0.0721262
        k(   41) = (  -0.1818182   0.5454545   0.0000000), wk =   0.0360631
        k(   42) = (  -0.2727273   0.6363636  -0.0909091), wk =   0.0721262
        k(   43) = (   0.6363636  -0.2727273   0.8181818), wk =   0.0721262
        k(   44) = (   0.5454545  -0.1818182   0.7272727), wk =   0.0721262
        k(   45) = (   0.4545455  -0.0909091   0.6363636), wk =   0.0721262
        k(   46) = (   0.3636364   0.0000000   0.5454545), wk =   0.0360631
        k(   47) = (  -0.1818182   0.7272727   0.0000000), wk =   0.0360631
        k(   48) = (   0.7272727  -0.1818182   0.9090909), wk =   0.0721262
        k(   49) = (   0.6363636  -0.0909091   0.8181818), wk =   0.0721262
        k(   50) = (   0.5454545   0.0000000   0.7272727), wk =   0.0360631
        k(   51) = (   0.8181818  -0.0909091   1.0000000), wk =   0.0360631
        k(   52) = (   0.7272727   0.0000000   0.9090909), wk =   0.0360631
        k(   53) = (   0.6363636  -0.2727273   1.0000000), wk =   0.0360631
        k(   54) = (   0.5454545  -0.1818182   0.9090909), wk =   0.0721262
        k(   55) = (   0.6363636  -0.0909091   1.0000000), wk =   0.0360631
        k(   56) = (   0.5454545   0.0000000   0.9090909), wk =   0.0360631

     Dense  grid:     5577 G-vectors     FFT dimensions: (  25,  25,  25)

     Estimated max dynamical RAM per process >       6.73 MB

     Estimated total dynamical RAM >      33.64 MB

     Initial potential from superposition of free atoms

     starting charge   10.99964, renormalised to   11.00000
     Starting wfcs are    9 randomized atomic wfcs +    1 random wfcs

     total cpu time spent up to now is        1.1 secs

     Self-consistent Calculation

     iteration #  1     ecut=    50.00 Ry     beta= 0.70
     Davidson diagonalization with overlap
     ethr =  1.00E-02,  avg # of iterations =  4.6

     Threshold (ethr) on eigenvalues was too large:
     Diagonalizing with lowered threshold

     Davidson diagonalization with overlap
     ethr =  4.61E-05,  avg # of iterations =  2.0

     total cpu time spent up to now is        2.0 secs

     total energy              =     -84.17557364 Ry
     Harris-Foulkes estimate   =     -84.17904567 Ry
     estimated scf accuracy    <       0.00545012 Ry

     iteration #  2     ecut=    50.00 Ry     beta= 0.70
     Davidson diagonalization with overlap
     ethr =  4.95E-05,  avg # of iterations =  2.0

     total cpu time spent up to now is        2.5 secs

     total energy              =     -84.17682669 Ry
     Harris-Foulkes estimate   =     -84.17888782 Ry
     estimated scf accuracy    <       0.00384787 Ry

     iteration #  3     ecut=    50.00 Ry     beta= 0.70
     Davidson diagonalization with overlap
     ethr =  3.50E-05,  avg # of iterations =  2.0

     total cpu time spent up to now is        2.9 secs

     total energy              =     -84.17768436 Ry
     Harris-Foulkes estimate   =     -84.17768488 Ry
     estimated scf accuracy    <       0.00002915 Ry

     iteration #  4     ecut=    50.00 Ry     beta= 0.70
     Davidson diagonalization with overlap
     ethr =  2.65E-07,  avg # of iterations =  2.5

     total cpu time spent up to now is        3.3 secs

     total energy              =     -84.17769363 Ry
     Harris-Foulkes estimate   =     -84.17769354 Ry
     estimated scf accuracy    <       0.00000044 Ry

     iteration #  5     ecut=    50.00 Ry     beta= 0.70
     Davidson diagonalization with overlap
     ethr =  4.03E-09,  avg # of iterations =  2.1

     total cpu time spent up to now is        3.7 secs

     total energy              =     -84.17769373 Ry
     Harris-Foulkes estimate   =     -84.17769376 Ry
     estimated scf accuracy    <       0.00000004 Ry

     iteration #  6     ecut=    50.00 Ry     beta= 0.70
     Davidson diagonalization with overlap
     ethr =  3.82E-10,  avg # of iterations =  2.0

     total cpu time spent up to now is        4.1 secs

     End of self-consistent calculation

          k = 0.0000 0.0000 0.0000 (   701 PWs)   bands (ev):

     4.8077   7.9180   7.9180   7.9180   8.9675   8.9675  29.5460  32.8324
    32.8324  32.8324

          k =-0.0909 0.0909-0.0909 (   685 PWs)   bands (ev):

     5.0630   7.8624   7.9883   7.9883   8.9438   8.9438  29.3246  30.9291
    32.8155  32.8155

          k =-0.1818 0.1818-0.1818 (   685 PWs)   bands (ev):

     5.7345   7.8175   8.1126   8.1126   8.9544   8.9544  26.5358  30.2701
    32.6732  32.6732

          k =-0.2727 0.2727-0.2727 (   682 PWs)   bands (ev):

     6.3166   8.1045   8.1045   8.3476   9.1698   9.1698  22.9455  29.7928
    32.2099  32.2099

          k =-0.3636 0.3636-0.3636 (   682 PWs)   bands (ev):

     6.3671   7.9925   7.9925   9.5057   9.5057   9.9023  19.5280  29.0940
    31.4677  31.4677

          k =-0.4545 0.4545-0.4545 (   694 PWs)   bands (ev):

     6.2931   7.9075   7.9075   9.7401   9.7401  11.7679  16.7882  28.6512
    30.9098  30.9098

          k = 0.0000 0.1818 0.0000 (   693 PWs)   bands (ev):

     5.1486   7.7832   8.0454   8.0454   8.8368   9.0264  29.5569  31.6077
    31.7011  31.7011

          k =-0.0909 0.2727-0.0909 (   683 PWs)   bands (ev):

     5.6934   7.6527   8.1865   8.1926   8.7675   9.0925  27.8840  30.0245
    30.7870  32.7567

          k =-0.1818 0.3636-0.1818 (   683 PWs)   bands (ev):

     6.3751   7.7495   8.1464   8.2493   9.1129   9.2788  24.3045  29.6638
    30.0680  32.9178

          k =-0.2727 0.4545-0.2727 (   685 PWs)   bands (ev):

     6.5350   7.9614   8.1657   8.4684   9.5705  10.1191  20.7780  29.0299
    29.6010  31.3351

          k =-0.3636 0.5455-0.3636 (   691 PWs)   bands (ev):

     6.4543   7.8343   8.0586   9.0859   9.7676  11.8398  17.6721  28.3985
    29.5625  30.1043

          k = 0.5455-0.3636 0.5455 (   687 PWs)   bands (ev):

     6.4276   7.8101   8.0124   9.3225   9.7293  12.8282  16.3729  27.9399
    29.6095  30.1526

          k = 0.4545-0.2727 0.4545 (   688 PWs)   bands (ev):

     6.4969   7.8888   8.0572   9.1063   9.4504  11.2933  18.6427  27.7749
    29.9178  31.4558

          k = 0.3636-0.1818 0.3636 (   676 PWs)   bands (ev):

     6.5605   7.9863   8.1739   8.3831   9.0515   9.9688  21.9403  27.9552
    30.8825  33.3991

          k = 0.2727-0.0909 0.2727 (   677 PWs)   bands (ev):

     6.1884   7.6937   8.1893   8.2357   8.7660   9.3254  25.5182  28.3797
    32.0372  34.1271

          k = 0.1818-0.0000 0.1818 (   680 PWs)   bands (ev):

     5.4670   7.7485   8.0892   8.1204   8.8116   9.0474  28.7774  29.1354
    31.9563  34.0203

          k = 0.0000 0.3636 0.0000 (   681 PWs)   bands (ev):

     6.0473   7.4366   8.4092   8.4092   8.6087   9.1859  29.2935  29.2935
    29.5924  29.9936

          k =-0.0909 0.4545-0.0909 (   684 PWs)   bands (ev):

     6.5995   7.2828   8.3028   8.5754   9.1315   9.3444  25.9407  28.2114
    29.2504  30.5464

          k =-0.1818 0.5455-0.1818 (   684 PWs)   bands (ev):

     6.7965   7.5048   8.1226   8.5493   9.6171  10.3867  22.3568  27.6028
    27.9594  29.9582

          k =-0.2727 0.6364-0.2727 (   692 PWs)   bands (ev):

     6.7378   7.6459   8.2977   8.4385   9.8012  12.2522  19.0320  26.5083
    27.5833  29.5393

          k = 0.6364-0.2727 0.6364 (   687 PWs)   bands (ev):

     6.7477   7.6087   8.3495   8.5753   9.7415  14.2059  16.5571  25.3616
    28.2589  29.4051

          k = 0.5455-0.1818 0.5455 (   688 PWs)   bands (ev):

     6.8557   7.6632   8.3350   8.5299   9.4338  13.0710  18.1402  24.6870
    29.6324  29.6926

          k = 0.4545-0.0909 0.4545 (   684 PWs)   bands (ev):

     7.0251   7.7348   8.1390   8.4124   8.9888  11.3159  21.3275  24.5398
    30.4957  31.5751

          k = 0.3636 0.0000 0.3636 (   676 PWs)   bands (ev):

     6.8818   7.5087   8.1249   8.5442   8.5749  10.0905  24.6752  25.0187
    31.7861  33.8306

          k = 0.0000 0.5455 0.0000 (   681 PWs)   bands (ev):

     6.7109   7.0081   8.9483   8.9483   9.1769   9.3997  26.7870  26.7870
    27.6397  29.6482

          k =-0.0909 0.6364-0.0909 (   688 PWs)   bands (ev):

     6.7412   6.9022   8.8365   9.0582   9.6245  10.5766  24.0754  25.7378
    25.9165  29.7748

          k =-0.1818 0.7273-0.1818 (   688 PWs)   bands (ev):

     6.7069   7.0738   8.6217   8.9646   9.8300  12.5746  20.7796  24.0120
    25.7333  29.6211

          k = 0.7273-0.1818 0.7273 (   694 PWs)   bands (ev):

     6.7886   7.3276   8.3939   8.8417   9.7797  14.9817  17.8175  22.6170
    26.3177  29.5226

          k = 0.6364-0.0909 0.6364 (   689 PWs)   bands (ev):

     7.0057   7.5780   8.1127   8.7409   9.4870  15.0878  17.9795  21.6570
    27.6193  29.6074

          k = 0.5455 0.0000 0.5455 (   684 PWs)   bands (ev):

     7.2724   7.6710   7.8915   8.6405   9.1287  13.0190  20.9471  21.3882
    29.4597  29.9557

          k = 0.0000 0.7273 0.0000 (   692 PWs)   bands (ev):

     6.5261   6.6374   9.5281   9.5281   9.6013  11.2298  23.5653  24.7591
    24.7591  29.7056

          k =-0.0909 0.8182-0.0909 (   685 PWs)   bands (ev):

     6.4652   6.5977   9.4534   9.4823   9.8509  12.9283  21.6652  22.7650
    24.3231  29.7338

          k = 0.8182-0.0909 0.8182 (   694 PWs)   bands (ev):

     6.5442   6.8198   9.0353   9.3422   9.8478  15.1529  19.7348  20.5606
    24.7199  29.6560

          k = 0.7273 0.0000 0.7273 (   694 PWs)   bands (ev):

     6.7572   7.2267   8.4842   9.1148   9.6475  17.3318  17.3360  19.8741
    25.8883  29.5962

          k = 0.0000 0.9091 0.0000 (   692 PWs)   bands (ev):

     6.2829   6.4266   9.7244   9.9265   9.9265  13.6613  20.0659  23.6041
    23.6041  29.7417

          k = 0.9091-0.0000 0.9091 (   694 PWs)   bands (ev):

     6.3328   6.4888   9.6501   9.6975   9.9445  14.6813  19.3994  22.2064
    23.7456  29.7530

          k =-0.1818 0.3636 0.0000 (   680 PWs)   bands (ev):

     6.2971   7.4830   8.1989   8.4111   8.7641   9.3499  26.9453  27.1653
    31.7126  31.8108

          k =-0.2727 0.4545-0.0909 (   686 PWs)   bands (ev):

     6.8221   7.5919   8.0052   8.4899   9.0558  10.0751  23.4348  26.5111
    30.0961  32.3473

          k =-0.3636 0.5455-0.1818 (   689 PWs)   bands (ev):

     6.7807   7.7898   8.1682   8.4422   9.4741  11.4475  19.9956  26.3127
    28.5880  31.5403

          k = 0.5455-0.3636 0.7273 (   687 PWs)   bands (ev):

     6.6921   7.6585   8.2551   8.7114   9.6959  13.3361  17.0850  26.5786
    27.4006  30.8765

          k =-0.1818 0.5455 0.0000 (   684 PWs)   bands (ev):

     6.9331   7.1101   8.2413   8.9420   9.2190  10.1412  25.0332  25.2687
    27.9110  31.3782

          k =-0.2727 0.6364-0.0909 (   687 PWs)   bands (ev):

     6.9324   7.3052   8.0985   8.9287   9.5304  11.6889  21.6838  24.8068
    26.1479  31.4871

          k = 0.6364-0.2727 0.8182 (   687 PWs)   bands (ev):

     6.9201   7.4445   8.1277   8.7619   9.7284  13.7900  18.5103  24.6251
    25.0731  31.2682

          k = 0.5455-0.1818 0.7273 (   691 PWs)   bands (ev):

     7.0269   7.4377   8.2071   8.6345   9.6616  15.2373  16.8804  23.5713
    25.8317  31.4117

          k = 0.4545-0.0909 0.6364 (   685 PWs)   bands (ev):

     7.1989   7.5221   7.9219   8.7177   9.3753  13.1814  19.6470  22.9951
    27.0509  32.1352

          k = 0.3636 0.0000 0.5455 (   680 PWs)   bands (ev):

     7.3778   7.3945   7.7624   8.8532   8.9613  11.3963  22.9093  23.0403
    28.5389  33.3993

          k =-0.1818 0.7273 0.0000 (   685 PWs)   bands (ev):

     6.7229   6.7799   8.7983   9.5234   9.5448  12.0461  23.2948  23.5668
    23.9411  31.0845

          k = 0.7273-0.1818 0.9091 (   682 PWs)   bands (ev):

     6.7372   6.9549   8.5718   9.2848   9.7988  14.1381  20.3992  22.1721
    23.6448  31.2504

          k = 0.6364-0.0909 0.8182 (   694 PWs)   bands (ev):

     6.8792   7.2658   8.2484   9.0313   9.7620  16.6304  17.6570  20.9309
    24.3637  31.3463

          k = 0.5455 0.0000 0.7273 (   695 PWs)   bands (ev):

     7.1411   7.5737   7.8213   8.8845   9.5302  15.2259  19.2225  20.4700
    25.5824  31.7142

          k = 0.8182-0.0909 1.0000 (   687 PWs)   bands (ev):

     6.4652   6.5900   9.2889   9.5960   9.9261  14.4820  20.1543  22.5451
    22.6448  30.9572

          k = 0.7273 0.0000 0.9091 (   692 PWs)   bands (ev):

     6.6229   6.8432   8.8398   9.3346   9.9208  16.1239  19.4227  20.1976
    23.1933  31.2152

          k = 0.6364-0.2727 1.0000 (   682 PWs)   bands (ev):

     7.1848   7.1933   7.9155   9.1554   9.5154  13.5049  21.4094  21.6349
    24.4953  33.8730

          k = 0.5455-0.1818 0.9091 (   688 PWs)   bands (ev):

     7.1640   7.3731   7.8326   8.9522   9.7490  15.7490  18.4632  21.9355
    23.1867  33.6247

          k = 0.6364-0.0909 1.0000 (   694 PWs)   bands (ev):

     6.8794   7.0739   8.2812   9.1669   9.9241  16.1575  20.3416  20.4417
    21.4857  33.6014

          k = 0.5455 0.0000 0.9091 (   694 PWs)   bands (ev):

     7.0143   7.4275   7.8532   8.9893   9.9216  18.0130  18.1846  19.9988
    21.8961  34.2376

     the Fermi energy is    12.8737 ev

!    total energy              =     -84.17769374 Ry
     Harris-Foulkes estimate   =     -84.17769374 Ry
     estimated scf accuracy    <          7.6E-10 Ry

     The total energy is the sum of the following terms:

     one-electron contribution =      -4.72998796 Ry
     hartree contribution      =      14.55252808 Ry
     xc contribution           =     -22.13884536 Ry
     ewald contribution        =     -71.86118022 Ry
     smearing contrib. (-TS)   =      -0.00020827 Ry

     convergence has been achieved in   6 iterations

     Forces acting on atoms (cartesian axes, Ry/au):

     atom    1 type  1   force =     0.00000000    0.00000000    0.00000000

     Total force =     0.000000     Total SCF correction =     0.000000


     Computing stress (Cartesian axis) and pressure

          total   stress  (Ry/bohr**3)                   (kbar)     P=  -43.67
  -0.00029689   0.00000000   0.00000000        -43.67      0.00      0.00
   0.00000000  -0.00029689  -0.00000000          0.00    -43.67     -0.00
   0.00000000  -0.00000000  -0.00029689          0.00     -0.00    -43.67


     Writing output data file Ag.save/

     init_run     :      0.28s CPU      0.29s WALL (       1 calls)
     electrons    :      2.83s CPU      3.03s WALL (       1 calls)
     forces       :      0.04s CPU      0.04s WALL (       1 calls)
     stress       :      0.15s CPU      0.15s WALL (       1 calls)

     Called by init_run:
     wfcinit      :      0.12s CPU      0.13s WALL (       1 calls)
     potinit      :      0.01s CPU      0.01s WALL (       1 calls)
     hinit0       :      0.14s CPU      0.14s WALL (       1 calls)

     Called by electrons:
     c_bands      :      2.33s CPU      2.50s WALL (       7 calls)
     sum_band     :      0.44s CPU      0.47s WALL (       7 calls)
     v_of_rho     :      0.02s CPU      0.02s WALL (       7 calls)
     newd         :      0.04s CPU      0.04s WALL (       7 calls)
     mix_rho      :      0.00s CPU      0.00s WALL (       7 calls)

     Called by c_bands:
     init_us_2    :      0.08s CPU      0.08s WALL (     952 calls)
     cegterg      :      2.23s CPU      2.39s WALL (     392 calls)

     Called by sum_band:
     sum_band:bec :      0.00s CPU      0.00s WALL (     392 calls)
     addusdens    :      0.03s CPU      0.04s WALL (       7 calls)

     Called by *egterg:
     h_psi        :      1.77s CPU      1.90s WALL (    1408 calls)
     s_psi        :      0.05s CPU      0.06s WALL (    1408 calls)
     g_psi        :      0.01s CPU      0.01s WALL (     960 calls)
     cdiaghg      :      0.24s CPU      0.26s WALL (    1296 calls)

     Called by h_psi:
     h_psi:pot    :      1.76s CPU      1.89s WALL (    1408 calls)
     h_psi:calbec :      0.08s CPU      0.09s WALL (    1408 calls)
     vloc_psi     :      1.61s CPU      1.73s WALL (    1408 calls)
     add_vuspsi   :      0.06s CPU      0.06s WALL (    1408 calls)

     General routines
     calbec       :      0.14s CPU      0.15s WALL (    2080 calls)
     fft          :      0.02s CPU      0.02s WALL (     104 calls)
     ffts         :      0.00s CPU      0.00s WALL (       7 calls)
     fftw         :      1.81s CPU      1.94s WALL (   24080 calls)

     Parallel routines
     fft_scatt_xy :      0.15s CPU      0.16s WALL (   24191 calls)
     fft_scatt_yz :      0.42s CPU      0.44s WALL (   24191 calls)

     PWSCF        :     4.12s CPU         4.41s WALL


   This run was terminated on:   0:20:53  27Mar2024            

=------------------------------------------------------------------------------=
   JOB DONE.
=------------------------------------------------------------------------------=
