
     Program PWSCF v.6.3MaX starts on 27Mar2024 at  0:11:47 

     This program is part of the open-source Quantum ESPRESSO suite
     for quantum simulation of materials; please cite
         "P. Giannozzi et al., J. Phys.:Condens. Matter 21 395502 (2009);
         "P. Giannozzi et al., J. Phys.:Condens. Matter 29 465901 (2017);
          URL http://www.quantum-espresso.org", 
     in publications or presentations arising from this work. More details at
     http://www.quantum-espresso.org/quote

     Parallel version (MPI), running on     5 processors

     MPI processes distributed on     1 nodes
     R & G space division:  proc/nbgrp/npool/nimage =       5
     Waiting for input...
     Reading input from standard input

     Current dimensions of program PWSCF are:
     Max number of different atomic species (ntypx) = 10
     Max number of k-points (npk) =  40000
     Max angular momentum in pseudopotentials (lmaxx) =  3
               file Ag.pbe-n-kjpaw_psl.1.0.0.UPF: wavefunction(s)  5S 5P renormalized

     Subspace diagonalization in iterative solution of the eigenvalue problem:
     a serial algorithm will be used


     Parallelization info
     --------------------
     sticks:   dense  smooth     PW     G-vecs:    dense   smooth      PW
     Min          50      50     17                  527      527     107
     Max          51      51     17                  528      528     108
     Sum         253     253     85                 2637     2637     537



     bravais-lattice index     =            2
     lattice parameter (alat)  =       7.7200  a.u.
     unit-cell volume          =     115.0249 (a.u.)^3
     number of atoms/cell      =            1
     number of atomic types    =            1
     number of electrons       =        11.00
     number of Kohn-Sham states=           10
     kinetic-energy cutoff     =      30.0000  Ry
     charge density cutoff     =     120.0000  Ry
     convergence threshold     =      1.0E-08
     mixing beta               =       0.7000
     number of iterations used =            8  plain     mixing
     Exchange-correlation      = SLA PW PBX PBC ( 1  4  3  4 0 0)

     celldm(1)=   7.720000  celldm(2)=   0.000000  celldm(3)=   0.000000
     celldm(4)=   0.000000  celldm(5)=   0.000000  celldm(6)=   0.000000

     crystal axes: (cart. coord. in units of alat)
               a(1) = (  -0.500000   0.000000   0.500000 )  
               a(2) = (   0.000000   0.500000   0.500000 )  
               a(3) = (  -0.500000   0.500000   0.000000 )  

     reciprocal axes: (cart. coord. in units 2 pi/alat)
               b(1) = ( -1.000000 -1.000000  1.000000 )  
               b(2) = (  1.000000  1.000000  1.000000 )  
               b(3) = ( -1.000000  1.000000 -1.000000 )  


     PseudoPot. # 1 for Ag read from file:
     /home/lorenzo/pseudos/Ag/Ag.pbe-n-kjpaw_psl.1.0.0.UPF
     MD5 check sum: 51099775af2a3182a6a1caffb86952a3
     Pseudo is Projector augmented-wave + core cor, Zval = 11.0
     Generated using "atomic" code by A. Dal Corso v.6.2.2
     Shape of augmentation charge: PSQ
     Using radial grid of 1237 points,  6 beta functions with: 
                l(1) =   0
                l(2) =   0
                l(3) =   1
                l(4) =   1
                l(5) =   2
                l(6) =   2
     Q(r) pseudized with 0 coefficients 


     atomic species   valence    mass     pseudopotential
        Ag            11.00   107.86820     Ag( 1.00)

     48 Sym. Ops., with inversion, found



   Cartesian axes

     site n.     atom                  positions (alat units)
         1           Ag  tau(   1) = (   0.0000000   0.0000000   0.0000000  )

     number of k points=    47  gaussian smearing, width (Ry)=  0.0100
                       cart. coord. in units 2pi/alat
        k(    1) = (   0.0000000   0.0000000   0.0000000), wk =   0.0020000
        k(    2) = (  -0.1000000   0.1000000  -0.1000000), wk =   0.0160000
        k(    3) = (  -0.2000000   0.2000000  -0.2000000), wk =   0.0160000
        k(    4) = (  -0.3000000   0.3000000  -0.3000000), wk =   0.0160000
        k(    5) = (  -0.4000000   0.4000000  -0.4000000), wk =   0.0160000
        k(    6) = (   0.5000000  -0.5000000   0.5000000), wk =   0.0080000
        k(    7) = (   0.0000000   0.2000000   0.0000000), wk =   0.0120000
        k(    8) = (  -0.1000000   0.3000000  -0.1000000), wk =   0.0480000
        k(    9) = (  -0.2000000   0.4000000  -0.2000000), wk =   0.0480000
        k(   10) = (  -0.3000000   0.5000000  -0.3000000), wk =   0.0480000
        k(   11) = (   0.6000000  -0.4000000   0.6000000), wk =   0.0480000
        k(   12) = (   0.5000000  -0.3000000   0.5000000), wk =   0.0480000
        k(   13) = (   0.4000000  -0.2000000   0.4000000), wk =   0.0480000
        k(   14) = (   0.3000000  -0.1000000   0.3000000), wk =   0.0480000
        k(   15) = (   0.2000000   0.0000000   0.2000000), wk =   0.0240000
        k(   16) = (   0.0000000   0.4000000   0.0000000), wk =   0.0120000
        k(   17) = (  -0.1000000   0.5000000  -0.1000000), wk =   0.0480000
        k(   18) = (  -0.2000000   0.6000000  -0.2000000), wk =   0.0480000
        k(   19) = (   0.7000000  -0.3000000   0.7000000), wk =   0.0480000
        k(   20) = (   0.6000000  -0.2000000   0.6000000), wk =   0.0480000
        k(   21) = (   0.5000000  -0.1000000   0.5000000), wk =   0.0480000
        k(   22) = (   0.4000000   0.0000000   0.4000000), wk =   0.0240000
        k(   23) = (   0.0000000   0.6000000   0.0000000), wk =   0.0120000
        k(   24) = (  -0.1000000   0.7000000  -0.1000000), wk =   0.0480000
        k(   25) = (   0.8000000  -0.2000000   0.8000000), wk =   0.0480000
        k(   26) = (   0.7000000  -0.1000000   0.7000000), wk =   0.0480000
        k(   27) = (   0.6000000  -0.0000000   0.6000000), wk =   0.0240000
        k(   28) = (   0.0000000   0.8000000   0.0000000), wk =   0.0120000
        k(   29) = (   0.9000000  -0.1000000   0.9000000), wk =   0.0480000
        k(   30) = (   0.8000000   0.0000000   0.8000000), wk =   0.0240000
        k(   31) = (   0.0000000  -1.0000000   0.0000000), wk =   0.0060000
        k(   32) = (  -0.2000000   0.4000000   0.0000000), wk =   0.0480000
        k(   33) = (  -0.3000000   0.5000000  -0.1000000), wk =   0.0960000
        k(   34) = (   0.6000000  -0.4000000   0.8000000), wk =   0.0960000
        k(   35) = (   0.5000000  -0.3000000   0.7000000), wk =   0.0480000
        k(   36) = (  -0.2000000   0.6000000   0.0000000), wk =   0.0480000
        k(   37) = (   0.7000000  -0.3000000   0.9000000), wk =   0.0960000
        k(   38) = (   0.6000000  -0.2000000   0.8000000), wk =   0.0960000
        k(   39) = (   0.5000000  -0.1000000   0.7000000), wk =   0.0960000
        k(   40) = (   0.4000000   0.0000000   0.6000000), wk =   0.0480000
        k(   41) = (   0.8000000  -0.2000000   1.0000000), wk =   0.0480000
        k(   42) = (   0.7000000  -0.1000000   0.9000000), wk =   0.0960000
        k(   43) = (   0.6000000   0.0000000   0.8000000), wk =   0.0480000
        k(   44) = (  -0.2000000  -1.0000000   0.0000000), wk =   0.0240000
        k(   45) = (   0.6000000  -0.2000000   1.0000000), wk =   0.0480000
        k(   46) = (   0.5000000  -0.1000000   0.9000000), wk =   0.0480000
        k(   47) = (  -0.4000000  -1.0000000   0.0000000), wk =   0.0240000

     Dense  grid:     2637 G-vectors     FFT dimensions: (  20,  20,  20)

     Estimated max dynamical RAM per process >       3.51 MB

     Estimated total dynamical RAM >      17.54 MB

     Initial potential from superposition of free atoms

     starting charge   10.99960, renormalised to   11.00000
     Starting wfcs are    9 randomized atomic wfcs +    1 random wfcs
     Checking if some PAW data can be deallocated... 

     total cpu time spent up to now is        1.1 secs

     Self-consistent Calculation

     iteration #  1     ecut=    30.00 Ry     beta= 0.70
     Davidson diagonalization with overlap
     ethr =  1.00E-02,  avg # of iterations =  4.7

     Threshold (ethr) on eigenvalues was too large:
     Diagonalizing with lowered threshold

     Davidson diagonalization with overlap
     ethr =  1.03E-04,  avg # of iterations =  1.3

     total cpu time spent up to now is        1.7 secs

     total energy              =    -355.20071097 Ry
     Harris-Foulkes estimate   =    -355.20863578 Ry
     estimated scf accuracy    <       0.01205103 Ry

     iteration #  2     ecut=    30.00 Ry     beta= 0.70
     Davidson diagonalization with overlap
     ethr =  1.10E-04,  avg # of iterations =  2.0

     total cpu time spent up to now is        2.0 secs

     total energy              =    -355.20514381 Ry
     Harris-Foulkes estimate   =    -355.20958209 Ry
     estimated scf accuracy    <       0.00991614 Ry

     iteration #  3     ecut=    30.00 Ry     beta= 0.70
     Davidson diagonalization with overlap
     ethr =  9.01E-05,  avg # of iterations =  1.4

     total cpu time spent up to now is        2.3 secs

     total energy              =    -355.20685507 Ry
     Harris-Foulkes estimate   =    -355.20676936 Ry
     estimated scf accuracy    <       0.00007444 Ry

     iteration #  4     ecut=    30.00 Ry     beta= 0.70
     Davidson diagonalization with overlap
     ethr =  6.77E-07,  avg # of iterations =  2.9

     total cpu time spent up to now is        2.6 secs

     total energy              =    -355.20689345 Ry
     Harris-Foulkes estimate   =    -355.20689352 Ry
     estimated scf accuracy    <       0.00000375 Ry

     iteration #  5     ecut=    30.00 Ry     beta= 0.70
     Davidson diagonalization with overlap
     ethr =  3.41E-08,  avg # of iterations =  1.3

     total cpu time spent up to now is        2.9 secs

     total energy              =    -355.20689216 Ry
     Harris-Foulkes estimate   =    -355.20689352 Ry
     estimated scf accuracy    <       0.00000354 Ry

     iteration #  6     ecut=    30.00 Ry     beta= 0.70
     Davidson diagonalization with overlap
     ethr =  3.21E-08,  avg # of iterations =  2.0

     total cpu time spent up to now is        3.3 secs

     total energy              =    -355.20689297 Ry
     Harris-Foulkes estimate   =    -355.20689362 Ry
     estimated scf accuracy    <       0.00000227 Ry

     iteration #  7     ecut=    30.00 Ry     beta= 0.70
     Davidson diagonalization with overlap
     ethr =  2.06E-08,  avg # of iterations =  1.0

     total cpu time spent up to now is        3.6 secs

     total energy              =    -355.20689282 Ry
     Harris-Foulkes estimate   =    -355.20689308 Ry
     estimated scf accuracy    <       0.00000054 Ry

     iteration #  8     ecut=    30.00 Ry     beta= 0.70
     Davidson diagonalization with overlap
     ethr =  4.93E-09,  avg # of iterations =  1.8

     total cpu time spent up to now is        3.9 secs

     End of self-consistent calculation

          k = 0.0000 0.0000 0.0000 (   331 PWs)   bands (ev):

     5.0609   7.9888   7.9888   7.9888   9.0145   9.0145  29.8195  33.0783
    33.0783  33.0783

          k =-0.1000 0.1000-0.1000 (   328 PWs)   bands (ev):

     5.3671   7.9477   8.0742   8.0742   9.0043   9.0043  29.4527  30.9976
    33.0519  33.0519

          k =-0.2000 0.2000-0.2000 (   320 PWs)   bands (ev):

     6.1239   7.9744   8.2147   8.2147   9.0853   9.0853  26.0584  30.4852
    32.8504  32.8504

          k =-0.3000 0.3000-0.3000 (   314 PWs)   bands (ev):

     6.5516   8.1967   8.1967   8.9123   9.4151   9.4151  22.1080  29.8490
    32.2419  32.2419

          k =-0.4000 0.4000-0.4000 (   323 PWs)   bands (ev):

     6.4897   8.0615   8.0615   9.7213   9.7213  10.8978  18.5047  29.1390
    31.4239  31.4239

          k = 0.5000-0.5000 0.5000 (   332 PWs)   bands (ev):

     6.4308   7.9819   7.9819   9.8365   9.8365  12.4343  16.4453  28.8612
    31.0611  31.0611

          k = 0.0000 0.2000 0.0000 (   327 PWs)   bands (ev):

     5.4702   7.8343   8.1577   8.1577   8.8996   9.0878  29.8260  31.6886
    31.7311  31.7311

          k =-0.1000 0.3000-0.1000 (   317 PWs)   bands (ev):

     6.1017   7.7258   8.3250   8.3525   8.8833   9.2286  27.5905  30.2092
    30.6954  32.9732

          k =-0.2000 0.4000-0.2000 (   318 PWs)   bands (ev):

     6.7012   7.9834   8.2109   8.3560   9.4994   9.5038  23.6016  29.7343
    29.9254  32.4814

          k =-0.3000 0.5000-0.3000 (   325 PWs)   bands (ev):

     6.6841   7.9935   8.2430   8.7897   9.7774  10.9585  19.8073  28.9738
    29.5512  30.8450

          k = 0.6000-0.4000 0.6000 (   320 PWs)   bands (ev):

     6.6293   7.9041   8.1781   9.2914   9.8881  12.9496  16.8559  28.2514
    29.8284  29.9000

          k = 0.5000-0.3000 0.5000 (   321 PWs)   bands (ev):

     6.6533   7.9358   8.1688   9.3293   9.6805  12.3782  17.6671  27.7948
    29.9021  30.9332

          k = 0.4000-0.2000 0.4000 (   316 PWs)   bands (ev):

     6.7552   8.0630   8.2785   8.7576   9.3276  10.5693  21.0488  27.8016
    30.7533  32.8812

          k = 0.3000-0.1000 0.3000 (   316 PWs)   bands (ev):

     6.6014   7.8524   8.3004   8.3695   8.9015   9.6153  24.9450  28.1984
    32.1586  34.3302

          k = 0.2000 0.0000 0.2000 (   317 PWs)   bands (ev):

     5.8446   7.8496   8.2109   8.2598   8.8971   9.1784  28.7550  28.9077
    32.2713  34.5118

          k = 0.0000 0.4000 0.0000 (   311 PWs)   bands (ev):

     6.4842   7.4785   8.6522   8.6522   8.7485   9.3413  29.0237  29.0237
    29.8810  29.9485

          k =-0.1000 0.5000-0.1000 (   316 PWs)   bands (ev):

     6.9414   7.3281   8.4686   8.8033   9.5391   9.5961  25.4312  27.8775
    28.9137  30.4111

          k =-0.2000 0.6000-0.2000 (   324 PWs)   bands (ev):

     6.9299   7.6059   8.3229   8.7065   9.7939  11.2919  21.5454  27.1481
    27.3695  29.9739

          k = 0.7000-0.3000 0.7000 (   319 PWs)   bands (ev):

     6.9100   7.7117   8.5051   8.6067   9.9254  13.6266  18.0937  25.5913
    27.6716  29.7002

          k = 0.6000-0.2000 0.6000 (   315 PWs)   bands (ev):

     7.0344   7.7255   8.5310   8.6486   9.7126  14.4535  17.2670  24.5252
    28.8384  29.7808

          k = 0.5000-0.1000 0.5000 (   317 PWs)   bands (ev):

     7.2116   7.8167   8.3407   8.5753   9.2730  12.3045  20.4831  24.0901
    30.3805  30.7754

          k = 0.4000 0.0000 0.4000 (   323 PWs)   bands (ev):

     7.2864   7.6247   8.1875   8.6593   8.7520  10.6421  24.1219  24.4215
    31.5273  33.1693

          k = 0.0000 0.6000 0.0000 (   315 PWs)   bands (ev):

     6.8644   7.0052   9.2677   9.2677   9.5803   9.8698  26.3490  26.3490
    26.7053  29.9378

          k =-0.1000 0.7000-0.1000 (   319 PWs)   bands (ev):

     6.7903   6.9290   9.1630   9.3253   9.8217  11.6090  23.4756  24.5636
    25.5488  29.9863

          k = 0.8000-0.2000 0.8000 (   317 PWs)   bands (ev):

     6.8071   7.1654   8.8745   9.1914   9.9599  14.0503  20.0381  22.7813
    25.6582  29.8669

          k = 0.7000-0.1000 0.7000 (   317 PWs)   bands (ev):

     6.9767   7.5415   8.4575   9.0650   9.7739  16.6767  17.2777  21.4445
    26.7121  29.8241

          k = 0.6000-0.0000 0.6000 (   319 PWs)   bands (ev):

     7.2669   7.9212   7.9792   8.8807   9.4240  14.4253  20.0206  20.9729
    28.5230  29.9941

          k = 0.0000 0.8000 0.0000 (   322 PWs)   bands (ev):

     6.5514   6.6456   9.7523   9.8229   9.8229  12.4659  22.2211  24.4076
    24.4076  29.9847

          k = 0.9000-0.1000 0.9000 (   322 PWs)   bands (ev):

     6.5343   6.6652   9.6730   9.6810  10.0202  14.3123  20.4648  22.3976
    24.2181  29.9930

          k = 0.8000 0.0000 0.8000 (   322 PWs)   bands (ev):

     6.6897   7.0074   9.1038   9.4657   9.9062  16.3273  19.3459  20.0155
    25.0506  29.9074

          k = 0.0000-1.0000 0.0000 (   326 PWs)   bands (ev):

     6.4178   6.5100   9.7997  10.0694  10.0694  14.4541  19.6092  23.6878
    23.6878  29.9980

          k =-0.2000 0.4000 0.0000 (   320 PWs)   bands (ev):

     6.7554   7.5359   8.2701   8.6184   8.9171   9.6146  26.5331  26.8147
    31.3586  32.2379

          k =-0.3000 0.5000-0.1000 (   318 PWs)   bands (ev):

     7.0815   7.8206   8.0165   8.6773   9.3254  10.6965  22.7024  26.1498
    29.5142  32.5085

          k = 0.6000-0.4000 0.8000 (   318 PWs)   bands (ev):

     6.9674   7.8053   8.3827   8.6311   9.7047  12.5741  19.0528  26.1255
    27.9056  31.6215

          k = 0.5000-0.3000 0.7000 (   318 PWs)   bands (ev):

     6.9255   7.7157   8.4453   8.7875   9.8199  14.3701  16.6749  26.6770
    26.7773  31.2208

          k =-0.2000 0.6000 0.0000 (   323 PWs)   bands (ev):

     7.1206   7.1358   8.4244   9.2329   9.4180  10.8760  24.5190  24.7290
    26.9500  31.7974

          k = 0.7000-0.3000 0.9000 (   322 PWs)   bands (ev):

     7.0457   7.3836   8.2873   9.1278   9.7431  12.8966  20.9247  24.4083
    25.1089  31.8725

          k = 0.6000-0.2000 0.8000 (   319 PWs)   bands (ev):

     7.1329   7.5357   8.2727   8.9135   9.8427  15.4595  17.6767  23.5530
    25.0303  31.8129

          k = 0.5000-0.1000 0.7000 (   321 PWs)   bands (ev):

     7.3456   7.5634   8.1065   8.8759   9.6384  14.6595  18.7894  22.6158
    26.1856  32.2768

          k = 0.4000 0.0000 0.6000 (   318 PWs)   bands (ev):

     7.5365   7.6711   7.7471   9.0260   9.2647  12.4230  22.2904  22.3676
    27.7566  33.3173

          k = 0.8000-0.2000 1.0000 (   320 PWs)   bands (ev):

     6.7778   6.8375   9.0681   9.6681   9.8258  13.3804  22.2875  23.0887
    23.2605  31.5223

          k = 0.7000-0.1000 0.9000 (   317 PWs)   bands (ev):

     6.8663   7.1078   8.7526   9.3873   9.9877  15.8123  19.8212  20.9970
    23.5242  31.7704

          k = 0.6000 0.0000 0.8000 (   325 PWs)   bands (ev):

     7.0825   7.5135   8.2263   9.0960   9.8095  17.0775  18.2936  20.2701
    24.6360  31.9765

          k =-0.2000-1.0000 0.0000 (   320 PWs)   bands (ev):

     6.6191   6.7240   9.4246   9.6156  10.1137  15.4706  19.6584  22.4530
    22.6081  31.4366

          k = 0.6000-0.2000 1.0000 (   317 PWs)   bands (ev):

     7.2548   7.4016   8.0683   9.2327   9.8298  15.0972  20.7012  21.2250
    23.3998  34.6648

          k = 0.5000-0.1000 0.9000 (   318 PWs)   bands (ev):

     7.2318   7.6440   7.8883   9.0862   9.9768  17.6701  17.8546  21.5059
    22.3764  34.5507

          k =-0.4000-1.0000 0.0000 (   318 PWs)   bands (ev):

     7.0570   7.3356   8.2917   9.1984  10.1127  17.6091  19.8499  20.0852
    21.2975  34.4813

     the Fermi energy is    12.7900 ev

!    total energy              =    -355.20689293 Ry
     Harris-Foulkes estimate   =    -355.20689293 Ry
     estimated scf accuracy    <          1.1E-09 Ry

     total all-electron energy =    -10632.172947 Ry

     The total energy is the sum of the following terms:

     one-electron contribution =       1.69604322 Ry
     hartree contribution      =      14.55406004 Ry
     xc contribution           =     -22.33460685 Ry
     ewald contribution        =     -71.86118020 Ry
     one-center paw contrib.   =    -277.26100621 Ry
     smearing contrib. (-TS)   =      -0.00020292 Ry

     convergence has been achieved in   8 iterations

     Forces acting on atoms (cartesian axes, Ry/au):

     atom    1 type  1   force =     0.00000000    0.00000000    0.00000000

     Total force =     0.000000     Total SCF correction =     0.000000


     Computing stress (Cartesian axis) and pressure

          total   stress  (Ry/bohr**3)                   (kbar)     P= -809.68
  -0.00550410  -0.00000000  -0.00000000       -809.68     -0.00     -0.00
  -0.00000000  -0.00550410   0.00000000         -0.00   -809.68      0.00
  -0.00000000   0.00000000  -0.00550410         -0.00      0.00   -809.68


     Writing output data file Ag.save/

     init_run     :      0.28s CPU      0.30s WALL (       1 calls)
     electrons    :      2.51s CPU      2.80s WALL (       1 calls)
     forces       :      0.02s CPU      0.02s WALL (       1 calls)
     stress       :      0.07s CPU      0.07s WALL (       1 calls)

     Called by init_run:
     wfcinit      :      0.06s CPU      0.07s WALL (       1 calls)
     potinit      :      0.09s CPU      0.11s WALL (       1 calls)
     hinit0       :      0.11s CPU      0.11s WALL (       1 calls)

     Called by electrons:
     c_bands      :      1.40s CPU      1.55s WALL (       9 calls)
     sum_band     :      0.27s CPU      0.30s WALL (       9 calls)
     v_of_rho     :      0.01s CPU      0.01s WALL (       9 calls)
     newd         :      0.03s CPU      0.03s WALL (       9 calls)
     PAW_pot      :      0.88s CPU      1.00s WALL (       9 calls)
     mix_rho      :      0.00s CPU      0.00s WALL (       9 calls)

     Called by c_bands:
     init_us_2    :      0.04s CPU      0.04s WALL (     987 calls)
     cegterg      :      1.34s CPU      1.48s WALL (     423 calls)

     Called by sum_band:
     sum_band:bec :      0.00s CPU      0.00s WALL (     423 calls)
     addusdens    :      0.02s CPU      0.02s WALL (       9 calls)

     Called by *egterg:
     h_psi        :      0.98s CPU      1.08s WALL (    1339 calls)
     s_psi        :      0.03s CPU      0.03s WALL (    1339 calls)
     g_psi        :      0.00s CPU      0.00s WALL (     869 calls)
     cdiaghg      :      0.21s CPU      0.23s WALL (    1245 calls)

     Called by h_psi:
     h_psi:pot    :      0.98s CPU      1.07s WALL (    1339 calls)
     h_psi:calbec :      0.05s CPU      0.05s WALL (    1339 calls)
     vloc_psi     :      0.89s CPU      0.98s WALL (    1339 calls)
     add_vuspsi   :      0.03s CPU      0.03s WALL (    1339 calls)

     General routines
     calbec       :      0.08s CPU      0.09s WALL (    1997 calls)
     fft          :      0.01s CPU      0.01s WALL (     126 calls)
     ffts         :      0.00s CPU      0.00s WALL (       9 calls)
     fftw         :      0.99s CPU      1.09s WALL (   24972 calls)

     Parallel routines
     fft_scatt_xy :      0.09s CPU      0.10s WALL (   25107 calls)
     fft_scatt_yz :      0.31s CPU      0.34s WALL (   25107 calls)

     PWSCF        :     3.68s CPU         4.06s WALL


   This run was terminated on:   0:11:51  27Mar2024            

=------------------------------------------------------------------------------=
   JOB DONE.
=------------------------------------------------------------------------------=
