
     Program PWSCF v.6.3MaX starts on 27Mar2024 at  0:23:39 

     This program is part of the open-source Quantum ESPRESSO suite
     for quantum simulation of materials; please cite
         "P. Giannozzi et al., J. Phys.:Condens. Matter 21 395502 (2009);
         "P. Giannozzi et al., J. Phys.:Condens. Matter 29 465901 (2017);
          URL http://www.quantum-espresso.org", 
     in publications or presentations arising from this work. More details at
     http://www.quantum-espresso.org/quote

     Parallel version (MPI), running on     5 processors

     MPI processes distributed on     1 nodes
     R & G space division:  proc/nbgrp/npool/nimage =       5
     Waiting for input...
     Reading input from standard input

     Current dimensions of program PWSCF are:
     Max number of different atomic species (ntypx) = 10
     Max number of k-points (npk) =  40000
     Max angular momentum in pseudopotentials (lmaxx) =  3
               file Ag.pbesol-n-kjpaw_psl.1.0.0.UPF: wavefunction(s)  5S 5P renormalized

     Subspace diagonalization in iterative solution of the eigenvalue problem:
     a serial algorithm will be used


     Parallelization info
     --------------------
     sticks:   dense  smooth     PW     G-vecs:    dense   smooth      PW
     Min          90      90     27                 1274     1274     213
     Max          91      91     28                 1276     1276     214
     Sum         451     451    139                 6375     6375    1067



     bravais-lattice index     =            2
     lattice parameter (alat)  =       7.7200  a.u.
     unit-cell volume          =     115.0249 (a.u.)^3
     number of atoms/cell      =            1
     number of atomic types    =            1
     number of electrons       =        11.00
     number of Kohn-Sham states=           10
     kinetic-energy cutoff     =      55.0000  Ry
     charge density cutoff     =     220.0000  Ry
     convergence threshold     =      1.0E-08
     mixing beta               =       0.7000
     number of iterations used =            8  plain     mixing
     Exchange-correlation      = SLA PW PSX PSC ( 1  4 10  8 0 0)

     celldm(1)=   7.720000  celldm(2)=   0.000000  celldm(3)=   0.000000
     celldm(4)=   0.000000  celldm(5)=   0.000000  celldm(6)=   0.000000

     crystal axes: (cart. coord. in units of alat)
               a(1) = (  -0.500000   0.000000   0.500000 )  
               a(2) = (   0.000000   0.500000   0.500000 )  
               a(3) = (  -0.500000   0.500000   0.000000 )  

     reciprocal axes: (cart. coord. in units 2 pi/alat)
               b(1) = ( -1.000000 -1.000000  1.000000 )  
               b(2) = (  1.000000  1.000000  1.000000 )  
               b(3) = ( -1.000000  1.000000 -1.000000 )  


     PseudoPot. # 1 for Ag read from file:
     /home/lorenzo/pseudos/Ag/Ag.pbesol-n-kjpaw_psl.1.0.0.UPF
     MD5 check sum: 3b245e14fa22881b2ac493bfd23f605f
     Pseudo is Projector augmented-wave + core cor, Zval = 11.0
     Generated using "atomic" code by A. Dal Corso v.6.2.2
     Shape of augmentation charge: PSQ
     Using radial grid of 1237 points,  6 beta functions with: 
                l(1) =   0
                l(2) =   0
                l(3) =   1
                l(4) =   1
                l(5) =   2
                l(6) =   2
     Q(r) pseudized with 0 coefficients 


     atomic species   valence    mass     pseudopotential
        Ag            11.00   107.86820     Ag( 1.00)

     48 Sym. Ops., with inversion, found



   Cartesian axes

     site n.     atom                  positions (alat units)
         1           Ag  tau(   1) = (   0.0000000   0.0000000   0.0000000  )

     number of k points=     4  gaussian smearing, width (Ry)=  0.0100
                       cart. coord. in units 2pi/alat
        k(    1) = (   0.0000000   0.0000000   0.0000000), wk =   0.0740741
        k(    2) = (  -0.3333333   0.3333333  -0.3333333), wk =   0.5925926
        k(    3) = (   0.0000000   0.6666667   0.0000000), wk =   0.4444444
        k(    4) = (   0.6666667  -0.0000000   0.6666667), wk =   0.8888889

     Dense  grid:     6375 G-vectors     FFT dimensions: (  25,  25,  25)

     Estimated max dynamical RAM per process >       6.29 MB

     Estimated total dynamical RAM >      31.43 MB

     Initial potential from superposition of free atoms

     starting charge   10.99964, renormalised to   11.00000
     Starting wfcs are    9 randomized atomic wfcs +    1 random wfcs
     Checking if some PAW data can be deallocated... 

     total cpu time spent up to now is        1.1 secs

     Self-consistent Calculation

     iteration #  1     ecut=    55.00 Ry     beta= 0.70
     Davidson diagonalization with overlap
     ethr =  1.00E-02,  avg # of iterations =  5.8

     Threshold (ethr) on eigenvalues was too large:
     Diagonalizing with lowered threshold

     Davidson diagonalization with overlap
     ethr =  4.57E-05,  avg # of iterations =  2.8

     total cpu time spent up to now is        1.4 secs

     total energy              =    -350.26021478 Ry
     Harris-Foulkes estimate   =    -350.26380556 Ry
     estimated scf accuracy    <       0.00545411 Ry

     iteration #  2     ecut=    55.00 Ry     beta= 0.70
     Davidson diagonalization with overlap
     ethr =  4.96E-05,  avg # of iterations =  2.0

     total cpu time spent up to now is        1.5 secs

     total energy              =    -350.26178216 Ry
     Harris-Foulkes estimate   =    -350.26368572 Ry
     estimated scf accuracy    <       0.00392237 Ry

     iteration #  3     ecut=    55.00 Ry     beta= 0.70
     Davidson diagonalization with overlap
     ethr =  3.57E-05,  avg # of iterations =  2.0

     total cpu time spent up to now is        1.7 secs

     total energy              =    -350.26254117 Ry
     Harris-Foulkes estimate   =    -350.26252409 Ry
     estimated scf accuracy    <       0.00001528 Ry

     iteration #  4     ecut=    55.00 Ry     beta= 0.70
     Davidson diagonalization with overlap
     ethr =  1.39E-07,  avg # of iterations =  2.8

     total cpu time spent up to now is        1.9 secs

     total energy              =    -350.26254923 Ry
     Harris-Foulkes estimate   =    -350.26254901 Ry
     estimated scf accuracy    <       0.00000036 Ry

     iteration #  5     ecut=    55.00 Ry     beta= 0.70
     Davidson diagonalization with overlap
     ethr =  3.29E-09,  avg # of iterations =  1.2

     total cpu time spent up to now is        2.0 secs

     End of self-consistent calculation

          k = 0.0000 0.0000 0.0000 (   821 PWs)   bands (ev):

     4.8063   7.9173   7.9173   7.9173   8.9659   8.9659  29.5485  32.8285
    32.8285  32.8285

          k =-0.3333 0.3333-0.3333 (   805 PWs)   bands (ev):

     6.3835   8.0300   8.0300   9.2992   9.3934   9.3934  20.6237  29.3144
    31.7190  31.7190

          k = 0.0000 0.6667 0.0000 (   797 PWs)   bands (ev):

     6.6233   6.7463   9.3418   9.3418   9.5384  10.4381  24.9396  25.3535
    25.3535  29.6872

          k = 0.6667-0.0000 0.6667 (   792 PWs)   bands (ev):

     6.9378   7.5145   8.1408   8.9214   9.4919  15.7955  18.4627  20.1909
    26.9540  29.6070

     the Fermi energy is    10.5030 ev

!    total energy              =    -350.26254925 Ry
     Harris-Foulkes estimate   =    -350.26254925 Ry
     estimated scf accuracy    <          2.2E-09 Ry

     total all-electron energy =    -10627.272958 Ry

     The total energy is the sum of the following terms:

     one-electron contribution =       1.58654732 Ry
     hartree contribution      =      14.56670159 Ry
     xc contribution           =     -22.14244451 Ry
     ewald contribution        =     -71.86118025 Ry
     one-center paw contrib.   =    -272.41117472 Ry
     smearing contrib. (-TS)   =      -0.00099868 Ry

     convergence has been achieved in   5 iterations

     Forces acting on atoms (cartesian axes, Ry/au):

     atom    1 type  1   force =     0.00000000    0.00000000    0.00000000

     Total force =     0.000000     Total SCF correction =     0.000000


     Computing stress (Cartesian axis) and pressure

          total   stress  (Ry/bohr**3)                   (kbar)     P=  -70.93
  -0.00048218  -0.00000000  -0.00000000        -70.93     -0.00     -0.00
  -0.00000000  -0.00048218   0.00000000         -0.00    -70.93      0.00
  -0.00000000   0.00000000  -0.00048218         -0.00      0.00    -70.93


     Writing output data file Ag.save/

     init_run     :      0.29s CPU      0.31s WALL (       1 calls)
     electrons    :      0.81s CPU      0.90s WALL (       1 calls)
     forces       :      0.02s CPU      0.02s WALL (       1 calls)
     stress       :      0.07s CPU      0.07s WALL (       1 calls)

     Called by init_run:
     wfcinit      :      0.01s CPU      0.01s WALL (       1 calls)
     potinit      :      0.11s CPU      0.12s WALL (       1 calls)
     hinit0       :      0.15s CPU      0.15s WALL (       1 calls)

     Called by electrons:
     c_bands      :      0.18s CPU      0.19s WALL (       6 calls)
     sum_band     :      0.09s CPU      0.09s WALL (       6 calls)
     v_of_rho     :      0.02s CPU      0.02s WALL (       6 calls)
     newd         :      0.03s CPU      0.04s WALL (       6 calls)
     PAW_pot      :      0.58s CPU      0.67s WALL (       6 calls)
     mix_rho      :      0.00s CPU      0.00s WALL (       6 calls)

     Called by c_bands:
     init_us_2    :      0.01s CPU      0.01s WALL (      60 calls)
     cegterg      :      0.17s CPU      0.18s WALL (      24 calls)

     Called by sum_band:
     sum_band:bec :      0.00s CPU      0.00s WALL (      24 calls)
     addusdens    :      0.05s CPU      0.05s WALL (       6 calls)

     Called by *egterg:
     h_psi        :      0.12s CPU      0.13s WALL (      94 calls)
     s_psi        :      0.00s CPU      0.00s WALL (      94 calls)
     g_psi        :      0.00s CPU      0.00s WALL (      66 calls)
     cdiaghg      :      0.02s CPU      0.02s WALL (      86 calls)

     Called by h_psi:
     h_psi:pot    :      0.12s CPU      0.13s WALL (      94 calls)
     h_psi:calbec :      0.01s CPU      0.01s WALL (      94 calls)
     vloc_psi     :      0.11s CPU      0.12s WALL (      94 calls)
     add_vuspsi   :      0.00s CPU      0.00s WALL (      94 calls)

     General routines
     calbec       :      0.01s CPU      0.01s WALL (     138 calls)
     fft          :      0.02s CPU      0.02s WALL (      93 calls)
     ffts         :      0.00s CPU      0.00s WALL (       6 calls)
     fftw         :      0.12s CPU      0.13s WALL (    1508 calls)

     Parallel routines
     fft_scatt_xy :      0.01s CPU      0.01s WALL (    1607 calls)
     fft_scatt_yz :      0.04s CPU      0.04s WALL (    1607 calls)

     PWSCF        :     2.00s CPU         2.15s WALL


   This run was terminated on:   0:23:42  27Mar2024            

=------------------------------------------------------------------------------=
   JOB DONE.
=------------------------------------------------------------------------------=
