
     Program PWSCF v.6.3MaX starts on 27Mar2024 at  0:32:21 

     This program is part of the open-source Quantum ESPRESSO suite
     for quantum simulation of materials; please cite
         "P. Giannozzi et al., J. Phys.:Condens. Matter 21 395502 (2009);
         "P. Giannozzi et al., J. Phys.:Condens. Matter 29 465901 (2017);
          URL http://www.quantum-espresso.org", 
     in publications or presentations arising from this work. More details at
     http://www.quantum-espresso.org/quote

     Parallel version (MPI), running on     5 processors

     MPI processes distributed on     1 nodes
     R & G space division:  proc/nbgrp/npool/nimage =       5
     Waiting for input...
     Reading input from standard input

     Current dimensions of program PWSCF are:
     Max number of different atomic species (ntypx) = 10
     Max number of k-points (npk) =  40000
     Max angular momentum in pseudopotentials (lmaxx) =  3

     Subspace diagonalization in iterative solution of the eigenvalue problem:
     a serial algorithm will be used


     Parallelization info
     --------------------
     sticks:   dense  smooth     PW     G-vecs:    dense   smooth      PW
     Min         116     116     37                 1836     1836     327
     Max         117     117     38                 1838     1838     329
     Sum         583     583    187                 9185     9185    1639



     bravais-lattice index     =            2
     lattice parameter (alat)  =       7.7200  a.u.
     unit-cell volume          =     115.0249 (a.u.)^3
     number of atoms/cell      =            1
     number of atomic types    =            1
     number of electrons       =        11.00
     number of Kohn-Sham states=           10
     kinetic-energy cutoff     =      70.0000  Ry
     charge density cutoff     =     280.0000  Ry
     convergence threshold     =      1.0E-08
     mixing beta               =       0.7000
     number of iterations used =            8  plain     mixing
     Exchange-correlation      = PBESOL ( 1  4 10  8 0 0)

     celldm(1)=   7.720000  celldm(2)=   0.000000  celldm(3)=   0.000000
     celldm(4)=   0.000000  celldm(5)=   0.000000  celldm(6)=   0.000000

     crystal axes: (cart. coord. in units of alat)
               a(1) = (  -0.500000   0.000000   0.500000 )  
               a(2) = (   0.000000   0.500000   0.500000 )  
               a(3) = (  -0.500000   0.500000   0.000000 )  

     reciprocal axes: (cart. coord. in units 2 pi/alat)
               b(1) = ( -1.000000 -1.000000  1.000000 )  
               b(2) = (  1.000000  1.000000  1.000000 )  
               b(3) = ( -1.000000  1.000000 -1.000000 )  


     PseudoPot. # 1 for Ag read from file:
     /home/lorenzo/pseudos/Ag/Ag.pbesol-n-rrkjus_psl.1.0.0.UPF
     MD5 check sum: 3b43e8aa747a56f565f44d11355b8b45
     Pseudo is Ultrasoft + core correction, Zval = 11.0
     Generated using "atomic" code by A. Dal Corso v.6.2.2
     Using radial grid of 1237 points,  6 beta functions with: 
                l(1) =   0
                l(2) =   0
                l(3) =   1
                l(4) =   1
                l(5) =   2
                l(6) =   2
     Q(r) pseudized with 0 coefficients 


     atomic species   valence    mass     pseudopotential
        Ag            11.00   107.86820     Ag( 1.00)

     48 Sym. Ops., with inversion, found



   Cartesian axes

     site n.     atom                  positions (alat units)
         1           Ag  tau(   1) = (   0.0000000   0.0000000   0.0000000  )

     number of k points=    20  gaussian smearing, width (Ry)=  0.0100
                       cart. coord. in units 2pi/alat
        k(    1) = (   0.0000000   0.0000000   0.0000000), wk =   0.0058309
        k(    2) = (  -0.1428571   0.1428571  -0.1428571), wk =   0.0466472
        k(    3) = (  -0.2857143   0.2857143  -0.2857143), wk =   0.0466472
        k(    4) = (  -0.4285714   0.4285714  -0.4285714), wk =   0.0466472
        k(    5) = (   0.0000000   0.2857143   0.0000000), wk =   0.0349854
        k(    6) = (  -0.1428571   0.4285714  -0.1428571), wk =   0.1399417
        k(    7) = (  -0.2857143   0.5714286  -0.2857143), wk =   0.1399417
        k(    8) = (   0.5714286  -0.2857143   0.5714286), wk =   0.1399417
        k(    9) = (   0.4285714  -0.1428571   0.4285714), wk =   0.1399417
        k(   10) = (   0.2857143  -0.0000000   0.2857143), wk =   0.0699708
        k(   11) = (   0.0000000   0.5714286   0.0000000), wk =   0.0349854
        k(   12) = (  -0.1428571   0.7142857  -0.1428571), wk =   0.1399417
        k(   13) = (   0.7142857  -0.1428571   0.7142857), wk =   0.1399417
        k(   14) = (   0.5714286   0.0000000   0.5714286), wk =   0.0699708
        k(   15) = (   0.0000000   0.8571429   0.0000000), wk =   0.0349854
        k(   16) = (   0.8571429  -0.0000000   0.8571429), wk =   0.0699708
        k(   17) = (  -0.2857143   0.5714286   0.0000000), wk =   0.1399417
        k(   18) = (   0.5714286  -0.2857143   0.8571429), wk =   0.2798834
        k(   19) = (   0.7142857  -0.1428571   1.0000000), wk =   0.1399417
        k(   20) = (   0.5714286   0.0000000   0.8571429), wk =   0.1399417

     Dense  grid:     9185 G-vectors     FFT dimensions: (  30,  30,  30)

     Estimated max dynamical RAM per process >       9.21 MB

     Estimated total dynamical RAM >      46.06 MB

     Initial potential from superposition of free atoms

     starting charge   10.99964, renormalised to   11.00000
     Starting wfcs are    9 randomized atomic wfcs +    1 random wfcs

     total cpu time spent up to now is        1.0 secs

     Self-consistent Calculation

     iteration #  1     ecut=    70.00 Ry     beta= 0.70
     Davidson diagonalization with overlap
     ethr =  1.00E-02,  avg # of iterations =  4.5

     Threshold (ethr) on eigenvalues was too large:
     Diagonalizing with lowered threshold

     Davidson diagonalization with overlap
     ethr =  4.17E-05,  avg # of iterations =  2.6

     total cpu time spent up to now is        1.6 secs

     total energy              =     -84.18382422 Ry
     Harris-Foulkes estimate   =     -84.18703496 Ry
     estimated scf accuracy    <       0.00497320 Ry

     iteration #  2     ecut=    70.00 Ry     beta= 0.70
     Davidson diagonalization with overlap
     ethr =  4.52E-05,  avg # of iterations =  2.0

     total cpu time spent up to now is        1.9 secs

     total energy              =     -84.18498170 Ry
     Harris-Foulkes estimate   =     -84.18683125 Ry
     estimated scf accuracy    <       0.00343772 Ry

     iteration #  3     ecut=    70.00 Ry     beta= 0.70
     Davidson diagonalization with overlap
     ethr =  3.13E-05,  avg # of iterations =  2.0

     total cpu time spent up to now is        2.1 secs

     total energy              =     -84.18574306 Ry
     Harris-Foulkes estimate   =     -84.18574527 Ry
     estimated scf accuracy    <       0.00002579 Ry

     iteration #  4     ecut=    70.00 Ry     beta= 0.70
     Davidson diagonalization with overlap
     ethr =  2.34E-07,  avg # of iterations =  2.6

     total cpu time spent up to now is        2.4 secs

     total energy              =     -84.18575118 Ry
     Harris-Foulkes estimate   =     -84.18575114 Ry
     estimated scf accuracy    <       0.00000041 Ry

     iteration #  5     ecut=    70.00 Ry     beta= 0.70
     Davidson diagonalization with overlap
     ethr =  3.72E-09,  avg # of iterations =  2.1

     total cpu time spent up to now is        2.6 secs

     total energy              =     -84.18575128 Ry
     Harris-Foulkes estimate   =     -84.18575130 Ry
     estimated scf accuracy    <       0.00000004 Ry

     iteration #  6     ecut=    70.00 Ry     beta= 0.70
     Davidson diagonalization with overlap
     ethr =  3.57E-10,  avg # of iterations =  2.1

     total cpu time spent up to now is        2.9 secs

     End of self-consistent calculation

          k = 0.0000 0.0000 0.0000 (  1139 PWs)   bands (ev):

     4.8085   7.9245   7.9245   7.9245   8.9735   8.9735  29.5473  32.8315
    32.8315  37.1528

          k =-0.1429 0.1429-0.1429 (  1149 PWs)   bands (ev):

     5.4141   7.8197   8.0714   8.0714   8.9387   8.9387  27.9974  30.3630
    32.7622  32.7622

          k =-0.2857 0.2857-0.2857 (  1146 PWs)   bands (ev):

     6.3524   8.0965   8.0965   8.5185   9.2217   9.2217  22.4406  29.6926
    32.1151  32.1151

          k =-0.4286 0.4286-0.4286 (  1149 PWs)   bands (ev):

     6.3149   7.9297   7.9297   9.7001   9.7001  11.2809  17.4380  28.7357
    31.0244  31.0244

          k = 0.0000 0.2857 0.0000 (  1154 PWs)   bands (ev):

     5.6187   7.6097   8.2328   8.2328   8.6939   9.1132  29.5760  30.3881
    30.3881  30.6536

          k =-0.1429 0.4286-0.1429 (  1136 PWs)   bands (ev):

     6.5759   7.4866   8.1589   8.4251   9.2623   9.3649  24.7017  28.8606
    29.4066  31.3334

          k =-0.2857 0.5714-0.2857 (  1133 PWs)   bands (ev):

     6.6558   7.7879   8.2879   8.4187   9.7610  11.5230  19.2706  27.8381
    28.3777  29.7723

          k = 0.5714-0.2857 0.5714 (  1138 PWs)   bands (ev):

     6.6266   7.7091   8.1796   8.9083   9.6762  13.4889  16.5917  26.3697
    29.4359  29.4424

          k = 0.4286-0.1429 0.4286 (  1141 PWs)   bands (ev):

     6.8023   7.8597   8.2827   8.3351   9.0721  10.8859  21.0524  26.0065
    30.5274  32.1570

          k = 0.2857-0.0000 0.2857 (  1141 PWs)   bands (ev):

     6.2803   7.5929   8.1999   8.3287   8.6633   9.4376  26.4992  26.7796
    32.7635  33.1354

          k = 0.0000 0.5714 0.0000 (  1130 PWs)   bands (ev):

     6.7201   6.9541   9.0391   9.0391   9.4009   9.4366  26.4594  26.4594
    27.0984  29.6599

          k =-0.1429 0.7143-0.1429 (  1133 PWs)   bands (ev):

     6.6841   6.9318   8.8117   9.0831   9.8011  12.0001  21.9632  24.1438
    25.4839  29.6806

          k = 0.7143-0.1429 0.7143 (  1139 PWs)   bands (ev):

     6.8152   7.3468   8.3754   8.8880   9.7317  15.7590  17.3495  21.9282
    26.3630  29.5398

          k = 0.5714 0.0000 0.5714 (  1135 PWs)   bands (ev):

     7.2187   7.7514   7.8442   8.6915   9.2175  13.5746  20.3974  21.0650
    28.8905  29.8352

          k = 0.0000 0.8571 0.0000 (  1138 PWs)   bands (ev):

     6.3367   6.4716   9.7065   9.8533   9.8533  13.0283  20.8994  23.8261
    23.8261  29.7383

          k = 0.8571-0.0000 0.8571 (  1136 PWs)   bands (ev):

     6.4354   6.6398   9.3745   9.5340   9.8954  15.2786  19.4232  20.9356
    24.1669  29.7091

          k =-0.2857 0.5714 0.0000 (  1137 PWs)   bands (ev):

     7.2130   7.2249   7.9191   9.0325   9.0946  11.0612  23.5287  23.7383
    27.6234  32.9174

          k = 0.5714-0.2857 0.8571 (  1134 PWs)   bands (ev):

     7.0998   7.4295   8.0153   8.7700   9.6309  14.0494  18.4996  23.7429
    25.2558  32.3400

          k = 0.7143-0.1429 1.0000 (  1142 PWs)   bands (ev):

     6.7550   6.8632   8.6156   9.3806   9.8496  14.6864  21.0556  21.5825
    22.1369  32.4060

          k = 0.5714 0.0000 0.8571 (  1137 PWs)   bands (ev):

     7.0044   7.3709   7.9820   9.0036   9.8433  17.4452  18.0812  20.0290
    23.0502  33.0269

     the Fermi energy is    13.0081 ev

!    total energy              =     -84.18575129 Ry
     Harris-Foulkes estimate   =     -84.18575129 Ry
     estimated scf accuracy    <          6.1E-10 Ry

     The total energy is the sum of the following terms:

     one-electron contribution =      -4.74505496 Ry
     hartree contribution      =      14.56147916 Ry
     xc contribution           =     -22.14089878 Ry
     ewald contribution        =     -71.86118018 Ry
     smearing contrib. (-TS)   =      -0.00009653 Ry

     convergence has been achieved in   6 iterations

     Forces acting on atoms (cartesian axes, Ry/au):

     atom    1 type  1   force =     0.00000000    0.00000000    0.00000000

     Total force =     0.000000     Total SCF correction =     0.000000


     Computing stress (Cartesian axis) and pressure

          total   stress  (Ry/bohr**3)                   (kbar)     P=  -24.05
  -0.00016348  -0.00000000  -0.00000000        -24.05     -0.00     -0.00
  -0.00000000  -0.00016348   0.00000000         -0.00    -24.05      0.00
  -0.00000000   0.00000000  -0.00016348         -0.00      0.00    -24.05


     Writing output data file Ag.save/

     init_run     :      0.26s CPU      0.27s WALL (       1 calls)
     electrons    :      1.76s CPU      1.82s WALL (       1 calls)
     forces       :      0.04s CPU      0.04s WALL (       1 calls)
     stress       :      0.13s CPU      0.13s WALL (       1 calls)

     Called by init_run:
     wfcinit      :      0.07s CPU      0.07s WALL (       1 calls)
     potinit      :      0.01s CPU      0.01s WALL (       1 calls)
     hinit0       :      0.17s CPU      0.17s WALL (       1 calls)

     Called by electrons:
     c_bands      :      1.36s CPU      1.41s WALL (       7 calls)
     sum_band     :      0.31s CPU      0.32s WALL (       7 calls)
     v_of_rho     :      0.03s CPU      0.04s WALL (       7 calls)
     newd         :      0.06s CPU      0.06s WALL (       7 calls)
     mix_rho      :      0.00s CPU      0.00s WALL (       7 calls)

     Called by c_bands:
     init_us_2    :      0.05s CPU      0.05s WALL (     340 calls)
     cegterg      :      1.30s CPU      1.34s WALL (     140 calls)

     Called by sum_band:
     sum_band:bec :      0.00s CPU      0.00s WALL (     140 calls)
     addusdens    :      0.06s CPU      0.06s WALL (       7 calls)

     Called by *egterg:
     h_psi        :      1.05s CPU      1.09s WALL (     521 calls)
     s_psi        :      0.03s CPU      0.03s WALL (     521 calls)
     g_psi        :      0.00s CPU      0.00s WALL (     361 calls)
     cdiaghg      :      0.11s CPU      0.11s WALL (     481 calls)

     Called by h_psi:
     h_psi:pot    :      1.05s CPU      1.09s WALL (     521 calls)
     h_psi:calbec :      0.05s CPU      0.05s WALL (     521 calls)
     vloc_psi     :      0.96s CPU      0.99s WALL (     521 calls)
     add_vuspsi   :      0.04s CPU      0.04s WALL (     521 calls)

     General routines
     calbec       :      0.08s CPU      0.08s WALL (     761 calls)
     fft          :      0.02s CPU      0.02s WALL (     104 calls)
     ffts         :      0.00s CPU      0.00s WALL (       7 calls)
     fftw         :      1.07s CPU      1.11s WALL (    8672 calls)

     Parallel routines
     fft_scatt_xy :      0.09s CPU      0.09s WALL (    8783 calls)
     fft_scatt_yz :      0.29s CPU      0.30s WALL (    8783 calls)

     PWSCF        :     2.98s CPU         3.09s WALL


   This run was terminated on:   0:32:24  27Mar2024            

=------------------------------------------------------------------------------=
   JOB DONE.
=------------------------------------------------------------------------------=
