
     Program PWSCF v.6.3MaX starts on 27Mar2024 at  0:40:49 

     This program is part of the open-source Quantum ESPRESSO suite
     for quantum simulation of materials; please cite
         "P. Giannozzi et al., J. Phys.:Condens. Matter 21 395502 (2009);
         "P. Giannozzi et al., J. Phys.:Condens. Matter 29 465901 (2017);
          URL http://www.quantum-espresso.org", 
     in publications or presentations arising from this work. More details at
     http://www.quantum-espresso.org/quote

     Parallel version (MPI), running on     5 processors

     MPI processes distributed on     1 nodes
     R & G space division:  proc/nbgrp/npool/nimage =       5
     Waiting for input...
     Reading input from standard input

     Current dimensions of program PWSCF are:
     Max number of different atomic species (ntypx) = 10
     Max number of k-points (npk) =  40000
     Max angular momentum in pseudopotentials (lmaxx) =  3
               file Ag.pbe-n-kjpaw_psl.1.0.0.UPF: wavefunction(s)  5S 5P renormalized

     Subspace diagonalization in iterative solution of the eigenvalue problem:
     a serial algorithm will be used


     Parallelization info
     --------------------
     sticks:   dense  smooth     PW     G-vecs:    dense   smooth      PW
     Min         137     137     42                 2410     2410     416
     Max         139     139     43                 2411     2411     418
     Sum         691     691    211                12051    12051    2085



     bravais-lattice index     =            2
     lattice parameter (alat)  =       7.7200  a.u.
     unit-cell volume          =     115.0249 (a.u.)^3
     number of atoms/cell      =            1
     number of atomic types    =            1
     number of electrons       =        11.00
     number of Kohn-Sham states=           10
     kinetic-energy cutoff     =      85.0000  Ry
     charge density cutoff     =     340.0000  Ry
     convergence threshold     =      1.0E-08
     mixing beta               =       0.7000
     number of iterations used =            8  plain     mixing
     Exchange-correlation      = SLA PW PBX PBC ( 1  4  3  4 0 0)

     celldm(1)=   7.720000  celldm(2)=   0.000000  celldm(3)=   0.000000
     celldm(4)=   0.000000  celldm(5)=   0.000000  celldm(6)=   0.000000

     crystal axes: (cart. coord. in units of alat)
               a(1) = (  -0.500000   0.000000   0.500000 )  
               a(2) = (   0.000000   0.500000   0.500000 )  
               a(3) = (  -0.500000   0.500000   0.000000 )  

     reciprocal axes: (cart. coord. in units 2 pi/alat)
               b(1) = ( -1.000000 -1.000000  1.000000 )  
               b(2) = (  1.000000  1.000000  1.000000 )  
               b(3) = ( -1.000000  1.000000 -1.000000 )  


     PseudoPot. # 1 for Ag read from file:
     /home/lorenzo/pseudos/Ag/Ag.pbe-n-kjpaw_psl.1.0.0.UPF
     MD5 check sum: 51099775af2a3182a6a1caffb86952a3
     Pseudo is Projector augmented-wave + core cor, Zval = 11.0
     Generated using "atomic" code by A. Dal Corso v.6.2.2
     Shape of augmentation charge: PSQ
     Using radial grid of 1237 points,  6 beta functions with: 
                l(1) =   0
                l(2) =   0
                l(3) =   1
                l(4) =   1
                l(5) =   2
                l(6) =   2
     Q(r) pseudized with 0 coefficients 


     atomic species   valence    mass     pseudopotential
        Ag            11.00   107.86820     Ag( 1.00)

     48 Sym. Ops., with inversion, found



   Cartesian axes

     site n.     atom                  positions (alat units)
         1           Ag  tau(   1) = (   0.0000000   0.0000000   0.0000000  )

     number of k points=    16  gaussian smearing, width (Ry)=  0.0100
                       cart. coord. in units 2pi/alat
        k(    1) = (   0.0000000   0.0000000   0.0000000), wk =   0.0092593
        k(    2) = (  -0.1666667   0.1666667  -0.1666667), wk =   0.0740741
        k(    3) = (  -0.3333333   0.3333333  -0.3333333), wk =   0.0740741
        k(    4) = (   0.5000000  -0.5000000   0.5000000), wk =   0.0370370
        k(    5) = (   0.0000000   0.3333333   0.0000000), wk =   0.0555556
        k(    6) = (  -0.1666667   0.5000000  -0.1666667), wk =   0.2222222
        k(    7) = (   0.6666667  -0.3333333   0.6666667), wk =   0.2222222
        k(    8) = (   0.5000000  -0.1666667   0.5000000), wk =   0.2222222
        k(    9) = (   0.3333333   0.0000000   0.3333333), wk =   0.1111111
        k(   10) = (   0.0000000   0.6666667   0.0000000), wk =   0.0555556
        k(   11) = (   0.8333333  -0.1666667   0.8333333), wk =   0.2222222
        k(   12) = (   0.6666667  -0.0000000   0.6666667), wk =   0.1111111
        k(   13) = (   0.0000000  -1.0000000   0.0000000), wk =   0.0277778
        k(   14) = (   0.6666667  -0.3333333   1.0000000), wk =   0.2222222
        k(   15) = (   0.5000000  -0.1666667   0.8333333), wk =   0.2222222
        k(   16) = (  -0.3333333  -1.0000000   0.0000000), wk =   0.1111111

     Dense  grid:    12051 G-vectors     FFT dimensions: (  36,  36,  36)

     Estimated max dynamical RAM per process >      11.80 MB

     Estimated total dynamical RAM >      58.99 MB

     Initial potential from superposition of free atoms

     starting charge   10.99960, renormalised to   11.00000
     Starting wfcs are    9 randomized atomic wfcs +    1 random wfcs
     Checking if some PAW data can be deallocated... 

     total cpu time spent up to now is        1.3 secs

     Self-consistent Calculation

     iteration #  1     ecut=    85.00 Ry     beta= 0.70
     Davidson diagonalization with overlap
     ethr =  1.00E-02,  avg # of iterations =  5.3

     Threshold (ethr) on eigenvalues was too large:
     Diagonalizing with lowered threshold

     Davidson diagonalization with overlap
     ethr =  2.65E-05,  avg # of iterations =  2.6

     total cpu time spent up to now is        2.1 secs

     total energy              =    -355.30033258 Ry
     Harris-Foulkes estimate   =    -355.30216212 Ry
     estimated scf accuracy    <       0.00322037 Ry

     iteration #  2     ecut=    85.00 Ry     beta= 0.70
     Davidson diagonalization with overlap
     ethr =  2.93E-05,  avg # of iterations =  2.0

     total cpu time spent up to now is        2.5 secs

     total energy              =    -355.30124852 Ry
     Harris-Foulkes estimate   =    -355.30234964 Ry
     estimated scf accuracy    <       0.00236718 Ry

     iteration #  3     ecut=    85.00 Ry     beta= 0.70
     Davidson diagonalization with overlap
     ethr =  2.15E-05,  avg # of iterations =  1.6

     total cpu time spent up to now is        2.9 secs

     total energy              =    -355.30170948 Ry
     Harris-Foulkes estimate   =    -355.30168851 Ry
     estimated scf accuracy    <       0.00001442 Ry

     iteration #  4     ecut=    85.00 Ry     beta= 0.70
     Davidson diagonalization with overlap
     ethr =  1.31E-07,  avg # of iterations =  2.8

     total cpu time spent up to now is        3.3 secs

     total energy              =    -355.30171531 Ry
     Harris-Foulkes estimate   =    -355.30171509 Ry
     estimated scf accuracy    <       0.00000031 Ry

     iteration #  5     ecut=    85.00 Ry     beta= 0.70
     Davidson diagonalization with overlap
     ethr =  2.81E-09,  avg # of iterations =  2.1

     total cpu time spent up to now is        3.8 secs

     End of self-consistent calculation

          k = 0.0000 0.0000 0.0000 (  1471 PWs)   bands (ev):

     5.0646   8.0799   8.0799   8.0799   9.1199   9.1199  29.8004  33.0871
    33.0871  33.0871

          k =-0.1667 0.1667-0.1667 (  1513 PWs)   bands (ev):

     5.8605   7.9760   8.2570   8.2570   9.0940   9.0940  27.3595  30.5543
    32.9641  32.9641

          k =-0.3333 0.3333-0.3333 (  1504 PWs)   bands (ev):

     6.5864   8.1921   8.1921   9.5274   9.5440   9.5440  20.8583  29.5620
    31.9798  31.9798

          k = 0.5000-0.5000 0.5000 (  1502 PWs)   bands (ev):

     6.4722   8.0573   8.0573   9.9187   9.9187  12.4462  16.4712  28.8395
    31.0982  31.0982

          k = 0.0000 0.3333 0.0000 (  1511 PWs)   bands (ev):

     6.1303   7.6696   8.4925   8.4925   8.7909   9.3044  29.8256  29.9726
    29.9726  30.4860

          k =-0.1667 0.5000-0.1667 (  1534 PWs)   bands (ev):

     6.9690   7.6814   8.2702   8.6588   9.6666  10.0580  23.4897  28.3078
    28.9377  30.5667

          k = 0.6667-0.3333 0.6667 (  1517 PWs)   bands (ev):

     6.8736   7.8221   8.4718   8.7392   9.9463  13.4514  17.5919  26.5666
    28.4208  29.6675

          k = 0.5000-0.1667 0.5000 (  1516 PWs)   bands (ev):

     7.0279   7.9050   8.4553   8.6833   9.4432  12.3461  19.4391  25.3715
    30.1871  30.8229

          k = 0.3333 0.0000 0.3333 (  1518 PWs)   bands (ev):

     6.9015   7.6994   8.3265   8.6113   8.7570   9.9539  25.6051  25.9452
    32.5244  33.6397

          k = 0.0000 0.6667 0.0000 (  1527 PWs)   bands (ev):

     6.8154   6.9195   9.4932   9.4932   9.6874  10.6729  25.1774  25.6119
    25.6119  29.9118

          k = 0.8333-0.1667 0.8333 (  1533 PWs)   bands (ev):

     6.7514   7.0044   9.1651   9.4106  10.0138  14.1539  20.7515  22.0052
    25.1188  29.8820

          k = 0.6667-0.0000 0.6667 (  1516 PWs)   bands (ev):

     7.1130   7.6931   8.3108   9.0772   9.6411  16.0279  18.6982  20.4272
    27.2111  29.8443

          k = 0.0000-1.0000 0.0000 (  1524 PWs)   bands (ev):

     6.4299   6.5738   9.8865  10.1273  10.1273  14.4741  19.6004  23.7141
    23.7141  29.9650

          k = 0.6667-0.3333 1.0000 (  1528 PWs)   bands (ev):

     7.3464   7.4221   8.0752   9.3176   9.4816  12.6716  22.5065  22.5323
    25.9131  33.7351

          k = 0.5000-0.1667 0.8333 (  1536 PWs)   bands (ev):

     7.4073   7.4612   8.1137   8.9973   9.8816  16.5378  17.2805  23.1343
    23.7501  33.2465

          k =-0.3333-1.0000 0.0000 (  1536 PWs)   bands (ev):

     6.9470   7.1272   8.6881   9.3699  10.1281  16.8490  19.7844  20.9286
    21.6456  33.3141

     the Fermi energy is    12.7024 ev

!    total energy              =    -355.30171534 Ry
     Harris-Foulkes estimate   =    -355.30171534 Ry
     estimated scf accuracy    <          6.6E-09 Ry

     total all-electron energy =    -10632.267769 Ry

     The total energy is the sum of the following terms:

     one-electron contribution =       1.56494300 Ry
     hartree contribution      =      14.66723862 Ry
     xc contribution           =     -22.35429604 Ry
     ewald contribution        =     -71.86118018 Ry
     one-center paw contrib.   =    -277.31782159 Ry
     smearing contrib. (-TS)   =      -0.00059914 Ry

     convergence has been achieved in   5 iterations

     Forces acting on atoms (cartesian axes, Ry/au):

     atom    1 type  1   force =     0.00000000    0.00000000    0.00000000

     Total force =     0.000000     Total SCF correction =     0.000000


     Computing stress (Cartesian axis) and pressure

          total   stress  (Ry/bohr**3)                   (kbar)     P=   57.68
   0.00039211   0.00000000  -0.00000000         57.68      0.00     -0.00
   0.00000000   0.00039211   0.00000000          0.00     57.68      0.00
   0.00000000   0.00000000   0.00039211          0.00      0.00     57.68


     Writing output data file Ag.save/

     init_run     :      0.42s CPU      0.45s WALL (       1 calls)
     electrons    :      2.37s CPU      2.50s WALL (       1 calls)
     forces       :      0.06s CPU      0.06s WALL (       1 calls)
     stress       :      0.18s CPU      0.18s WALL (       1 calls)

     Called by init_run:
     wfcinit      :      0.08s CPU      0.08s WALL (       1 calls)
     potinit      :      0.11s CPU      0.13s WALL (       1 calls)
     hinit0       :      0.20s CPU      0.20s WALL (       1 calls)

     Called by electrons:
     c_bands      :      1.41s CPU      1.50s WALL (       6 calls)
     sum_band     :      0.34s CPU      0.36s WALL (       6 calls)
     v_of_rho     :      0.06s CPU      0.06s WALL (       6 calls)
     newd         :      0.08s CPU      0.08s WALL (       6 calls)
     PAW_pot      :      0.58s CPU      0.62s WALL (       6 calls)
     mix_rho      :      0.00s CPU      0.00s WALL (       6 calls)

     Called by c_bands:
     init_us_2    :      0.05s CPU      0.05s WALL (     240 calls)
     cegterg      :      1.35s CPU      1.44s WALL (      96 calls)

     Called by sum_band:
     sum_band:bec :      0.00s CPU      0.00s WALL (      96 calls)
     addusdens    :      0.07s CPU      0.07s WALL (       6 calls)

     Called by *egterg:
     h_psi        :      1.16s CPU      1.24s WALL (     374 calls)
     s_psi        :      0.03s CPU      0.03s WALL (     374 calls)
     g_psi        :      0.00s CPU      0.00s WALL (     262 calls)
     cdiaghg      :      0.08s CPU      0.08s WALL (     342 calls)

     Called by h_psi:
     h_psi:pot    :      1.15s CPU      1.23s WALL (     374 calls)
     h_psi:calbec :      0.05s CPU      0.05s WALL (     374 calls)
     vloc_psi     :      1.07s CPU      1.14s WALL (     374 calls)
     add_vuspsi   :      0.03s CPU      0.03s WALL (     374 calls)

     General routines
     calbec       :      0.09s CPU      0.09s WALL (     550 calls)
     fft          :      0.04s CPU      0.04s WALL (      93 calls)
     ffts         :      0.00s CPU      0.00s WALL (       6 calls)
     fftw         :      1.20s CPU      1.28s WALL (    6010 calls)

     Parallel routines
     fft_scatt_xy :      0.10s CPU      0.10s WALL (    6109 calls)
     fft_scatt_yz :      0.34s CPU      0.36s WALL (    6109 calls)

     PWSCF        :     3.86s CPU         4.07s WALL


   This run was terminated on:   0:40:53  27Mar2024            

=------------------------------------------------------------------------------=
   JOB DONE.
=------------------------------------------------------------------------------=
