
     Program PWSCF v.6.3MaX starts on 27Mar2024 at  0: 7: 1 

     This program is part of the open-source Quantum ESPRESSO suite
     for quantum simulation of materials; please cite
         "P. Giannozzi et al., J. Phys.:Condens. Matter 21 395502 (2009);
         "P. Giannozzi et al., J. Phys.:Condens. Matter 29 465901 (2017);
          URL http://www.quantum-espresso.org", 
     in publications or presentations arising from this work. More details at
     http://www.quantum-espresso.org/quote

     Parallel version (MPI), running on     5 processors

     MPI processes distributed on     1 nodes
     R & G space division:  proc/nbgrp/npool/nimage =       5
     Waiting for input...
     Reading input from standard input

     Current dimensions of program PWSCF are:
     Max number of different atomic species (ntypx) = 10
     Max number of k-points (npk) =  40000
     Max angular momentum in pseudopotentials (lmaxx) =  3

     Subspace diagonalization in iterative solution of the eigenvalue problem:
     a serial algorithm will be used


     Parallelization info
     --------------------
     sticks:   dense  smooth     PW     G-vecs:    dense   smooth      PW
     Min          24      24     11                  178      178      45
     Max          25      25     11                  181      181      46
     Sum         121     121     55                  893      893     229



     bravais-lattice index     =            2
     lattice parameter (alat)  =       7.7200  a.u.
     unit-cell volume          =     115.0249 (a.u.)^3
     number of atoms/cell      =            1
     number of atomic types    =            1
     number of electrons       =        11.00
     number of Kohn-Sham states=           10
     kinetic-energy cutoff     =      15.0000  Ry
     charge density cutoff     =      60.0000  Ry
     convergence threshold     =      1.0E-08
     mixing beta               =       0.7000
     number of iterations used =            8  plain     mixing
     Exchange-correlation      = PBE ( 1  4  3  4 0 0)

     celldm(1)=   7.720000  celldm(2)=   0.000000  celldm(3)=   0.000000
     celldm(4)=   0.000000  celldm(5)=   0.000000  celldm(6)=   0.000000

     crystal axes: (cart. coord. in units of alat)
               a(1) = (  -0.500000   0.000000   0.500000 )  
               a(2) = (   0.000000   0.500000   0.500000 )  
               a(3) = (  -0.500000   0.500000   0.000000 )  

     reciprocal axes: (cart. coord. in units 2 pi/alat)
               b(1) = ( -1.000000 -1.000000  1.000000 )  
               b(2) = (  1.000000  1.000000  1.000000 )  
               b(3) = ( -1.000000  1.000000 -1.000000 )  


     PseudoPot. # 1 for Ag read from file:
     /home/lorenzo/pseudos/Ag/Ag.pbe-n-rrkjus_psl.1.0.0.UPF
     MD5 check sum: d841cbfac2b0861aec33b46768a516bf
     Pseudo is Ultrasoft + core correction, Zval = 11.0
     Generated using "atomic" code by A. Dal Corso v.6.2.2
     Using radial grid of 1237 points,  6 beta functions with: 
                l(1) =   0
                l(2) =   0
                l(3) =   1
                l(4) =   1
                l(5) =   2
                l(6) =   2
     Q(r) pseudized with 0 coefficients 


     atomic species   valence    mass     pseudopotential
        Ag            11.00   107.86820     Ag( 1.00)

     48 Sym. Ops., with inversion, found



   Cartesian axes

     site n.     atom                  positions (alat units)
         1           Ag  tau(   1) = (   0.0000000   0.0000000   0.0000000  )

     number of k points=    10  gaussian smearing, width (Ry)=  0.0100
                       cart. coord. in units 2pi/alat
        k(    1) = (   0.0000000   0.0000000   0.0000000), wk =   0.0160000
        k(    2) = (  -0.2000000   0.2000000  -0.2000000), wk =   0.1280000
        k(    3) = (  -0.4000000   0.4000000  -0.4000000), wk =   0.1280000
        k(    4) = (   0.0000000   0.4000000   0.0000000), wk =   0.0960000
        k(    5) = (  -0.2000000   0.6000000  -0.2000000), wk =   0.3840000
        k(    6) = (   0.6000000  -0.2000000   0.6000000), wk =   0.3840000
        k(    7) = (   0.4000000   0.0000000   0.4000000), wk =   0.1920000
        k(    8) = (   0.0000000   0.8000000   0.0000000), wk =   0.0960000
        k(    9) = (   0.8000000   0.0000000   0.8000000), wk =   0.1920000
        k(   10) = (   0.6000000  -0.2000000   1.0000000), wk =   0.3840000

     Dense  grid:      893 G-vectors     FFT dimensions: (  15,  15,  15)

     Estimated max dynamical RAM per process >       1.48 MB

     Estimated total dynamical RAM >       7.42 MB

     Check: negative/imaginary core charge=   -0.000001    0.000000

     Initial potential from superposition of free atoms

     starting charge   10.99960, renormalised to   11.00000
     Starting wfcs are    9 randomized atomic wfcs +    1 random wfcs

     total cpu time spent up to now is        0.8 secs

     Self-consistent Calculation

     iteration #  1     ecut=    15.00 Ry     beta= 0.70
     Davidson diagonalization with overlap
     ethr =  1.00E-02,  avg # of iterations =  4.8

     total cpu time spent up to now is        0.9 secs

     total energy              =     -77.84144920 Ry
     Harris-Foulkes estimate   =     -80.42823554 Ry
     estimated scf accuracy    <       3.33101295 Ry

     iteration #  2     ecut=    15.00 Ry     beta= 0.70
     Davidson diagonalization with overlap
     ethr =  1.00E-02,  avg # of iterations =  2.6

     total cpu time spent up to now is        0.9 secs

     total energy              =     -78.95970908 Ry
     Harris-Foulkes estimate   =     -79.34122394 Ry
     estimated scf accuracy    <       0.74048869 Ry

     iteration #  3     ecut=    15.00 Ry     beta= 0.70
     Davidson diagonalization with overlap
     ethr =  6.73E-03,  avg # of iterations =  1.2

     total cpu time spent up to now is        1.0 secs

     total energy              =     -79.04613068 Ry
     Harris-Foulkes estimate   =     -79.05495211 Ry
     estimated scf accuracy    <       0.02595645 Ry

     iteration #  4     ecut=    15.00 Ry     beta= 0.70
     Davidson diagonalization with overlap
     ethr =  2.36E-04,  avg # of iterations =  2.8

     total cpu time spent up to now is        1.0 secs

     total energy              =     -79.05254795 Ry
     Harris-Foulkes estimate   =     -79.05411556 Ry
     estimated scf accuracy    <       0.00383018 Ry

     iteration #  5     ecut=    15.00 Ry     beta= 0.70
     Davidson diagonalization with overlap
     ethr =  3.48E-05,  avg # of iterations =  1.0

     total cpu time spent up to now is        1.0 secs

     total energy              =     -79.05278455 Ry
     Harris-Foulkes estimate   =     -79.05289349 Ry
     estimated scf accuracy    <       0.00029751 Ry

     iteration #  6     ecut=    15.00 Ry     beta= 0.70
     Davidson diagonalization with overlap
     ethr =  2.70E-06,  avg # of iterations =  2.2

     total cpu time spent up to now is        1.1 secs

     total energy              =     -79.05281887 Ry
     Harris-Foulkes estimate   =     -79.05282684 Ry
     estimated scf accuracy    <       0.00001600 Ry

     iteration #  7     ecut=    15.00 Ry     beta= 0.70
     Davidson diagonalization with overlap
     ethr =  1.45E-07,  avg # of iterations =  1.9

     total cpu time spent up to now is        1.1 secs

     total energy              =     -79.05282212 Ry
     Harris-Foulkes estimate   =     -79.05282215 Ry
     estimated scf accuracy    <       0.00000006 Ry

     iteration #  8     ecut=    15.00 Ry     beta= 0.70
     Davidson diagonalization with overlap
     ethr =  5.78E-10,  avg # of iterations =  2.9

     total cpu time spent up to now is        1.1 secs

     End of self-consistent calculation

          k = 0.0000 0.0000 0.0000 (   113 PWs)   bands (ev):

     4.7129   8.5722   8.5722   8.5722   9.4892   9.4892  31.0893  32.2994
    32.2994  32.2994

          k =-0.2000 0.2000-0.2000 (   122 PWs)   bands (ev):

     5.6623   7.1611   7.4929   7.4929   8.7376   8.7376  25.7055  31.7829
    31.8244  31.8244

          k =-0.4000 0.4000-0.4000 (   114 PWs)   bands (ev):

     6.5550   7.8647   7.8647  10.7391  10.7391  10.7644  17.9426  29.9318
    29.9318  30.3757

          k = 0.0000 0.4000 0.0000 (   121 PWs)   bands (ev):

     5.9882   6.1992   8.0200   8.0200   8.7070   9.5824  28.3557  28.3557
    29.7695  31.5576

          k =-0.2000 0.6000-0.2000 (   113 PWs)   bands (ev):

     6.6641   7.7427   8.3330   9.0790  11.4135  11.6735  20.9122  26.6844
    26.9236  30.9324

          k = 0.6000-0.2000 0.6000 (   111 PWs)   bands (ev):

     7.3119   7.4744   9.0688   9.6551  11.0522  14.6694  16.8616  24.0207
    27.9819  30.9024

          k = 0.4000 0.0000 0.4000 (   117 PWs)   bands (ev):

     6.1386   7.2198   8.0829   8.6474   9.7487  11.5565  23.2147  24.1403
    32.0262  32.2719

          k = 0.0000 0.8000 0.0000 (   112 PWs)   bands (ev):

     5.5494   6.4744  10.5534  11.6099  11.6099  12.0365  21.0836  23.7161
    23.7161  30.5614

          k = 0.8000 0.0000 0.8000 (   110 PWs)   bands (ev):

     5.6329   7.6971  10.4722  10.8423  11.0385  16.5491  17.5766  20.5046
    24.3376  31.0743

          k = 0.6000-0.2000 1.0000 (   111 PWs)   bands (ev):

     7.0847   7.4987   8.4648   9.9830  11.5501  15.1039  19.9193  20.5795
    23.6305  34.6557

     the Fermi energy is    12.0568 ev

!    total energy              =     -79.05282219 Ry
     Harris-Foulkes estimate   =     -79.05282219 Ry
     estimated scf accuracy    <          6.9E-09 Ry

     The total energy is the sum of the following terms:

     one-electron contribution =       4.18981236 Ry
     hartree contribution      =       9.68875449 Ry
     xc contribution           =     -21.06994357 Ry
     ewald contribution        =     -71.86118021 Ry
     smearing contrib. (-TS)   =      -0.00026526 Ry

     convergence has been achieved in   8 iterations

     Forces acting on atoms (cartesian axes, Ry/au):

     atom    1 type  1   force =     0.00000000    0.00000000    0.00000000

     Total force =     0.000000     Total SCF correction =     0.000000


     Computing stress (Cartesian axis) and pressure

          total   stress  (Ry/bohr**3)                   (kbar)     P=********
  -0.09452436   0.00000000   0.00000000     -13905.01      0.00      0.00
   0.00000000  -0.09452436  -0.00000000          0.00 -13905.01     -0.00
   0.00000000  -0.00000000  -0.09452436          0.00     -0.00 -13905.01


     Writing output data file Ag.save/

     init_run     :      0.08s CPU      0.08s WALL (       1 calls)
     electrons    :      0.23s CPU      0.28s WALL (       1 calls)
     forces       :      0.01s CPU      0.01s WALL (       1 calls)
     stress       :      0.02s CPU      0.02s WALL (       1 calls)

     Called by init_run:
     wfcinit      :      0.01s CPU      0.01s WALL (       1 calls)
     potinit      :      0.00s CPU      0.00s WALL (       1 calls)
     hinit0       :      0.07s CPU      0.07s WALL (       1 calls)

     Called by electrons:
     c_bands      :      0.18s CPU      0.22s WALL (       8 calls)
     sum_band     :      0.03s CPU      0.04s WALL (       8 calls)
     v_of_rho     :      0.01s CPU      0.01s WALL (       9 calls)
     newd         :      0.01s CPU      0.01s WALL (       9 calls)
     mix_rho      :      0.00s CPU      0.00s WALL (       8 calls)

     Called by c_bands:
     init_us_2    :      0.00s CPU      0.00s WALL (     190 calls)
     cegterg      :      0.18s CPU      0.21s WALL (      80 calls)

     Called by sum_band:
     sum_band:bec :      0.00s CPU      0.00s WALL (      80 calls)
     addusdens    :      0.01s CPU      0.01s WALL (       8 calls)

     Called by *egterg:
     h_psi        :      0.10s CPU      0.12s WALL (     284 calls)
     s_psi        :      0.00s CPU      0.00s WALL (     284 calls)
     g_psi        :      0.00s CPU      0.00s WALL (     194 calls)
     cdiaghg      :      0.05s CPU      0.06s WALL (     274 calls)

     Called by h_psi:
     h_psi:pot    :      0.10s CPU      0.12s WALL (     284 calls)
     h_psi:calbec :      0.01s CPU      0.01s WALL (     284 calls)
     vloc_psi     :      0.09s CPU      0.11s WALL (     284 calls)
     add_vuspsi   :      0.00s CPU      0.00s WALL (     284 calls)

     General routines
     calbec       :      0.01s CPU      0.01s WALL (     414 calls)
     fft          :      0.00s CPU      0.00s WALL (     125 calls)
     ffts         :      0.00s CPU      0.00s WALL (       8 calls)
     fftw         :      0.10s CPU      0.12s WALL (    5034 calls)

     Parallel routines
     fft_scatt_xy :      0.01s CPU      0.01s WALL (    5167 calls)
     fft_scatt_yz :      0.04s CPU      0.04s WALL (    5167 calls)

     PWSCF        :     1.11s CPU         1.21s WALL


   This run was terminated on:   0: 7: 2  27Mar2024            

=------------------------------------------------------------------------------=
   JOB DONE.
=------------------------------------------------------------------------------=
