
     Program PWSCF v.6.3MaX starts on 27Mar2024 at  0:45:36 

     This program is part of the open-source Quantum ESPRESSO suite
     for quantum simulation of materials; please cite
         "P. Giannozzi et al., J. Phys.:Condens. Matter 21 395502 (2009);
         "P. Giannozzi et al., J. Phys.:Condens. Matter 29 465901 (2017);
          URL http://www.quantum-espresso.org", 
     in publications or presentations arising from this work. More details at
     http://www.quantum-espresso.org/quote

     Parallel version (MPI), running on     5 processors

     MPI processes distributed on     1 nodes
     R & G space division:  proc/nbgrp/npool/nimage =       5
     Waiting for input...
     Reading input from standard input

     Current dimensions of program PWSCF are:
     Max number of different atomic species (ntypx) = 10
     Max number of k-points (npk) =  40000
     Max angular momentum in pseudopotentials (lmaxx) =  3
               file Ag.pbesol-n-kjpaw_psl.1.0.0.UPF: wavefunction(s)  5S 5P renormalized

     Subspace diagonalization in iterative solution of the eigenvalue problem:
     a serial algorithm will be used


     Parallelization info
     --------------------
     sticks:   dense  smooth     PW     G-vecs:    dense   smooth      PW
     Min         149     149     43                 2664     2664     445
     Max         149     149     45                 2665     2665     446
     Sum         745     745    223                13323    13323    2229



     bravais-lattice index     =            2
     lattice parameter (alat)  =       7.7200  a.u.
     unit-cell volume          =     115.0249 (a.u.)^3
     number of atoms/cell      =            1
     number of atomic types    =            1
     number of electrons       =        11.00
     number of Kohn-Sham states=           10
     kinetic-energy cutoff     =      90.0000  Ry
     charge density cutoff     =     360.0000  Ry
     convergence threshold     =      1.0E-08
     mixing beta               =       0.7000
     number of iterations used =            8  plain     mixing
     Exchange-correlation      = SLA PW PSX PSC ( 1  4 10  8 0 0)

     celldm(1)=   7.720000  celldm(2)=   0.000000  celldm(3)=   0.000000
     celldm(4)=   0.000000  celldm(5)=   0.000000  celldm(6)=   0.000000

     crystal axes: (cart. coord. in units of alat)
               a(1) = (  -0.500000   0.000000   0.500000 )  
               a(2) = (   0.000000   0.500000   0.500000 )  
               a(3) = (  -0.500000   0.500000   0.000000 )  

     reciprocal axes: (cart. coord. in units 2 pi/alat)
               b(1) = ( -1.000000 -1.000000  1.000000 )  
               b(2) = (  1.000000  1.000000  1.000000 )  
               b(3) = ( -1.000000  1.000000 -1.000000 )  


     PseudoPot. # 1 for Ag read from file:
     /home/lorenzo/pseudos/Ag/Ag.pbesol-n-kjpaw_psl.1.0.0.UPF
     MD5 check sum: 3b245e14fa22881b2ac493bfd23f605f
     Pseudo is Projector augmented-wave + core cor, Zval = 11.0
     Generated using "atomic" code by A. Dal Corso v.6.2.2
     Shape of augmentation charge: PSQ
     Using radial grid of 1237 points,  6 beta functions with: 
                l(1) =   0
                l(2) =   0
                l(3) =   1
                l(4) =   1
                l(5) =   2
                l(6) =   2
     Q(r) pseudized with 0 coefficients 


     atomic species   valence    mass     pseudopotential
        Ag            11.00   107.86820     Ag( 1.00)

     48 Sym. Ops., with inversion, found



   Cartesian axes

     site n.     atom                  positions (alat units)
         1           Ag  tau(   1) = (   0.0000000   0.0000000   0.0000000  )

     number of k points=    35  gaussian smearing, width (Ry)=  0.0100
                       cart. coord. in units 2pi/alat
        k(    1) = (   0.0000000   0.0000000   0.0000000), wk =   0.0027435
        k(    2) = (  -0.1111111   0.1111111  -0.1111111), wk =   0.0219479
        k(    3) = (  -0.2222222   0.2222222  -0.2222222), wk =   0.0219479
        k(    4) = (  -0.3333333   0.3333333  -0.3333333), wk =   0.0219479
        k(    5) = (  -0.4444444   0.4444444  -0.4444444), wk =   0.0219479
        k(    6) = (   0.0000000   0.2222222   0.0000000), wk =   0.0164609
        k(    7) = (  -0.1111111   0.3333333  -0.1111111), wk =   0.0658436
        k(    8) = (  -0.2222222   0.4444444  -0.2222222), wk =   0.0658436
        k(    9) = (  -0.3333333   0.5555556  -0.3333333), wk =   0.0658436
        k(   10) = (   0.5555556  -0.3333333   0.5555556), wk =   0.0658436
        k(   11) = (   0.4444444  -0.2222222   0.4444444), wk =   0.0658436
        k(   12) = (   0.3333333  -0.1111111   0.3333333), wk =   0.0658436
        k(   13) = (   0.2222222  -0.0000000   0.2222222), wk =   0.0329218
        k(   14) = (   0.0000000   0.4444444   0.0000000), wk =   0.0164609
        k(   15) = (  -0.1111111   0.5555556  -0.1111111), wk =   0.0658436
        k(   16) = (  -0.2222222   0.6666667  -0.2222222), wk =   0.0658436
        k(   17) = (   0.6666667  -0.2222222   0.6666667), wk =   0.0658436
        k(   18) = (   0.5555556  -0.1111111   0.5555556), wk =   0.0658436
        k(   19) = (   0.4444444   0.0000000   0.4444444), wk =   0.0329218
        k(   20) = (   0.0000000   0.6666667   0.0000000), wk =   0.0164609
        k(   21) = (  -0.1111111   0.7777778  -0.1111111), wk =   0.0658436
        k(   22) = (   0.7777778  -0.1111111   0.7777778), wk =   0.0658436
        k(   23) = (   0.6666667  -0.0000000   0.6666667), wk =   0.0329218
        k(   24) = (   0.0000000   0.8888889   0.0000000), wk =   0.0164609
        k(   25) = (   0.8888889   0.0000000   0.8888889), wk =   0.0329218
        k(   26) = (  -0.2222222   0.4444444   0.0000000), wk =   0.0658436
        k(   27) = (  -0.3333333   0.5555556  -0.1111111), wk =   0.1316872
        k(   28) = (   0.5555556  -0.3333333   0.7777778), wk =   0.1316872
        k(   29) = (  -0.2222222   0.6666667   0.0000000), wk =   0.0658436
        k(   30) = (   0.6666667  -0.2222222   0.8888889), wk =   0.1316872
        k(   31) = (   0.5555556  -0.1111111   0.7777778), wk =   0.1316872
        k(   32) = (   0.4444444   0.0000000   0.6666667), wk =   0.0658436
        k(   33) = (   0.7777778  -0.1111111   1.0000000), wk =   0.0658436
        k(   34) = (   0.6666667  -0.0000000   0.8888889), wk =   0.0658436
        k(   35) = (   0.5555556  -0.1111111   1.0000000), wk =   0.0658436

     Dense  grid:    13323 G-vectors     FFT dimensions: (  36,  36,  36)

     Estimated max dynamical RAM per process >      13.77 MB

     Estimated total dynamical RAM >      68.87 MB

     Initial potential from superposition of free atoms

     starting charge   10.99964, renormalised to   11.00000
     Starting wfcs are    9 randomized atomic wfcs +    1 random wfcs
     Checking if some PAW data can be deallocated... 

     total cpu time spent up to now is        1.4 secs

     Self-consistent Calculation

     iteration #  1     ecut=    90.00 Ry     beta= 0.70
     Davidson diagonalization with overlap
     ethr =  1.00E-02,  avg # of iterations =  4.7

     Threshold (ethr) on eigenvalues was too large:
     Diagonalizing with lowered threshold

     Davidson diagonalization with overlap
     ethr =  4.72E-05,  avg # of iterations =  2.3

     total cpu time spent up to now is        3.2 secs

     total energy              =    -350.23969246 Ry
     Harris-Foulkes estimate   =    -350.24339981 Ry
     estimated scf accuracy    <       0.00558419 Ry

     iteration #  2     ecut=    90.00 Ry     beta= 0.70
     Davidson diagonalization with overlap
     ethr =  5.08E-05,  avg # of iterations =  2.0

     total cpu time spent up to now is        4.0 secs

     total energy              =    -350.24128689 Ry
     Harris-Foulkes estimate   =    -350.24333246 Ry
     estimated scf accuracy    <       0.00425032 Ry

     iteration #  3     ecut=    90.00 Ry     beta= 0.70
     Davidson diagonalization with overlap
     ethr =  3.86E-05,  avg # of iterations =  1.6

     total cpu time spent up to now is        4.8 secs

     total energy              =    -350.24209851 Ry
     Harris-Foulkes estimate   =    -350.24208179 Ry
     estimated scf accuracy    <       0.00001550 Ry

     iteration #  4     ecut=    90.00 Ry     beta= 0.70
     Davidson diagonalization with overlap
     ethr =  1.41E-07,  avg # of iterations =  3.3

     total cpu time spent up to now is        5.7 secs

     total energy              =    -350.24210737 Ry
     Harris-Foulkes estimate   =    -350.24210720 Ry
     estimated scf accuracy    <       0.00000052 Ry

     iteration #  5     ecut=    90.00 Ry     beta= 0.70
     Davidson diagonalization with overlap
     ethr =  4.70E-09,  avg # of iterations =  1.2

     total cpu time spent up to now is        6.3 secs

     End of self-consistent calculation

          k = 0.0000 0.0000 0.0000 (  1639 PWs)   bands (ev):

     4.8052   7.9134   7.9134   7.9134   8.9645   8.9645  29.5458  32.8281
    32.8281  32.8281

          k =-0.1111 0.1111-0.1111 (  1666 PWs)   bands (ev):

     5.1818   7.8360   8.0123   8.0123   8.9334   8.9334  28.9609  30.5736
    32.7968  32.7968

          k =-0.2222 0.2222-0.2222 (  1657 PWs)   bands (ev):

     6.0537   7.9221   8.1261   8.1261   9.0173   9.0173  24.9371  30.1174
    32.5112  32.5112

          k =-0.3333 0.3333-0.3333 (  1634 PWs)   bands (ev):

     6.3803   8.0273   8.0273   9.2972   9.3903   9.3903  20.6218  29.3137
    31.7176  31.7176

          k =-0.4444 0.4444-0.4444 (  1673 PWs)   bands (ev):

     6.2953   7.9091   7.9091   9.7195   9.7195  11.5861  17.0146  28.6778
    30.9451  30.9451

          k = 0.0000 0.2222 0.0000 (  1667 PWs)   bands (ev):

     5.3085   7.7161   8.1016   8.1016   8.7773   9.0509  29.5616  31.2175
    31.2175  31.2227

          k =-0.1111 0.3333-0.1111 (  1665 PWs)   bands (ev):

     6.0574   7.5585   8.2248   8.2823   8.8169   9.1722  26.6620  29.8361
    30.0288  32.5602

          k =-0.2222 0.4444-0.2222 (  1665 PWs)   bands (ev):

     6.5967   7.9901   8.0110   8.2649   9.4836   9.7486  22.2555  29.1826
    29.2568  31.3975

          k =-0.3333 0.5556-0.3333 (  1660 PWs)   bands (ev):

     6.5254   7.8098   8.1316   8.8156   9.7592  11.7153  18.2468  28.2298
    29.1033  29.9262

          k = 0.5556-0.3333 0.5556 (  1661 PWs)   bands (ev):

     6.4921   7.7677   8.0638   9.1555   9.7036  13.0706  16.4348  27.4049
    29.4791  29.8816

          k = 0.4444-0.2222 0.4444 (  1650 PWs)   bands (ev):

     6.5966   7.8808   8.1293   8.7996   9.3052  11.1058  19.5275  27.1194
    30.0886  31.7133

          k = 0.3333-0.1111 0.3333 (  1650 PWs)   bands (ev):

     6.5636   7.7640   8.1716   8.2753   8.8167   9.7378  23.7276  27.4142
    31.5885  34.2308

          k = 0.2222-0.0000 0.2222 (  1663 PWs)   bands (ev):

     5.7601   7.6783   8.1647   8.1671   8.7470   9.1372  28.0868  28.0886
    32.1461  34.4166

          k = 0.0000 0.4444 0.0000 (  1656 PWs)   bands (ev):

     6.4576   7.2425   8.6272   8.6272   8.6633   9.2743  28.1449  28.1449
    29.2262  29.6130

          k =-0.1111 0.5556-0.1111 (  1660 PWs)   bands (ev):

     6.8104   7.1232   8.4199   8.7793   9.5283   9.9405  24.2976  26.9709
    27.5814  29.9067

          k =-0.2222 0.6667-0.2222 (  1654 PWs)   bands (ev):

     6.7701   7.4028   8.2942   8.6704   9.8003  12.1630  20.1234  25.5487
    26.6938  29.5781

          k = 0.6667-0.2222 0.6667 (  1659 PWs)   bands (ev):

     6.8379   7.5251   8.3559   8.5431   9.7266  14.8428  16.7660  23.9878
    27.4873  29.4500

          k = 0.5556-0.1111 0.5556 (  1662 PWs)   bands (ev):

     7.0657   7.6173   8.2049   8.5043   9.3024  13.2547  19.0328  23.1326
    29.3028  29.7982

          k = 0.4444 0.0000 0.4444 (  1658 PWs)   bands (ev):

     7.2696   7.5034   8.0090   8.5473   8.7938  11.1583  23.0079  23.1720
    30.7414  31.8204

          k = 0.0000 0.6667 0.0000 (  1668 PWs)   bands (ev):

     6.6220   6.7426   9.3367   9.3367   9.5365  10.4365  24.9385  25.3523
    25.3523  29.6841

          k =-0.1111 0.7778-0.1111 (  1663 PWs)   bands (ev):

     6.5477   6.6995   9.2099   9.3325   9.8230  12.5454  22.2187  22.8133
    24.7233  29.7067

          k = 0.7778-0.1111 0.7778 (  1660 PWs)   bands (ev):

     6.6448   7.0179   8.7348   9.1658   9.7965  15.4268  18.8168  20.9370
    25.2940  29.6021

          k = 0.6667-0.0000 0.6667 (  1668 PWs)   bands (ev):

     6.9348   7.5120   8.1361   8.9196   9.4869  15.7937  18.4603  20.1900
    26.9528  29.6058

          k = 0.0000 0.8889 0.0000 (  1656 PWs)   bands (ev):

     6.2972   6.4354   9.7128   9.8933   9.8933  13.4268  20.3592  23.6753
    23.6753  29.7350

          k = 0.8889 0.0000 0.8889 (  1668 PWs)   bands (ev):

     6.3657   6.5322   9.5718   9.6042   9.9196  14.8876  19.4046  21.7240
    23.8849  29.7321

          k =-0.2222 0.4444 0.0000 (  1661 PWs)   bands (ev):

     6.7804   7.3468   8.0812   8.6270   8.8850   9.7761  25.5215  25.8248
    30.2464  32.1990

          k =-0.3333 0.5556-0.1111 (  1654 PWs)   bands (ev):

     6.9646   7.7271   7.8342   8.6196   9.3240  11.2792  21.3439  25.2288
    28.1964  32.1668

          k = 0.5556-0.3333 0.7778 (  1662 PWs)   bands (ev):

     6.8517   7.5615   8.3271   8.5123   9.6597  13.6266  17.5455  25.4939
    26.5395  31.3554

          k =-0.2222 0.6667 0.0000 (  1661 PWs)   bands (ev):

     6.9230   6.9367   8.3950   9.3287   9.3975  11.5854  23.4403  23.6130
    25.2643  31.7252

          k = 0.6667-0.2222 0.8889 (  1662 PWs)   bands (ev):

     6.9033   7.1985   8.1909   9.0789   9.7268  14.0920  19.6177  23.1600
    23.7795  31.8639

          k = 0.5556-0.1111 0.7778 (  1653 PWs)   bands (ev):

     7.0926   7.4057   7.9820   8.8516   9.6777  16.1032  17.4011  21.8457
    24.6702  32.0662

          k = 0.4444 0.0000 0.6667 (  1659 PWs)   bands (ev):

     7.4337   7.4743   7.5953   8.9072   9.3349  13.4235  20.9106  21.3476
    26.2685  32.8456

          k = 0.7778-0.1111 1.0000 (  1663 PWs)   bands (ev):

     6.5628   6.6769   9.0266   9.5125   9.8919  14.5614  20.5006  22.1817
    22.3868  31.4704

          k = 0.6667-0.0000 0.8889 (  1654 PWs)   bands (ev):

     6.7641   7.0409   8.4830   9.1806   9.8858  16.8430  18.9015  19.8178
    23.1153  31.8585

          k = 0.5556-0.1111 1.0000 (  1653 PWs)   bands (ev):

     7.0356   7.3867   7.8433   9.0150   9.8883  16.6642  19.4939  20.3639
    21.7425  35.0358

     the Fermi energy is    12.9229 ev

!    total energy              =    -350.24210739 Ry
     Harris-Foulkes estimate   =    -350.24210739 Ry
     estimated scf accuracy    <          6.3E-09 Ry

     total all-electron energy =    -10627.252516 Ry

     The total energy is the sum of the following terms:

     one-electron contribution =       1.60750606 Ry
     hartree contribution      =      14.56779743 Ry
     xc contribution           =     -22.14259534 Ry
     ewald contribution        =     -71.86118018 Ry
     one-center paw contrib.   =    -272.41357769 Ry
     smearing contrib. (-TS)   =      -0.00005766 Ry

     convergence has been achieved in   5 iterations

     Forces acting on atoms (cartesian axes, Ry/au):

     atom    1 type  1   force =     0.00000000    0.00000000    0.00000000

     Total force =     0.000000     Total SCF correction =     0.000000


     Computing stress (Cartesian axis) and pressure

          total   stress  (Ry/bohr**3)                   (kbar)     P=  -24.57
  -0.00016699  -0.00000000  -0.00000000        -24.57     -0.00     -0.00
  -0.00000000  -0.00016699  -0.00000000         -0.00    -24.57     -0.00
  -0.00000000  -0.00000000  -0.00016699         -0.00     -0.00    -24.57


     Writing output data file Ag.save/

     init_run     :      0.57s CPU      0.60s WALL (       1 calls)
     electrons    :      4.66s CPU      4.91s WALL (       1 calls)
     forces       :      0.07s CPU      0.07s WALL (       1 calls)
     stress       :      0.24s CPU      0.24s WALL (       1 calls)

     Called by init_run:
     wfcinit      :      0.20s CPU      0.21s WALL (       1 calls)
     potinit      :      0.13s CPU      0.15s WALL (       1 calls)
     hinit0       :      0.21s CPU      0.21s WALL (       1 calls)

     Called by electrons:
     c_bands      :      3.28s CPU      3.47s WALL (       6 calls)
     sum_band     :      0.71s CPU      0.76s WALL (       6 calls)
     v_of_rho     :      0.06s CPU      0.06s WALL (       6 calls)
     newd         :      0.09s CPU      0.09s WALL (       6 calls)
     PAW_pot      :      0.64s CPU      0.67s WALL (       6 calls)
     mix_rho      :      0.00s CPU      0.00s WALL (       6 calls)

     Called by c_bands:
     init_us_2    :      0.10s CPU      0.11s WALL (     525 calls)
     cegterg      :      3.14s CPU      3.32s WALL (     210 calls)

     Called by sum_band:
     sum_band:bec :      0.00s CPU      0.00s WALL (     210 calls)
     addusdens    :      0.07s CPU      0.08s WALL (       6 calls)

     Called by *egterg:
     h_psi        :      2.67s CPU      2.84s WALL (     770 calls)
     s_psi        :      0.07s CPU      0.07s WALL (     770 calls)
     g_psi        :      0.01s CPU      0.01s WALL (     525 calls)
     cdiaghg      :      0.19s CPU      0.19s WALL (     700 calls)

     Called by h_psi:
     h_psi:pot    :      2.66s CPU      2.83s WALL (     770 calls)
     h_psi:calbec :      0.14s CPU      0.15s WALL (     770 calls)
     vloc_psi     :      2.44s CPU      2.59s WALL (     770 calls)
     add_vuspsi   :      0.07s CPU      0.08s WALL (     770 calls)

     General routines
     calbec       :      0.21s CPU      0.22s WALL (    1155 calls)
     fft          :      0.04s CPU      0.04s WALL (      93 calls)
     ffts         :      0.00s CPU      0.00s WALL (       6 calls)
     fftw         :      2.76s CPU      2.93s WALL (   13056 calls)

     Parallel routines
     fft_scatt_xy :      0.22s CPU      0.24s WALL (   13155 calls)
     fft_scatt_yz :      0.83s CPU      0.88s WALL (   13155 calls)

     PWSCF        :     6.39s CPU         6.77s WALL


   This run was terminated on:   0:45:43  27Mar2024            

=------------------------------------------------------------------------------=
   JOB DONE.
=------------------------------------------------------------------------------=
