
     Program PWSCF v.6.3MaX starts on 27Mar2024 at  0: 4:24 

     This program is part of the open-source Quantum ESPRESSO suite
     for quantum simulation of materials; please cite
         "P. Giannozzi et al., J. Phys.:Condens. Matter 21 395502 (2009);
         "P. Giannozzi et al., J. Phys.:Condens. Matter 29 465901 (2017);
          URL http://www.quantum-espresso.org", 
     in publications or presentations arising from this work. More details at
     http://www.quantum-espresso.org/quote

     Parallel version (MPI), running on     5 processors

     MPI processes distributed on     1 nodes
     R & G space division:  proc/nbgrp/npool/nimage =       5
     Waiting for input...
     Reading input from standard input

     Current dimensions of program PWSCF are:
     Max number of different atomic species (ntypx) = 10
     Max number of k-points (npk) =  40000
     Max angular momentum in pseudopotentials (lmaxx) =  3

     Subspace diagonalization in iterative solution of the eigenvalue problem:
     a serial algorithm will be used


     Parallelization info
     --------------------
     sticks:   dense  smooth     PW     G-vecs:    dense   smooth      PW
     Min          17      17      7                  106      106      27
     Max          17      17      8                  107      107      28
     Sum          85      85     37                  531      531     137



     bravais-lattice index     =            2
     lattice parameter (alat)  =       7.7200  a.u.
     unit-cell volume          =     115.0249 (a.u.)^3
     number of atoms/cell      =            1
     number of atomic types    =            1
     number of electrons       =        11.00
     number of Kohn-Sham states=           10
     kinetic-energy cutoff     =      10.0000  Ry
     charge density cutoff     =      40.0000  Ry
     convergence threshold     =      1.0E-08
     mixing beta               =       0.7000
     number of iterations used =            8  plain     mixing
     Exchange-correlation      = PBESOL ( 1  4 10  8 0 0)

     celldm(1)=   7.720000  celldm(2)=   0.000000  celldm(3)=   0.000000
     celldm(4)=   0.000000  celldm(5)=   0.000000  celldm(6)=   0.000000

     crystal axes: (cart. coord. in units of alat)
               a(1) = (  -0.500000   0.000000   0.500000 )  
               a(2) = (   0.000000   0.500000   0.500000 )  
               a(3) = (  -0.500000   0.500000   0.000000 )  

     reciprocal axes: (cart. coord. in units 2 pi/alat)
               b(1) = ( -1.000000 -1.000000  1.000000 )  
               b(2) = (  1.000000  1.000000  1.000000 )  
               b(3) = ( -1.000000  1.000000 -1.000000 )  


     PseudoPot. # 1 for Ag read from file:
     /home/lorenzo/pseudos/Ag/Ag.pbesol-n-rrkjus_psl.1.0.0.UPF
     MD5 check sum: 3b43e8aa747a56f565f44d11355b8b45
     Pseudo is Ultrasoft + core correction, Zval = 11.0
     Generated using "atomic" code by A. Dal Corso v.6.2.2
     Using radial grid of 1237 points,  6 beta functions with: 
                l(1) =   0
                l(2) =   0
                l(3) =   1
                l(4) =   1
                l(5) =   2
                l(6) =   2
     Q(r) pseudized with 0 coefficients 


     atomic species   valence    mass     pseudopotential
        Ag            11.00   107.86820     Ag( 1.00)

     48 Sym. Ops., with inversion, found



   Cartesian axes

     site n.     atom                  positions (alat units)
         1           Ag  tau(   1) = (   0.0000000   0.0000000   0.0000000  )

     number of k points=    47  gaussian smearing, width (Ry)=  0.0100
                       cart. coord. in units 2pi/alat
        k(    1) = (   0.0000000   0.0000000   0.0000000), wk =   0.0020000
        k(    2) = (  -0.1000000   0.1000000  -0.1000000), wk =   0.0160000
        k(    3) = (  -0.2000000   0.2000000  -0.2000000), wk =   0.0160000
        k(    4) = (  -0.3000000   0.3000000  -0.3000000), wk =   0.0160000
        k(    5) = (  -0.4000000   0.4000000  -0.4000000), wk =   0.0160000
        k(    6) = (   0.5000000  -0.5000000   0.5000000), wk =   0.0080000
        k(    7) = (   0.0000000   0.2000000   0.0000000), wk =   0.0120000
        k(    8) = (  -0.1000000   0.3000000  -0.1000000), wk =   0.0480000
        k(    9) = (  -0.2000000   0.4000000  -0.2000000), wk =   0.0480000
        k(   10) = (  -0.3000000   0.5000000  -0.3000000), wk =   0.0480000
        k(   11) = (   0.6000000  -0.4000000   0.6000000), wk =   0.0480000
        k(   12) = (   0.5000000  -0.3000000   0.5000000), wk =   0.0480000
        k(   13) = (   0.4000000  -0.2000000   0.4000000), wk =   0.0480000
        k(   14) = (   0.3000000  -0.1000000   0.3000000), wk =   0.0480000
        k(   15) = (   0.2000000   0.0000000   0.2000000), wk =   0.0240000
        k(   16) = (   0.0000000   0.4000000   0.0000000), wk =   0.0120000
        k(   17) = (  -0.1000000   0.5000000  -0.1000000), wk =   0.0480000
        k(   18) = (  -0.2000000   0.6000000  -0.2000000), wk =   0.0480000
        k(   19) = (   0.7000000  -0.3000000   0.7000000), wk =   0.0480000
        k(   20) = (   0.6000000  -0.2000000   0.6000000), wk =   0.0480000
        k(   21) = (   0.5000000  -0.1000000   0.5000000), wk =   0.0480000
        k(   22) = (   0.4000000   0.0000000   0.4000000), wk =   0.0240000
        k(   23) = (   0.0000000   0.6000000   0.0000000), wk =   0.0120000
        k(   24) = (  -0.1000000   0.7000000  -0.1000000), wk =   0.0480000
        k(   25) = (   0.8000000  -0.2000000   0.8000000), wk =   0.0480000
        k(   26) = (   0.7000000  -0.1000000   0.7000000), wk =   0.0480000
        k(   27) = (   0.6000000  -0.0000000   0.6000000), wk =   0.0240000
        k(   28) = (   0.0000000   0.8000000   0.0000000), wk =   0.0120000
        k(   29) = (   0.9000000  -0.1000000   0.9000000), wk =   0.0480000
        k(   30) = (   0.8000000   0.0000000   0.8000000), wk =   0.0240000
        k(   31) = (   0.0000000  -1.0000000   0.0000000), wk =   0.0060000
        k(   32) = (  -0.2000000   0.4000000   0.0000000), wk =   0.0480000
        k(   33) = (  -0.3000000   0.5000000  -0.1000000), wk =   0.0960000
        k(   34) = (   0.6000000  -0.4000000   0.8000000), wk =   0.0960000
        k(   35) = (   0.5000000  -0.3000000   0.7000000), wk =   0.0480000
        k(   36) = (  -0.2000000   0.6000000   0.0000000), wk =   0.0480000
        k(   37) = (   0.7000000  -0.3000000   0.9000000), wk =   0.0960000
        k(   38) = (   0.6000000  -0.2000000   0.8000000), wk =   0.0960000
        k(   39) = (   0.5000000  -0.1000000   0.7000000), wk =   0.0960000
        k(   40) = (   0.4000000   0.0000000   0.6000000), wk =   0.0480000
        k(   41) = (   0.8000000  -0.2000000   1.0000000), wk =   0.0480000
        k(   42) = (   0.7000000  -0.1000000   0.9000000), wk =   0.0960000
        k(   43) = (   0.6000000   0.0000000   0.8000000), wk =   0.0480000
        k(   44) = (  -0.2000000  -1.0000000   0.0000000), wk =   0.0240000
        k(   45) = (   0.6000000  -0.2000000   1.0000000), wk =   0.0480000
        k(   46) = (   0.5000000  -0.1000000   0.9000000), wk =   0.0480000
        k(   47) = (  -0.4000000  -1.0000000   0.0000000), wk =   0.0240000

     Dense  grid:      531 G-vectors     FFT dimensions: (  12,  12,  12)

     Estimated max dynamical RAM per process >       1.12 MB

     Estimated total dynamical RAM >       5.60 MB

     Initial potential from superposition of free atoms
     Check: negative starting charge=   -0.000249

     starting charge   10.99964, renormalised to   11.00000

     negative rho (up, down):  2.491E-04 0.000E+00
     Starting wfcs are    9 randomized atomic wfcs +    1 random wfcs

     total cpu time spent up to now is        0.8 secs

     Self-consistent Calculation

     iteration #  1     ecut=    10.00 Ry     beta= 0.70
     Davidson diagonalization with overlap
     ethr =  1.00E-02,  avg # of iterations =  4.4

     total cpu time spent up to now is        1.0 secs

     total energy              =     -69.21358169 Ry
     Harris-Foulkes estimate   =     -77.32214195 Ry
     estimated scf accuracy    <      10.37421045 Ry

     iteration #  2     ecut=    10.00 Ry     beta= 0.70
     Davidson diagonalization with overlap
     ethr =  1.00E-02,  avg # of iterations =  3.1

     total cpu time spent up to now is        1.2 secs

     total energy              =     -71.61450057 Ry
     Harris-Foulkes estimate   =     -71.74700554 Ry
     estimated scf accuracy    <       0.47213620 Ry

     iteration #  3     ecut=    10.00 Ry     beta= 0.70
     Davidson diagonalization with overlap
     ethr =  4.29E-03,  avg # of iterations =  1.0

     total cpu time spent up to now is        1.3 secs

     total energy              =     -71.63410924 Ry
     Harris-Foulkes estimate   =     -71.63591397 Ry
     estimated scf accuracy    <       0.03406449 Ry

     iteration #  4     ecut=    10.00 Ry     beta= 0.70
     Davidson diagonalization with overlap
     ethr =  3.10E-04,  avg # of iterations =  1.1

     total cpu time spent up to now is        1.4 secs

     total energy              =     -71.63483157 Ry
     Harris-Foulkes estimate   =     -71.63484753 Ry
     estimated scf accuracy    <       0.00002957 Ry

     iteration #  5     ecut=    10.00 Ry     beta= 0.70
     Davidson diagonalization with overlap
     ethr =  2.69E-07,  avg # of iterations =  3.9

     total cpu time spent up to now is        1.6 secs

     total energy              =     -71.63536267 Ry
     Harris-Foulkes estimate   =     -71.63537016 Ry
     estimated scf accuracy    <       0.00001567 Ry

     iteration #  6     ecut=    10.00 Ry     beta= 0.70
     Davidson diagonalization with overlap
     ethr =  1.42E-07,  avg # of iterations =  1.0

     total cpu time spent up to now is        1.7 secs

     total energy              =     -71.63536117 Ry
     Harris-Foulkes estimate   =     -71.63536342 Ry
     estimated scf accuracy    <       0.00000337 Ry

     iteration #  7     ecut=    10.00 Ry     beta= 0.70
     Davidson diagonalization with overlap
     ethr =  3.06E-08,  avg # of iterations =  3.0

     total cpu time spent up to now is        1.8 secs

     total energy              =     -71.63536198 Ry
     Harris-Foulkes estimate   =     -71.63536211 Ry
     estimated scf accuracy    <       0.00000021 Ry

     iteration #  8     ecut=    10.00 Ry     beta= 0.70
     Davidson diagonalization with overlap
     ethr =  1.90E-09,  avg # of iterations =  2.4

     total cpu time spent up to now is        1.9 secs

     total energy              =     -71.63536202 Ry
     Harris-Foulkes estimate   =     -71.63536202 Ry
     estimated scf accuracy    <       0.00000001 Ry

     iteration #  9     ecut=    10.00 Ry     beta= 0.70
     Davidson diagonalization with overlap
     ethr =  1.28E-10,  avg # of iterations =  1.1

     total cpu time spent up to now is        2.0 secs

     End of self-consistent calculation

          k = 0.0000 0.0000 0.0000 (    59 PWs)   bands (ev):

     2.4004  10.7565  10.7565  10.7565  14.4946  14.4946  28.2077  28.2077
    28.2077  32.8932

          k =-0.1000 0.1000-0.1000 (    59 PWs)   bands (ev):

     2.6878  10.6610  10.9389  10.9389  14.4864  14.4864  26.9001  28.1375
    28.1375  33.3753

          k =-0.2000 0.2000-0.2000 (    62 PWs)   bands (ev):

     3.5071  10.3871  10.9304  10.9304  12.2829  12.2829  23.9194  27.7495
    27.7495  34.2190

          k =-0.3000 0.3000-0.3000 (    64 PWs)   bands (ev):

     4.6746   9.8229  10.7672  10.7672  12.3567  12.3567  19.7318  26.9719
    26.9719  33.3109

          k =-0.4000 0.4000-0.4000 (    61 PWs)   bands (ev):

     5.9835  10.9967  10.9967  11.3902  14.4881  14.4881  17.6760  26.1251
    26.1251  32.4064

          k = 0.5000-0.5000 0.5000 (    70 PWs)   bands (ev):

     6.5538   8.0004   8.0004   9.5567   9.5567  11.2856  15.7303  25.1854
    25.1854  32.0533

          k = 0.0000 0.2000 0.0000 (    60 PWs)   bands (ev):

     2.7840  10.5978  11.0219  11.0219  12.3743  14.7013  27.1502  27.6883
    27.6883  33.5377

          k =-0.1000 0.3000-0.1000 (    60 PWs)   bands (ev):

     3.4389  10.4081  11.2768  11.4336  12.2541  14.9251  24.8423  27.1375
    27.6432  34.5264

          k =-0.2000 0.4000-0.2000 (    61 PWs)   bands (ev):

     4.5511  10.7116  11.0306  11.1448  12.9848  13.5494  21.9715  26.4553
    27.2762  34.1033

          k =-0.3000 0.5000-0.3000 (    63 PWs)   bands (ev):

     5.7820   9.7055  10.9387  10.9492  13.5919  14.1575  17.7052  25.6077
    26.1457  33.0109

          k = 0.6000-0.4000 0.6000 (    65 PWs)   bands (ev):

     6.7710   9.6536  10.3271  10.7076  10.8253  14.7702  15.8628  24.8707
    25.0379  32.5145

          k = 0.5000-0.3000 0.5000 (    63 PWs)   bands (ev):

     6.5507  10.3743  10.7057  10.9699  13.2179  14.0782  16.8089  24.6757
    25.8972  32.6767

          k = 0.4000-0.2000 0.4000 (    65 PWs)   bands (ev):

     5.3446   9.4814  10.4238  10.8453  12.1913  12.4284  18.5212  25.0820
    27.0592  33.2864

          k = 0.3000-0.1000 0.3000 (    61 PWs)   bands (ev):

     4.1368  10.2916  11.1045  11.3729  12.1245  14.3553  22.6528  26.3550
    27.9766  34.7124

          k = 0.2000 0.0000 0.2000 (    61 PWs)   bands (ev):

     3.1547  10.5144  11.1203  11.2352  11.5088  13.8505  25.4063  27.1814
    28.2439  34.1686

          k = 0.0000 0.4000 0.0000 (    60 PWs)   bands (ev):

     3.9119  10.2262  11.5757  11.8110  11.8110  15.2979  24.7609  26.3041
    26.3041  35.3052

          k =-0.1000 0.5000-0.1000 (    60 PWs)   bands (ev):

     4.8847  10.0493  11.0512  12.4172  12.7137  15.7366  22.2318  25.4853
    25.9145  34.8671

          k =-0.2000 0.6000-0.2000 (    66 PWs)   bands (ev):

     6.0275   9.4894   9.6606  10.2304  11.8960  12.6271  18.1917  23.9901
    25.1195  33.8698

          k = 0.7000-0.3000 0.7000 (    61 PWs)   bands (ev):

     7.3206  10.3420  10.8785  12.3383  14.8527  15.5412  15.9992  24.0072
    24.1087  33.8613

          k = 0.6000-0.2000 0.6000 (    60 PWs)   bands (ev):

     7.5774  10.5694  11.7047  11.7177  14.3802  14.8233  17.5693  23.3943
    25.0894  34.1136

          k = 0.5000-0.1000 0.5000 (    61 PWs)   bands (ev):

     6.4822  10.1047  11.6071  11.8873  13.2107  15.2640  18.2928  23.3251
    26.3206  34.2084

          k = 0.4000 0.0000 0.4000 (    61 PWs)   bands (ev):

     5.2019  11.1553  11.2329  11.5029  12.6173  14.1063  20.2746  24.9226
    27.5737  34.6978

          k = 0.0000 0.6000 0.0000 (    60 PWs)   bands (ev):

     5.6541   9.8674  10.8369  13.0995  13.0995  16.2107  21.4901  24.4724
    24.4724  34.7040

          k =-0.1000 0.7000-0.1000 (    59 PWs)   bands (ev):

     6.7792  10.0781  12.7727  13.5069  13.9508  15.8930  18.2990  23.0310
    23.6486  36.3244

          k = 0.8000-0.2000 0.8000 (    59 PWs)   bands (ev):

     8.1007  10.0679  11.8501  13.6727  14.8447  15.7048  16.5239  22.8907
    23.1114  36.2858

          k = 0.7000-0.1000 0.7000 (    64 PWs)   bands (ev):

     8.5526   9.9599  10.1285  10.4083  13.1841  13.9628  17.6896  20.6098
    23.4062  35.3561

          k = 0.6000-0.0000 0.6000 (    63 PWs)   bands (ev):

     7.7967   9.7063  10.2408  11.6162  13.4637  13.9865  19.0682  20.1301
    25.0509  34.7900

          k = 0.0000 0.8000 0.0000 (    64 PWs)   bands (ev):

     7.5620   9.4195  12.1650  12.1650  12.4107  13.7371  17.2282  20.9846
    20.9846  36.4515

          k = 0.9000-0.1000 0.9000 (    62 PWs)   bands (ev):

     8.4748   9.5055  12.0548  12.6850  14.5978  14.8679  15.8046  20.7321
    20.9052  36.8654

          k = 0.8000 0.0000 0.8000 (    60 PWs)   bands (ev):

     9.1329  10.4213  11.8517  13.0490  14.0390  14.9169  17.9318  20.6749
    21.8616  37.0905

          k = 0.0000-1.0000 0.0000 (    64 PWs)   bands (ev):

     8.5714   9.1890  12.4049  12.4049  12.6069  13.8341  15.2605  20.2418
    20.2418  36.8399

          k =-0.2000 0.4000 0.0000 (    61 PWs)   bands (ev):

     4.2466  10.2310  11.0616  11.5962  11.9882  14.4819  23.0135  25.8650
    27.3918  35.8581

          k =-0.3000 0.5000-0.1000 (    60 PWs)   bands (ev):

     5.4611  10.7033  11.1014  12.2950  13.6023  15.0527  20.0014  24.9985
    26.8029  34.4542

          k = 0.6000-0.4000 0.8000 (    64 PWs)   bands (ev):

     6.6609   9.7025   9.8570  11.3638  12.8234  14.5142  16.6595  23.7698
    25.3444  33.5106

          k = 0.5000-0.3000 0.7000 (    62 PWs)   bands (ev):

     7.3927  10.3892  11.0443  11.5556  12.6305  15.4329  16.4406  23.9037
    24.6303  33.4681

          k =-0.2000 0.6000 0.0000 (    60 PWs)   bands (ev):

     5.8911  10.4537  10.8272  13.6026  14.1940  14.2340  19.6931  24.4242
    25.2162  34.9186

          k = 0.7000-0.3000 0.9000 (    61 PWs)   bands (ev):

     7.1733  10.1882  10.9976  13.1190  13.9760  14.6259  17.4405  22.7381
    24.5928  35.2410

          k = 0.6000-0.2000 0.8000 (    59 PWs)   bands (ev):

     8.3715  10.2384  11.8576  12.9268  14.4353  15.2455  17.4387  22.6454
    24.1348  35.7597

          k = 0.5000-0.1000 0.7000 (    61 PWs)   bands (ev):

     7.9103   9.8786  11.3578  12.2573  13.9889  14.2106  18.0245  22.0825
    24.5987  35.2302

          k = 0.4000 0.0000 0.6000 (    59 PWs)   bands (ev):

     6.6724  11.0576  11.1861  12.5686  14.1236  15.2732  19.1059  23.7334
    25.9332  34.8058

          k = 0.8000-0.2000 1.0000 (    63 PWs)   bands (ev):

     7.8074   9.7217  10.8105  13.0802  13.4029  14.3367  16.6906  20.9669
    22.5274  36.3236

          k = 0.7000-0.1000 0.9000 (    62 PWs)   bands (ev):

     8.9399  10.2475  10.6105  12.5308  13.4129  14.2262  17.2743  20.4292
    22.6410  36.8557

          k = 0.6000 0.0000 0.8000 (    63 PWs)   bands (ev):

     9.0225   9.8651  10.1996  12.0463  13.3207  13.7184  18.2521  19.3833
    23.3774  36.4260

          k =-0.2000-1.0000 0.0000 (    60 PWs)   bands (ev):

     9.0141   9.9727  12.1156  12.9409  14.1889  15.8222  17.4061  20.1203
    21.6496  37.3346

          k = 0.6000-0.2000 1.0000 (    61 PWs)   bands (ev):

     8.5486  10.3934  11.2419  12.1797  13.1804  14.3379  18.4289  20.4054
    24.0205  36.8086

          k = 0.5000-0.1000 0.9000 (    62 PWs)   bands (ev):

     9.4719  10.2929  10.9736  11.1625  12.4026  14.5584  18.1903  19.7853
    23.6413  37.2900

          k =-0.4000-1.0000 0.0000 (    62 PWs)   bands (ev):

    10.0193  10.2915  10.8648  11.2145  13.2244  14.1296  17.5597  19.7664
    22.9554  38.0141

     the Fermi energy is    14.6207 ev

!    total energy              =     -71.63536202 Ry
     Harris-Foulkes estimate   =     -71.63536202 Ry
     estimated scf accuracy    <          3.6E-10 Ry

     The total energy is the sum of the following terms:

     one-electron contribution =      15.05190783 Ry
     hartree contribution      =       4.21264435 Ry
     xc contribution           =     -19.03779689 Ry
     ewald contribution        =     -71.86118018 Ry
     smearing contrib. (-TS)   =      -0.00093712 Ry

     convergence has been achieved in   9 iterations

     Forces acting on atoms (cartesian axes, Ry/au):

     atom    1 type  1   force =     0.00000000    0.00000000    0.00000000

     Total force =     0.000000     Total SCF correction =     0.000000


     Computing stress (Cartesian axis) and pressure

          total   stress  (Ry/bohr**3)                   (kbar)     P=********
  -0.10915955   0.00000000  -0.00000000     -16057.92      0.00     -0.00
   0.00000000  -0.10915955   0.00000000          0.00 -16057.92      0.00
  -0.00000000   0.00000000  -0.10915955         -0.00      0.00 -16057.92


     Writing output data file Ag.save/

     init_run     :      0.09s CPU      0.10s WALL (       1 calls)
     electrons    :      1.04s CPU      1.21s WALL (       1 calls)
     forces       :      0.01s CPU      0.01s WALL (       1 calls)
     stress       :      0.02s CPU      0.02s WALL (       1 calls)

     Called by init_run:
     wfcinit      :      0.04s CPU      0.04s WALL (       1 calls)
     potinit      :      0.00s CPU      0.00s WALL (       1 calls)
     hinit0       :      0.05s CPU      0.06s WALL (       1 calls)

     Called by electrons:
     c_bands      :      0.91s CPU      1.07s WALL (       9 calls)
     sum_band     :      0.11s CPU      0.13s WALL (       9 calls)
     v_of_rho     :      0.00s CPU      0.01s WALL (      10 calls)
     newd         :      0.00s CPU      0.01s WALL (      10 calls)
     mix_rho      :      0.00s CPU      0.00s WALL (       9 calls)

     Called by c_bands:
     init_us_2    :      0.02s CPU      0.02s WALL (     987 calls)
     cegterg      :      0.88s CPU      1.04s WALL (     423 calls)

     Called by sum_band:
     sum_band:bec :      0.00s CPU      0.00s WALL (     423 calls)
     addusdens    :      0.00s CPU      0.01s WALL (       9 calls)

     Called by *egterg:
     h_psi        :      0.50s CPU      0.59s WALL (    1455 calls)
     s_psi        :      0.01s CPU      0.02s WALL (    1455 calls)
     g_psi        :      0.00s CPU      0.00s WALL (     985 calls)
     cdiaghg      :      0.27s CPU      0.32s WALL (    1408 calls)

     Called by h_psi:
     h_psi:pot    :      0.50s CPU      0.59s WALL (    1455 calls)
     h_psi:calbec :      0.03s CPU      0.04s WALL (    1455 calls)
     vloc_psi     :      0.45s CPU      0.52s WALL (    1455 calls)
     add_vuspsi   :      0.02s CPU      0.02s WALL (    1455 calls)

     General routines
     calbec       :      0.04s CPU      0.05s WALL (    2113 calls)
     fft          :      0.00s CPU      0.00s WALL (     136 calls)
     ffts         :      0.00s CPU      0.00s WALL (       9 calls)
     fftw         :      0.47s CPU      0.55s WALL (   26920 calls)

     Parallel routines
     fft_scatt_xy :      0.05s CPU      0.06s WALL (   27065 calls)
     fft_scatt_yz :      0.23s CPU      0.26s WALL (   27065 calls)

     PWSCF        :     1.90s CPU         2.15s WALL


   This run was terminated on:   0: 4:26  27Mar2024            

=------------------------------------------------------------------------------=
   JOB DONE.
=------------------------------------------------------------------------------=
