
     Program PWSCF v.6.3MaX starts on 27Mar2024 at  0:15:46 

     This program is part of the open-source Quantum ESPRESSO suite
     for quantum simulation of materials; please cite
         "P. Giannozzi et al., J. Phys.:Condens. Matter 21 395502 (2009);
         "P. Giannozzi et al., J. Phys.:Condens. Matter 29 465901 (2017);
          URL http://www.quantum-espresso.org", 
     in publications or presentations arising from this work. More details at
     http://www.quantum-espresso.org/quote

     Parallel version (MPI), running on     5 processors

     MPI processes distributed on     1 nodes
     R & G space division:  proc/nbgrp/npool/nimage =       5
     Waiting for input...
     Reading input from standard input

     Current dimensions of program PWSCF are:
     Max number of different atomic species (ntypx) = 10
     Max number of k-points (npk) =  40000
     Max angular momentum in pseudopotentials (lmaxx) =  3

     Subspace diagonalization in iterative solution of the eigenvalue problem:
     a serial algorithm will be used


     Parallelization info
     --------------------
     sticks:   dense  smooth     PW     G-vecs:    dense   smooth      PW
     Min          58      58     19                  643      643     128
     Max          60      60     20                  643      643     130
     Sum         295     295     97                 3215     3215     645



     bravais-lattice index     =            2
     lattice parameter (alat)  =       7.7200  a.u.
     unit-cell volume          =     115.0249 (a.u.)^3
     number of atoms/cell      =            1
     number of atomic types    =            1
     number of electrons       =        11.00
     number of Kohn-Sham states=           10
     kinetic-energy cutoff     =      35.0000  Ry
     charge density cutoff     =     140.0000  Ry
     convergence threshold     =      1.0E-08
     mixing beta               =       0.7000
     number of iterations used =            8  plain     mixing
     Exchange-correlation      = PBESOL ( 1  4 10  8 0 0)

     celldm(1)=   7.720000  celldm(2)=   0.000000  celldm(3)=   0.000000
     celldm(4)=   0.000000  celldm(5)=   0.000000  celldm(6)=   0.000000

     crystal axes: (cart. coord. in units of alat)
               a(1) = (  -0.500000   0.000000   0.500000 )  
               a(2) = (   0.000000   0.500000   0.500000 )  
               a(3) = (  -0.500000   0.500000   0.000000 )  

     reciprocal axes: (cart. coord. in units 2 pi/alat)
               b(1) = ( -1.000000 -1.000000  1.000000 )  
               b(2) = (  1.000000  1.000000  1.000000 )  
               b(3) = ( -1.000000  1.000000 -1.000000 )  


     PseudoPot. # 1 for Ag read from file:
     /home/lorenzo/pseudos/Ag/Ag.pbesol-n-rrkjus_psl.1.0.0.UPF
     MD5 check sum: 3b43e8aa747a56f565f44d11355b8b45
     Pseudo is Ultrasoft + core correction, Zval = 11.0
     Generated using "atomic" code by A. Dal Corso v.6.2.2
     Using radial grid of 1237 points,  6 beta functions with: 
                l(1) =   0
                l(2) =   0
                l(3) =   1
                l(4) =   1
                l(5) =   2
                l(6) =   2
     Q(r) pseudized with 0 coefficients 


     atomic species   valence    mass     pseudopotential
        Ag            11.00   107.86820     Ag( 1.00)

     48 Sym. Ops., with inversion, found



   Cartesian axes

     site n.     atom                  positions (alat units)
         1           Ag  tau(   1) = (   0.0000000   0.0000000   0.0000000  )

     number of k points=    29  gaussian smearing, width (Ry)=  0.0100
                       cart. coord. in units 2pi/alat
        k(    1) = (   0.0000000   0.0000000   0.0000000), wk =   0.0039062
        k(    2) = (  -0.1250000   0.1250000  -0.1250000), wk =   0.0312500
        k(    3) = (  -0.2500000   0.2500000  -0.2500000), wk =   0.0312500
        k(    4) = (  -0.3750000   0.3750000  -0.3750000), wk =   0.0312500
        k(    5) = (   0.5000000  -0.5000000   0.5000000), wk =   0.0156250
        k(    6) = (   0.0000000   0.2500000   0.0000000), wk =   0.0234375
        k(    7) = (  -0.1250000   0.3750000  -0.1250000), wk =   0.0937500
        k(    8) = (  -0.2500000   0.5000000  -0.2500000), wk =   0.0937500
        k(    9) = (   0.6250000  -0.3750000   0.6250000), wk =   0.0937500
        k(   10) = (   0.5000000  -0.2500000   0.5000000), wk =   0.0937500
        k(   11) = (   0.3750000  -0.1250000   0.3750000), wk =   0.0937500
        k(   12) = (   0.2500000   0.0000000   0.2500000), wk =   0.0468750
        k(   13) = (   0.0000000   0.5000000   0.0000000), wk =   0.0234375
        k(   14) = (  -0.1250000   0.6250000  -0.1250000), wk =   0.0937500
        k(   15) = (   0.7500000  -0.2500000   0.7500000), wk =   0.0937500
        k(   16) = (   0.6250000  -0.1250000   0.6250000), wk =   0.0937500
        k(   17) = (   0.5000000   0.0000000   0.5000000), wk =   0.0468750
        k(   18) = (   0.0000000   0.7500000   0.0000000), wk =   0.0234375
        k(   19) = (   0.8750000  -0.1250000   0.8750000), wk =   0.0937500
        k(   20) = (   0.7500000   0.0000000   0.7500000), wk =   0.0468750
        k(   21) = (   0.0000000  -1.0000000   0.0000000), wk =   0.0117188
        k(   22) = (  -0.2500000   0.5000000   0.0000000), wk =   0.0937500
        k(   23) = (   0.6250000  -0.3750000   0.8750000), wk =   0.1875000
        k(   24) = (   0.5000000  -0.2500000   0.7500000), wk =   0.0937500
        k(   25) = (   0.7500000  -0.2500000   1.0000000), wk =   0.0937500
        k(   26) = (   0.6250000  -0.1250000   0.8750000), wk =   0.1875000
        k(   27) = (   0.5000000   0.0000000   0.7500000), wk =   0.0937500
        k(   28) = (  -0.2500000  -1.0000000   0.0000000), wk =   0.0468750
        k(   29) = (  -0.5000000  -1.0000000   0.0000000), wk =   0.0234375

     Dense  grid:     3215 G-vectors     FFT dimensions: (  24,  24,  24)

     Estimated max dynamical RAM per process >       3.99 MB

     Estimated total dynamical RAM >      19.96 MB

     Initial potential from superposition of free atoms

     starting charge   10.99964, renormalised to   11.00000
     Starting wfcs are    9 randomized atomic wfcs +    1 random wfcs

     total cpu time spent up to now is        1.1 secs

     Self-consistent Calculation

     iteration #  1     ecut=    35.00 Ry     beta= 0.70
     Davidson diagonalization with overlap
     ethr =  1.00E-02,  avg # of iterations =  4.8

     Threshold (ethr) on eigenvalues was too large:
     Diagonalizing with lowered threshold

     Davidson diagonalization with overlap
     ethr =  4.89E-05,  avg # of iterations =  2.0

     total cpu time spent up to now is        1.5 secs

     total energy              =     -84.16097027 Ry
     Harris-Foulkes estimate   =     -84.16461704 Ry
     estimated scf accuracy    <       0.00579413 Ry

     iteration #  2     ecut=    35.00 Ry     beta= 0.70
     Davidson diagonalization with overlap
     ethr =  5.27E-05,  avg # of iterations =  2.0

     total cpu time spent up to now is        1.7 secs

     total energy              =     -84.16244104 Ry
     Harris-Foulkes estimate   =     -84.16466787 Ry
     estimated scf accuracy    <       0.00421640 Ry

     iteration #  3     ecut=    35.00 Ry     beta= 0.70
     Davidson diagonalization with overlap
     ethr =  3.83E-05,  avg # of iterations =  2.0

     total cpu time spent up to now is        1.9 secs

     total energy              =     -84.16336021 Ry
     Harris-Foulkes estimate   =     -84.16334835 Ry
     estimated scf accuracy    <       0.00001903 Ry

     iteration #  4     ecut=    35.00 Ry     beta= 0.70
     Davidson diagonalization with overlap
     ethr =  1.73E-07,  avg # of iterations =  2.8

     total cpu time spent up to now is        2.0 secs

     total energy              =     -84.16337120 Ry
     Harris-Foulkes estimate   =     -84.16337112 Ry
     estimated scf accuracy    <       0.00000076 Ry

     iteration #  5     ecut=    35.00 Ry     beta= 0.70
     Davidson diagonalization with overlap
     ethr =  6.87E-09,  avg # of iterations =  2.0

     total cpu time spent up to now is        2.2 secs

     End of self-consistent calculation

          k = 0.0000 0.0000 0.0000 (   411 PWs)   bands (ev):

     4.8072   7.9240   7.9240   7.9240   8.9696   8.9696  29.5477  32.8313
    32.8313  32.8313

          k =-0.1250 0.1250-0.1250 (   396 PWs)   bands (ev):

     5.2788   7.8418   8.0488   8.0488   8.9445   8.9445  28.5941  30.4477
    32.7893  32.7893

          k =-0.2500 0.2500-0.2500 (   395 PWs)   bands (ev):

     6.2270   8.1169   8.1341   8.1341   9.1078   9.1078  23.8449  29.9589
    32.3679  32.3679

          k =-0.3750 0.3750-0.3750 (   407 PWs)   bands (ev):

     6.3594   7.9881   7.9881   9.5456   9.5456  10.1398  19.1331  29.0205
    31.3752  31.3752

          k = 0.5000-0.5000 0.5000 (   410 PWs)   bands (ev):

     6.2861   7.9013   7.9013   9.7718   9.7718  12.1905  16.2621  28.5942
    30.8261  30.8261

          k = 0.0000 0.2500 0.0000 (   391 PWs)   bands (ev):

     5.4378   7.6798   8.1745   8.1745   8.7526   9.0847  29.5743  30.8740
    30.8740  30.9757

          k =-0.1250 0.3750-0.1250 (   394 PWs)   bands (ev):

     6.3078   7.5240   8.2246   8.3602   8.9686   9.2593  25.8142  29.5162
    29.6932  32.1615

          k =-0.2500 0.5000-0.2500 (   397 PWs)   bands (ev):

     6.6436   7.9220   8.2074   8.2882   9.6326  10.4271  20.9114  28.7345
    28.8041  30.5064

          k = 0.6250-0.3750 0.6250 (   399 PWs)   bands (ev):

     6.5516   7.7529   8.1475   8.9377   9.7924  12.9300  16.8712  27.4628
    29.0725  29.4926

          k = 0.5000-0.2500 0.5000 (   399 PWs)   bands (ev):

     6.6081   7.8084   8.1436   8.9405   9.4883  12.1578  18.0502  26.7037
    29.7087  30.6452

          k = 0.3750-0.1250 0.3750 (   398 PWs)   bands (ev):

     6.7164   7.8636   8.2023   8.2953   8.9195  10.1655  22.5378  26.7820
    31.1117  33.4249

          k = 0.2500 0.0000 0.2500 (   389 PWs)   bands (ev):

     5.9838   7.6539   8.2033   8.2485   8.7254   9.2530  27.3898  27.5545
    32.3800  33.8462

          k = 0.0000 0.5000 0.0000 (   415 PWs)   bands (ev):

     6.6449   7.1211   8.8063   8.8063   8.8760   9.3467  27.3856  27.3856
    28.4785  29.6482

          k =-0.1250 0.6250-0.1250 (   406 PWs)   bands (ev):

     6.7854   7.0463   8.5940   8.9242   9.6690  10.7441  23.2346  26.0860
    26.2398  29.7763

          k = 0.7500-0.2500 0.7500 (   404 PWs)   bands (ev):

     6.7764   7.3450   8.3896   8.7752   9.8348  13.6570  18.7791  23.9018
    26.3788  29.5304

          k = 0.6250-0.1250 0.6250 (   402 PWs)   bands (ev):

     7.0043   7.5710   8.1976   8.6492   9.5155  14.8316  17.6527  22.4558
    27.9095  29.5980

          k = 0.5000 0.0000 0.5000 (   407 PWs)   bands (ev):

     7.3346   7.5745   7.9556   8.5871   8.9886  12.1212  21.9368  22.0519
    30.2490  30.5000

          k = 0.0000 0.7500 0.0000 (   404 PWs)   bands (ev):

     6.4950   6.6125   9.5971   9.5971   9.6371  11.5417  23.0691  24.5566
    24.5566  29.7428

          k = 0.8750-0.1250 0.8750 (   409 PWs)   bands (ev):

     6.4642   6.6361   9.3720   9.4758   9.8967  14.0282  20.6413  21.6824
    24.2656  29.7311

          k = 0.7500 0.0000 0.7500 (   399 PWs)   bands (ev):

     6.7015   7.1222   8.6362   9.2000   9.7040  16.9318  17.9262  19.8040
    25.5254  29.6237

          k = 0.0000-1.0000 0.0000 (   388 PWs)   bands (ev):

     6.2657   6.4189   9.7572   9.9919   9.9919  14.2116  19.3970  23.4475
    23.4475  29.7993

          k =-0.2500 0.5000 0.0000 (   407 PWs)   bands (ev):

     7.0375   7.2836   8.0030   8.8052   8.9911  10.2467  24.6131  24.9060
    29.1185  32.5150

          k = 0.6250-0.3750 0.8750 (   406 PWs)   bands (ev):

     7.0147   7.6099   7.9342   8.7086   9.4843  12.3883  20.0291  24.4945
    26.8827  32.1531

          k = 0.5000-0.2500 0.7500 (   394 PWs)   bands (ev):

     6.9649   7.4713   8.3449   8.5372   9.7073  14.9277  16.6115  25.1282
    25.3552  31.6159

          k = 0.7500-0.2500 1.0000 (   410 PWs)   bands (ev):

     6.8413   6.8800   8.5175   9.4434   9.5880  12.8654  22.4716  22.6250
    23.6116  32.0155

          k = 0.6250-0.1250 0.8750 (   404 PWs)   bands (ev):

     6.9301   7.2260   8.1825   9.0727   9.8190  15.9919  18.4990  21.4643
    23.2676  32.3283

          k = 0.5000 0.0000 0.7500 (   405 PWs)   bands (ev):

     7.2342   7.5856   7.6551   8.9267   9.5864  15.0913  19.5833  20.6150
    24.7943  32.8148

          k =-0.2500-1.0000 0.0000 (   408 PWs)   bands (ev):

     6.5812   6.7158   9.0103   9.4256   9.9873  15.7155  19.4756  21.6754
    21.9884  31.8340

          k =-0.5000-1.0000 0.0000 (   396 PWs)   bands (ev):

     7.0186   7.6373   7.6373   8.9830   9.9950  18.6059  18.6059  19.6817
    20.8621  36.0283

     the Fermi energy is    12.4898 ev

!    total energy              =     -84.16337132 Ry
     Harris-Foulkes estimate   =     -84.16337132 Ry
     estimated scf accuracy    <          9.7E-09 Ry

     The total energy is the sum of the following terms:

     one-electron contribution =      -4.70961396 Ry
     hartree contribution      =      14.54648003 Ry
     xc contribution           =     -22.13875281 Ry
     ewald contribution        =     -71.86118026 Ry
     smearing contrib. (-TS)   =      -0.00030432 Ry

     convergence has been achieved in   5 iterations

     Forces acting on atoms (cartesian axes, Ry/au):

     atom    1 type  1   force =     0.00000000    0.00000000    0.00000000

     Total force =     0.000000     Total SCF correction =     0.000000


     Computing stress (Cartesian axis) and pressure

          total   stress  (Ry/bohr**3)                   (kbar)     P= -177.51
  -0.00120669   0.00000000   0.00000000       -177.51      0.00      0.00
   0.00000000  -0.00120669  -0.00000000          0.00   -177.51     -0.00
   0.00000000  -0.00000000  -0.00120669          0.00     -0.00   -177.51


     Writing output data file Ag.save/

     init_run     :      0.17s CPU      0.18s WALL (       1 calls)
     electrons    :      1.07s CPU      1.15s WALL (       1 calls)
     forces       :      0.03s CPU      0.03s WALL (       1 calls)
     stress       :      0.06s CPU      0.06s WALL (       1 calls)

     Called by init_run:
     wfcinit      :      0.05s CPU      0.05s WALL (       1 calls)
     potinit      :      0.01s CPU      0.01s WALL (       1 calls)
     hinit0       :      0.11s CPU      0.12s WALL (       1 calls)

     Called by electrons:
     c_bands      :      0.85s CPU      0.92s WALL (       6 calls)
     sum_band     :      0.18s CPU      0.19s WALL (       6 calls)
     v_of_rho     :      0.02s CPU      0.02s WALL (       6 calls)
     newd         :      0.02s CPU      0.02s WALL (       6 calls)
     mix_rho      :      0.00s CPU      0.00s WALL (       6 calls)

     Called by c_bands:
     init_us_2    :      0.02s CPU      0.03s WALL (     435 calls)
     cegterg      :      0.82s CPU      0.88s WALL (     174 calls)

     Called by sum_band:
     sum_band:bec :      0.00s CPU      0.00s WALL (     174 calls)
     addusdens    :      0.02s CPU      0.02s WALL (       6 calls)

     Called by *egterg:
     h_psi        :      0.63s CPU      0.69s WALL (     655 calls)
     s_psi        :      0.02s CPU      0.02s WALL (     655 calls)
     g_psi        :      0.00s CPU      0.00s WALL (     452 calls)
     cdiaghg      :      0.12s CPU      0.12s WALL (     597 calls)

     Called by h_psi:
     h_psi:pot    :      0.63s CPU      0.68s WALL (     655 calls)
     h_psi:calbec :      0.03s CPU      0.03s WALL (     655 calls)
     vloc_psi     :      0.58s CPU      0.63s WALL (     655 calls)
     add_vuspsi   :      0.02s CPU      0.02s WALL (     655 calls)

     General routines
     calbec       :      0.05s CPU      0.05s WALL (     974 calls)
     fft          :      0.01s CPU      0.01s WALL (      93 calls)
     ffts         :      0.00s CPU      0.00s WALL (       6 calls)
     fftw         :      0.65s CPU      0.70s WALL (   10840 calls)

     Parallel routines
     fft_scatt_xy :      0.07s CPU      0.07s WALL (   10939 calls)
     fft_scatt_yz :      0.16s CPU      0.17s WALL (   10939 calls)

     PWSCF        :     2.23s CPU         2.36s WALL


   This run was terminated on:   0:15:48  27Mar2024            

=------------------------------------------------------------------------------=
   JOB DONE.
=------------------------------------------------------------------------------=
