
     Program PWSCF v.6.3MaX starts on 27Mar2024 at  0:46:15 

     This program is part of the open-source Quantum ESPRESSO suite
     for quantum simulation of materials; please cite
         "P. Giannozzi et al., J. Phys.:Condens. Matter 21 395502 (2009);
         "P. Giannozzi et al., J. Phys.:Condens. Matter 29 465901 (2017);
          URL http://www.quantum-espresso.org", 
     in publications or presentations arising from this work. More details at
     http://www.quantum-espresso.org/quote

     Parallel version (MPI), running on     5 processors

     MPI processes distributed on     1 nodes
     R & G space division:  proc/nbgrp/npool/nimage =       5
     Waiting for input...
     Reading input from standard input

     Current dimensions of program PWSCF are:
     Max number of different atomic species (ntypx) = 10
     Max number of k-points (npk) =  40000
     Max angular momentum in pseudopotentials (lmaxx) =  3

     Subspace diagonalization in iterative solution of the eigenvalue problem:
     a serial algorithm will be used


     Parallelization info
     --------------------
     sticks:   dense  smooth     PW     G-vecs:    dense   smooth      PW
     Min         153     153     48                 2863     2863     488
     Max         154     154     49                 2867     2867     491
     Sum         769     769    241                14331    14331    2445



     bravais-lattice index     =            2
     lattice parameter (alat)  =       7.7200  a.u.
     unit-cell volume          =     115.0249 (a.u.)^3
     number of atoms/cell      =            1
     number of atomic types    =            1
     number of electrons       =        11.00
     number of Kohn-Sham states=           10
     kinetic-energy cutoff     =      95.0000  Ry
     charge density cutoff     =     380.0000  Ry
     convergence threshold     =      1.0E-08
     mixing beta               =       0.7000
     number of iterations used =            8  plain     mixing
     Exchange-correlation      = PBESOL ( 1  4 10  8 0 0)

     celldm(1)=   7.720000  celldm(2)=   0.000000  celldm(3)=   0.000000
     celldm(4)=   0.000000  celldm(5)=   0.000000  celldm(6)=   0.000000

     crystal axes: (cart. coord. in units of alat)
               a(1) = (  -0.500000   0.000000   0.500000 )  
               a(2) = (   0.000000   0.500000   0.500000 )  
               a(3) = (  -0.500000   0.500000   0.000000 )  

     reciprocal axes: (cart. coord. in units 2 pi/alat)
               b(1) = ( -1.000000 -1.000000  1.000000 )  
               b(2) = (  1.000000  1.000000  1.000000 )  
               b(3) = ( -1.000000  1.000000 -1.000000 )  


     PseudoPot. # 1 for Ag read from file:
     /home/lorenzo/pseudos/Ag/Ag.pbesol-n-rrkjus_psl.1.0.0.UPF
     MD5 check sum: 3b43e8aa747a56f565f44d11355b8b45
     Pseudo is Ultrasoft + core correction, Zval = 11.0
     Generated using "atomic" code by A. Dal Corso v.6.2.2
     Using radial grid of 1237 points,  6 beta functions with: 
                l(1) =   0
                l(2) =   0
                l(3) =   1
                l(4) =   1
                l(5) =   2
                l(6) =   2
     Q(r) pseudized with 0 coefficients 


     atomic species   valence    mass     pseudopotential
        Ag            11.00   107.86820     Ag( 1.00)

     48 Sym. Ops., with inversion, found



   Cartesian axes

     site n.     atom                  positions (alat units)
         1           Ag  tau(   1) = (   0.0000000   0.0000000   0.0000000  )

     number of k points=    47  gaussian smearing, width (Ry)=  0.0100
                       cart. coord. in units 2pi/alat
        k(    1) = (   0.0000000   0.0000000   0.0000000), wk =   0.0020000
        k(    2) = (  -0.1000000   0.1000000  -0.1000000), wk =   0.0160000
        k(    3) = (  -0.2000000   0.2000000  -0.2000000), wk =   0.0160000
        k(    4) = (  -0.3000000   0.3000000  -0.3000000), wk =   0.0160000
        k(    5) = (  -0.4000000   0.4000000  -0.4000000), wk =   0.0160000
        k(    6) = (   0.5000000  -0.5000000   0.5000000), wk =   0.0080000
        k(    7) = (   0.0000000   0.2000000   0.0000000), wk =   0.0120000
        k(    8) = (  -0.1000000   0.3000000  -0.1000000), wk =   0.0480000
        k(    9) = (  -0.2000000   0.4000000  -0.2000000), wk =   0.0480000
        k(   10) = (  -0.3000000   0.5000000  -0.3000000), wk =   0.0480000
        k(   11) = (   0.6000000  -0.4000000   0.6000000), wk =   0.0480000
        k(   12) = (   0.5000000  -0.3000000   0.5000000), wk =   0.0480000
        k(   13) = (   0.4000000  -0.2000000   0.4000000), wk =   0.0480000
        k(   14) = (   0.3000000  -0.1000000   0.3000000), wk =   0.0480000
        k(   15) = (   0.2000000   0.0000000   0.2000000), wk =   0.0240000
        k(   16) = (   0.0000000   0.4000000   0.0000000), wk =   0.0120000
        k(   17) = (  -0.1000000   0.5000000  -0.1000000), wk =   0.0480000
        k(   18) = (  -0.2000000   0.6000000  -0.2000000), wk =   0.0480000
        k(   19) = (   0.7000000  -0.3000000   0.7000000), wk =   0.0480000
        k(   20) = (   0.6000000  -0.2000000   0.6000000), wk =   0.0480000
        k(   21) = (   0.5000000  -0.1000000   0.5000000), wk =   0.0480000
        k(   22) = (   0.4000000   0.0000000   0.4000000), wk =   0.0240000
        k(   23) = (   0.0000000   0.6000000   0.0000000), wk =   0.0120000
        k(   24) = (  -0.1000000   0.7000000  -0.1000000), wk =   0.0480000
        k(   25) = (   0.8000000  -0.2000000   0.8000000), wk =   0.0480000
        k(   26) = (   0.7000000  -0.1000000   0.7000000), wk =   0.0480000
        k(   27) = (   0.6000000  -0.0000000   0.6000000), wk =   0.0240000
        k(   28) = (   0.0000000   0.8000000   0.0000000), wk =   0.0120000
        k(   29) = (   0.9000000  -0.1000000   0.9000000), wk =   0.0480000
        k(   30) = (   0.8000000   0.0000000   0.8000000), wk =   0.0240000
        k(   31) = (   0.0000000  -1.0000000   0.0000000), wk =   0.0060000
        k(   32) = (  -0.2000000   0.4000000   0.0000000), wk =   0.0480000
        k(   33) = (  -0.3000000   0.5000000  -0.1000000), wk =   0.0960000
        k(   34) = (   0.6000000  -0.4000000   0.8000000), wk =   0.0960000
        k(   35) = (   0.5000000  -0.3000000   0.7000000), wk =   0.0480000
        k(   36) = (  -0.2000000   0.6000000   0.0000000), wk =   0.0480000
        k(   37) = (   0.7000000  -0.3000000   0.9000000), wk =   0.0960000
        k(   38) = (   0.6000000  -0.2000000   0.8000000), wk =   0.0960000
        k(   39) = (   0.5000000  -0.1000000   0.7000000), wk =   0.0960000
        k(   40) = (   0.4000000   0.0000000   0.6000000), wk =   0.0480000
        k(   41) = (   0.8000000  -0.2000000   1.0000000), wk =   0.0480000
        k(   42) = (   0.7000000  -0.1000000   0.9000000), wk =   0.0960000
        k(   43) = (   0.6000000   0.0000000   0.8000000), wk =   0.0480000
        k(   44) = (  -0.2000000  -1.0000000   0.0000000), wk =   0.0240000
        k(   45) = (   0.6000000  -0.2000000   1.0000000), wk =   0.0480000
        k(   46) = (   0.5000000  -0.1000000   0.9000000), wk =   0.0480000
        k(   47) = (  -0.4000000  -1.0000000   0.0000000), wk =   0.0240000

     Dense  grid:    14331 G-vectors     FFT dimensions: (  36,  36,  36)

     Estimated max dynamical RAM per process >      15.35 MB

     Estimated total dynamical RAM >      76.73 MB

     Initial potential from superposition of free atoms

     starting charge   10.99964, renormalised to   11.00000
     Starting wfcs are    9 randomized atomic wfcs +    1 random wfcs

     total cpu time spent up to now is        1.4 secs

     Self-consistent Calculation

     iteration #  1     ecut=    95.00 Ry     beta= 0.70
     Davidson diagonalization with overlap
     ethr =  1.00E-02,  avg # of iterations =  4.7

     Threshold (ethr) on eigenvalues was too large:
     Diagonalizing with lowered threshold

     Davidson diagonalization with overlap
     ethr =  4.11E-05,  avg # of iterations =  2.5

     total cpu time spent up to now is        3.4 secs

     total energy              =     -84.17960546 Ry
     Harris-Foulkes estimate   =     -84.18277598 Ry
     estimated scf accuracy    <       0.00490053 Ry

     iteration #  2     ecut=    95.00 Ry     beta= 0.70
     Davidson diagonalization with overlap
     ethr =  4.46E-05,  avg # of iterations =  2.0

     total cpu time spent up to now is        4.3 secs

     total energy              =     -84.18074010 Ry
     Harris-Foulkes estimate   =     -84.18259834 Ry
     estimated scf accuracy    <       0.00346689 Ry

     iteration #  3     ecut=    95.00 Ry     beta= 0.70
     Davidson diagonalization with overlap
     ethr =  3.15E-05,  avg # of iterations =  2.0

     total cpu time spent up to now is        5.2 secs

     total energy              =     -84.18150451 Ry
     Harris-Foulkes estimate   =     -84.18150665 Ry
     estimated scf accuracy    <       0.00002450 Ry

     iteration #  4     ecut=    95.00 Ry     beta= 0.70
     Davidson diagonalization with overlap
     ethr =  2.23E-07,  avg # of iterations =  2.6

     total cpu time spent up to now is        6.0 secs

     total energy              =     -84.18151236 Ry
     Harris-Foulkes estimate   =     -84.18151234 Ry
     estimated scf accuracy    <       0.00000045 Ry

     iteration #  5     ecut=    95.00 Ry     beta= 0.70
     Davidson diagonalization with overlap
     ethr =  4.08E-09,  avg # of iterations =  2.1

     total cpu time spent up to now is        6.9 secs

     total energy              =     -84.18151246 Ry
     Harris-Foulkes estimate   =     -84.18151248 Ry
     estimated scf accuracy    <       0.00000004 Ry

     iteration #  6     ecut=    95.00 Ry     beta= 0.70
     Davidson diagonalization with overlap
     ethr =  3.68E-10,  avg # of iterations =  2.0

     total cpu time spent up to now is        7.8 secs

     End of self-consistent calculation

          k = 0.0000 0.0000 0.0000 (  1807 PWs)   bands (ev):

     4.8081   7.9262   7.9262   7.9262   8.9769   8.9769  29.5448  32.8325
    32.8325  32.8325

          k =-0.1000 0.1000-0.1000 (  1817 PWs)   bands (ev):

     5.1155   7.8603   8.0088   8.0088   8.9494   8.9494  29.1921  30.7441
    32.8107  32.8107

          k =-0.2000 0.2000-0.2000 (  1805 PWs)   bands (ev):

     5.8869   7.8547   8.1335   8.1335   8.9869   8.9869  25.8244  30.2138
    32.6137  32.6137

          k =-0.3000 0.3000-0.3000 (  1823 PWs)   bands (ev):

     6.3756   8.0823   8.0823   8.7287   9.2776   9.2776  21.8895  29.5782
    32.0032  32.0032

          k =-0.4000 0.4000-0.4000 (  1802 PWs)   bands (ev):

     6.3399   7.9582   7.9582   9.6310   9.6310  10.6775  18.3005  28.8685
    31.1966  31.1966

          k = 0.5000-0.5000 0.5000 (  1802 PWs)   bands (ev):

     6.2863   7.9035   7.9035   9.7827   9.7827  12.1930  16.2602  28.5908
    30.8332  30.8332

          k = 0.0000 0.2000 0.0000 (  1820 PWs)   bands (ev):

     5.2187   7.7645   8.0794   8.0794   8.8211   9.0475  29.5590  31.4347
    31.4936  31.4936

          k =-0.1000 0.3000-0.1000 (  1811 PWs)   bands (ev):

     5.8572   7.6184   8.2236   8.2436   8.7814   9.1356  27.3470  29.9422
    30.4529  32.7099

          k =-0.2000 0.4000-0.2000 (  1816 PWs)   bands (ev):

     6.5123   7.8465   8.1012   8.2696   9.3587   9.3803  23.3788  29.4668
    29.6921  32.2320

          k =-0.3000 0.5000-0.3000 (  1805 PWs)   bands (ev):

     6.5401   7.8989   8.1573   8.6599   9.6856  10.7848  19.5978  28.7090
    29.3232  30.6117

          k = 0.6000-0.4000 0.6000 (  1801 PWs)   bands (ev):

     6.4629   7.7991   8.0592   9.1779   9.7931  12.7346  16.6423  27.9924
    29.5934  29.6574

          k = 0.5000-0.3000 0.5000 (  1805 PWs)   bands (ev):

     6.4933   7.8357   8.0570   9.1993   9.5924  12.1700  17.4548  27.5476
    29.6527  30.6999

          k = 0.4000-0.2000 0.4000 (  1806 PWs)   bands (ev):

     6.5973   7.9593   8.1603   8.5993   9.1734  10.4205  20.8323  27.5565
    30.5003  32.6376

          k = 0.3000-0.1000 0.3000 (  1818 PWs)   bands (ev):

     6.3810   7.7185   8.1928   8.2711   8.7865   9.4956  24.7129  27.9489
    31.9028  34.0677

          k = 0.2000 0.0000 0.2000 (  1819 PWs)   bands (ev):

     5.5959   7.7266   8.1317   8.1539   8.7928   9.0912  28.4921  28.6645
    32.0181  34.2579

          k = 0.0000 0.4000 0.0000 (  1808 PWs)   bands (ev):

     6.2471   7.3597   8.5137   8.5137   8.6151   9.2353  28.7785  28.7785
    29.6037  29.6753

          k =-0.1000 0.5000-0.1000 (  1799 PWs)   bands (ev):

     6.7498   7.2122   8.3407   8.6793   9.4361   9.4514  25.1965  27.6370
    28.6492  30.1626

          k =-0.2000 0.6000-0.2000 (  1798 PWs)   bands (ev):

     6.7981   7.4794   8.2013   8.6135   9.7288  11.1268  21.3239  26.9048
    27.1381  29.7264

          k = 0.7000-0.3000 0.7000 (  1791 PWs)   bands (ev):

     6.7728   7.5793   8.3752   8.4897   9.8216  13.4283  17.8728  25.3511
    27.4359  29.4456

          k = 0.6000-0.2000 0.6000 (  1802 PWs)   bands (ev):

     6.8705   7.5985   8.4198   8.4839   9.5949  14.2331  17.0399  24.2885
    28.6027  29.5195

          k = 0.5000-0.1000 0.5000 (  1800 PWs)   bands (ev):

     7.0685   7.6957   8.1949   8.4498   9.1408  12.1325  20.2630  23.8564
    30.1205  30.5266

          k = 0.4000 0.0000 0.4000 (  1797 PWs)   bands (ev):

     7.1026   7.5028   8.0802   8.5626   8.6650  10.5305  23.8946  24.1901
    31.2701  32.9233

          k = 0.0000 0.6000 0.0000 (  1796 PWs)   bands (ev):

     6.7096   6.8919   9.1349   9.1349   9.4741   9.6802  26.1112  26.1112
    26.4691  29.6693

          k =-0.1000 0.7000-0.1000 (  1797 PWs)   bands (ev):

     6.6621   6.8097   9.0310   9.2023   9.7368  11.4136  23.2472  24.3389
    25.3137  29.7332

          k = 0.8000-0.2000 0.8000 (  1792 PWs)   bands (ev):

     6.6708   7.0308   8.7206   9.0751   9.8623  13.8309  19.8118  22.5539
    25.4237  29.6042

          k = 0.7000-0.1000 0.7000 (  1800 PWs)   bands (ev):

     6.8487   7.3839   8.3260   8.9288   9.6595  16.4532  17.0570  21.2197
    26.4740  29.5629

          k = 0.6000-0.0000 0.6000 (  1792 PWs)   bands (ev):

     7.1442   7.7714   7.8517   8.7551   9.3083  14.2128  19.8023  20.7537
    28.2830  29.7343

          k = 0.0000 0.8000 0.0000 (  1772 PWs)   bands (ev):

     6.4146   6.5362   9.6731   9.7332   9.7332  12.2423  22.0033  24.1741
    24.1741  29.7275

          k = 0.9000-0.1000 0.9000 (  1781 PWs)   bands (ev):

     6.3961   6.5484   9.5768   9.5852   9.9215  14.0880  20.2478  22.1673
    23.9841  29.7408

          k = 0.8000 0.0000 0.8000 (  1780 PWs)   bands (ev):

     6.5675   6.8767   8.9760   9.3655   9.8083  16.1058  19.1224  19.8032
    24.8177  29.6508

          k = 0.0000-1.0000 0.0000 (  1772 PWs)   bands (ev):

     6.2540   6.4051   9.7505   9.9930   9.9930  14.2156  19.3825  23.4527
    23.4527  29.7507

          k =-0.2000 0.4000 0.0000 (  1802 PWs)   bands (ev):

     6.5288   7.4285   8.1633   8.5150   8.8219   9.5194  26.2969  26.5731
    31.0985  31.9762

          k =-0.3000 0.5000-0.1000 (  1804 PWs)   bands (ev):

     6.9213   7.6767   7.9167   8.5588   9.1918  10.5610  22.4777  25.9136
    29.2616  32.2566

          k = 0.6000-0.4000 0.8000 (  1795 PWs)   bands (ev):

     6.8116   7.6898   8.2550   8.5073   9.5916  12.3811  18.8313  25.8869
    27.6596  31.3744

          k = 0.5000-0.3000 0.7000 (  1792 PWs)   bands (ev):

     6.7567   7.6014   8.3267   8.6514   9.7232  14.1546  16.4548  26.4284
    26.5419  30.9736

          k =-0.2000 0.6000 0.0000 (  1795 PWs)   bands (ev):

     6.9702   7.0314   8.3102   9.1277   9.3273  10.7248  24.2897  24.5037
    26.7119  31.5312

          k = 0.7000-0.3000 0.9000 (  1805 PWs)   bands (ev):

     6.9202   7.2573   8.1580   9.0318   9.6444  12.7098  20.7022  24.1796
    24.8752  31.6156

          k = 0.6000-0.2000 0.8000 (  1799 PWs)   bands (ev):

     6.9937   7.3984   8.1287   8.8119   9.7428  15.2392  17.4580  23.3240
    24.7943  31.5557

          k = 0.5000-0.1000 0.7000 (  1791 PWs)   bands (ev):

     7.2178   7.4350   7.9661   8.7698   9.5347  14.4513  18.5737  22.3903
    25.9496  32.0221

          k = 0.4000 0.0000 0.6000 (  1800 PWs)   bands (ev):

     7.4086   7.5214   7.6275   8.8983   9.1419  12.2499  22.0645  22.1409
    27.5093  33.0698

          k = 0.8000-0.2000 1.0000 (  1792 PWs)   bands (ev):

     6.6406   6.7212   8.9323   9.5733   9.7296  13.1704  22.0645  22.8620
    23.0276  31.2493

          k = 0.7000-0.1000 0.9000 (  1795 PWs)   bands (ev):

     6.7291   6.9700   8.6018   9.2710   9.8779  15.5856  19.5948  20.7726
    23.2918  31.5025

          k = 0.6000 0.0000 0.8000 (  1793 PWs)   bands (ev):

     6.9665   7.3765   8.0977   9.0046   9.7257  16.8610  18.0754  20.0531
    24.4053  31.7203

          k =-0.2000-1.0000 0.0000 (  1790 PWs)   bands (ev):

     6.4699   6.6058   9.3049   9.5351   9.9933  15.2443  19.4380  22.2247
    22.3751  31.1639

          k = 0.6000-0.2000 1.0000 (  1799 PWs)   bands (ev):

     7.1149   7.2631   7.9228   9.1112   9.7220  14.8789  20.4753  20.9973
    23.1667  34.3690

          k = 0.5000-0.1000 0.9000 (  1792 PWs)   bands (ev):

     7.1026   7.4998   7.7483   8.9648   9.8653  17.4488  17.6308  21.2772
    22.1486  34.2874

          k =-0.4000-1.0000 0.0000 (  1786 PWs)   bands (ev):

     6.9175   7.2007   8.1521   9.0834   9.9939  17.3855  19.6223  19.8597
    21.0728  34.1871

     the Fermi energy is    12.5969 ev

!    total energy              =     -84.18151247 Ry
     Harris-Foulkes estimate   =     -84.18151247 Ry
     estimated scf accuracy    <          3.5E-10 Ry

     The total energy is the sum of the following terms:

     one-electron contribution =      -4.74204853 Ry
     hartree contribution      =      14.56374244 Ry
     xc contribution           =     -22.14181938 Ry
     ewald contribution        =     -71.86118018 Ry
     smearing contrib. (-TS)   =      -0.00020681 Ry

     convergence has been achieved in   6 iterations

     Forces acting on atoms (cartesian axes, Ry/au):

     atom    1 type  1   force =     0.00000000    0.00000000    0.00000000

     Total force =     0.000000     Total SCF correction =     0.000000


     Computing stress (Cartesian axis) and pressure

          total   stress  (Ry/bohr**3)                   (kbar)     P=  -18.36
  -0.00012484  -0.00000000  -0.00000000        -18.36     -0.00     -0.00
  -0.00000000  -0.00012484   0.00000000         -0.00    -18.36      0.00
  -0.00000000   0.00000000  -0.00012484         -0.00      0.00    -18.36


     Writing output data file Ag.save/

     init_run     :      0.53s CPU      0.55s WALL (       1 calls)
     electrons    :      6.03s CPU      6.40s WALL (       1 calls)
     forces       :      0.09s CPU      0.09s WALL (       1 calls)
     stress       :      0.33s CPU      0.33s WALL (       1 calls)

     Called by init_run:
     wfcinit      :      0.29s CPU      0.31s WALL (       1 calls)
     potinit      :      0.02s CPU      0.02s WALL (       1 calls)
     hinit0       :      0.20s CPU      0.20s WALL (       1 calls)

     Called by electrons:
     c_bands      :      4.79s CPU      5.11s WALL (       7 calls)
     sum_band     :      1.08s CPU      1.13s WALL (       7 calls)
     v_of_rho     :      0.07s CPU      0.07s WALL (       7 calls)
     newd         :      0.10s CPU      0.10s WALL (       7 calls)
     mix_rho      :      0.01s CPU      0.01s WALL (       7 calls)

     Called by c_bands:
     init_us_2    :      0.16s CPU      0.17s WALL (     799 calls)
     cegterg      :      4.58s CPU      4.89s WALL (     329 calls)

     Called by sum_band:
     sum_band:bec :      0.00s CPU      0.00s WALL (     329 calls)
     addusdens    :      0.09s CPU      0.10s WALL (       7 calls)

     Called by *egterg:
     h_psi        :      3.90s CPU      4.18s WALL (    1217 calls)
     s_psi        :      0.11s CPU      0.12s WALL (    1217 calls)
     g_psi        :      0.01s CPU      0.01s WALL (     841 calls)
     cdiaghg      :      0.24s CPU      0.25s WALL (    1123 calls)

     Called by h_psi:
     h_psi:pot    :      3.88s CPU      4.17s WALL (    1217 calls)
     h_psi:calbec :      0.18s CPU      0.19s WALL (    1217 calls)
     vloc_psi     :      3.57s CPU      3.84s WALL (    1217 calls)
     add_vuspsi   :      0.12s CPU      0.12s WALL (    1217 calls)

     General routines
     calbec       :      0.32s CPU      0.34s WALL (    1781 calls)
     fft          :      0.05s CPU      0.05s WALL (     104 calls)
     ffts         :      0.00s CPU      0.00s WALL (       7 calls)
     fftw         :      4.09s CPU      4.38s WALL (   20238 calls)

     Parallel routines
     fft_scatt_xy :      0.32s CPU      0.35s WALL (   20349 calls)
     fft_scatt_yz :      1.13s CPU      1.22s WALL (   20349 calls)

     PWSCF        :     7.84s CPU         8.33s WALL


   This run was terminated on:   0:46:24  27Mar2024            

=------------------------------------------------------------------------------=
   JOB DONE.
=------------------------------------------------------------------------------=
