
     Program PWSCF v.6.3MaX starts on 27Mar2024 at  0:23:27 

     This program is part of the open-source Quantum ESPRESSO suite
     for quantum simulation of materials; please cite
         "P. Giannozzi et al., J. Phys.:Condens. Matter 21 395502 (2009);
         "P. Giannozzi et al., J. Phys.:Condens. Matter 29 465901 (2017);
          URL http://www.quantum-espresso.org", 
     in publications or presentations arising from this work. More details at
     http://www.quantum-espresso.org/quote

     Parallel version (MPI), running on     5 processors

     MPI processes distributed on     1 nodes
     R & G space division:  proc/nbgrp/npool/nimage =       5
     Waiting for input...
     Reading input from standard input

     Current dimensions of program PWSCF are:
     Max number of different atomic species (ntypx) = 10
     Max number of k-points (npk) =  40000
     Max angular momentum in pseudopotentials (lmaxx) =  3
               file Ag.pbe-n-kjpaw_psl.1.0.0.UPF: wavefunction(s)  5S 5P renormalized

     Subspace diagonalization in iterative solution of the eigenvalue problem:
     a serial algorithm will be used


     Parallelization info
     --------------------
     sticks:   dense  smooth     PW     G-vecs:    dense   smooth      PW
     Min          90      90     27                 1274     1274     213
     Max          91      91     28                 1276     1276     214
     Sum         451     451    139                 6375     6375    1067



     bravais-lattice index     =            2
     lattice parameter (alat)  =       7.7200  a.u.
     unit-cell volume          =     115.0249 (a.u.)^3
     number of atoms/cell      =            1
     number of atomic types    =            1
     number of electrons       =        11.00
     number of Kohn-Sham states=           10
     kinetic-energy cutoff     =      55.0000  Ry
     charge density cutoff     =     220.0000  Ry
     convergence threshold     =      1.0E-08
     mixing beta               =       0.7000
     number of iterations used =            8  plain     mixing
     Exchange-correlation      = SLA PW PBX PBC ( 1  4  3  4 0 0)

     celldm(1)=   7.720000  celldm(2)=   0.000000  celldm(3)=   0.000000
     celldm(4)=   0.000000  celldm(5)=   0.000000  celldm(6)=   0.000000

     crystal axes: (cart. coord. in units of alat)
               a(1) = (  -0.500000   0.000000   0.500000 )  
               a(2) = (   0.000000   0.500000   0.500000 )  
               a(3) = (  -0.500000   0.500000   0.000000 )  

     reciprocal axes: (cart. coord. in units 2 pi/alat)
               b(1) = ( -1.000000 -1.000000  1.000000 )  
               b(2) = (  1.000000  1.000000  1.000000 )  
               b(3) = ( -1.000000  1.000000 -1.000000 )  


     PseudoPot. # 1 for Ag read from file:
     /home/lorenzo/pseudos/Ag/Ag.pbe-n-kjpaw_psl.1.0.0.UPF
     MD5 check sum: 51099775af2a3182a6a1caffb86952a3
     Pseudo is Projector augmented-wave + core cor, Zval = 11.0
     Generated using "atomic" code by A. Dal Corso v.6.2.2
     Shape of augmentation charge: PSQ
     Using radial grid of 1237 points,  6 beta functions with: 
                l(1) =   0
                l(2) =   0
                l(3) =   1
                l(4) =   1
                l(5) =   2
                l(6) =   2
     Q(r) pseudized with 0 coefficients 


     atomic species   valence    mass     pseudopotential
        Ag            11.00   107.86820     Ag( 1.00)

     48 Sym. Ops., with inversion, found



   Cartesian axes

     site n.     atom                  positions (alat units)
         1           Ag  tau(   1) = (   0.0000000   0.0000000   0.0000000  )

     number of k points=     3  gaussian smearing, width (Ry)=  0.0100
                       cart. coord. in units 2pi/alat
        k(    1) = (   0.0000000   0.0000000   0.0000000), wk =   0.2500000
        k(    2) = (   0.5000000  -0.5000000   0.5000000), wk =   1.0000000
        k(    3) = (   0.0000000  -1.0000000   0.0000000), wk =   0.7500000

     Dense  grid:     6375 G-vectors     FFT dimensions: (  25,  25,  25)

     Estimated max dynamical RAM per process >       6.26 MB

     Estimated total dynamical RAM >      31.31 MB

     Initial potential from superposition of free atoms

     starting charge   10.99960, renormalised to   11.00000
     Starting wfcs are    9 randomized atomic wfcs +    1 random wfcs
     Checking if some PAW data can be deallocated... 

     total cpu time spent up to now is        1.1 secs

     Self-consistent Calculation

     iteration #  1     ecut=    55.00 Ry     beta= 0.70
     Davidson diagonalization with overlap
     ethr =  1.00E-02,  avg # of iterations =  6.3

     Threshold (ethr) on eigenvalues was too large:
     Diagonalizing with lowered threshold

     Davidson diagonalization with overlap
     ethr =  2.11E-05,  avg # of iterations =  5.0

     total cpu time spent up to now is        1.3 secs

     total energy              =    -355.15726284 Ry
     Harris-Foulkes estimate   =    -355.15713762 Ry
     estimated scf accuracy    <       0.00212720 Ry

     iteration #  2     ecut=    55.00 Ry     beta= 0.70
     Davidson diagonalization with overlap
     ethr =  1.93E-05,  avg # of iterations =  2.0

     total cpu time spent up to now is        1.5 secs

     total energy              =    -355.15746320 Ry
     Harris-Foulkes estimate   =    -355.15757314 Ry
     estimated scf accuracy    <       0.00029177 Ry

     iteration #  3     ecut=    55.00 Ry     beta= 0.70
     Davidson diagonalization with overlap
     ethr =  2.65E-06,  avg # of iterations =  2.0

     total cpu time spent up to now is        1.6 secs

     total energy              =    -355.15754181 Ry
     Harris-Foulkes estimate   =    -355.15755837 Ry
     estimated scf accuracy    <       0.00007129 Ry

     iteration #  4     ecut=    55.00 Ry     beta= 0.70
     Davidson diagonalization with overlap
     ethr =  6.48E-07,  avg # of iterations =  1.7

     total cpu time spent up to now is        1.8 secs

     total energy              =    -355.15755070 Ry
     Harris-Foulkes estimate   =    -355.15755074 Ry
     estimated scf accuracy    <       0.00000015 Ry

     iteration #  5     ecut=    55.00 Ry     beta= 0.70
     Davidson diagonalization with overlap
     ethr =  1.32E-09,  avg # of iterations =  3.7

     total cpu time spent up to now is        1.9 secs

     total energy              =    -355.15755104 Ry
     Harris-Foulkes estimate   =    -355.15755105 Ry
     estimated scf accuracy    <       0.00000006 Ry

     iteration #  6     ecut=    55.00 Ry     beta= 0.70
     Davidson diagonalization with overlap
     ethr =  5.39E-10,  avg # of iterations =  1.0

     total cpu time spent up to now is        2.1 secs

     total energy              =    -355.15755103 Ry
     Harris-Foulkes estimate   =    -355.15755104 Ry
     estimated scf accuracy    <       0.00000002 Ry

     iteration #  7     ecut=    55.00 Ry     beta= 0.70
     Davidson diagonalization with overlap
     ethr =  2.02E-10,  avg # of iterations =  2.0

     total cpu time spent up to now is        2.2 secs

     End of self-consistent calculation

          k = 0.0000 0.0000 0.0000 (   821 PWs)   bands (ev):

     5.0746   8.3580   8.3580   8.3580   9.4450   9.4450  29.7692  33.1053
    33.1053  33.1053

          k = 0.5000-0.5000 0.5000 (   796 PWs)   bands (ev):

     6.6626   8.3428   8.3428  10.2518  10.2518  12.4481  16.6341  28.7915
    31.1557  31.1557

          k = 0.0000-1.0000 0.0000 (   790 PWs)   bands (ev):

     6.6457   6.8050  10.2312  10.4579  10.4579  14.4935  19.7383  23.7495
    23.7495  30.0948

     the Fermi energy is    12.5130 ev

!    total energy              =    -355.15755103 Ry
     Harris-Foulkes estimate   =    -355.15755103 Ry
     estimated scf accuracy    <          1.4E-10 Ry

     total all-electron energy =    -10632.123605 Ry

     The total energy is the sum of the following terms:

     one-electron contribution =       1.59076605 Ry
     hartree contribution      =      14.89135096 Ry
     xc contribution           =     -22.42098642 Ry
     ewald contribution        =     -71.86118025 Ry
     one-center paw contrib.   =    -277.35525435 Ry
     smearing contrib. (-TS)   =      -0.00224702 Ry

     convergence has been achieved in   7 iterations

     Forces acting on atoms (cartesian axes, Ry/au):

     atom    1 type  1   force =     0.00000000    0.00000000    0.00000000

     Total force =     0.000000     Total SCF correction =     0.000000


     Computing stress (Cartesian axis) and pressure

          total   stress  (Ry/bohr**3)                   (kbar)     P=  267.09
   0.00181564   0.00000000  -0.00000000        267.09      0.00     -0.00
   0.00000000   0.00181564   0.00000000          0.00    267.09      0.00
  -0.00000000   0.00000000   0.00181564         -0.00      0.00    267.09


     Writing output data file Ag.save/

     init_run     :      0.29s CPU      0.31s WALL (       1 calls)
     electrons    :      1.01s CPU      1.10s WALL (       1 calls)
     forces       :      0.02s CPU      0.02s WALL (       1 calls)
     stress       :      0.08s CPU      0.08s WALL (       1 calls)

     Called by init_run:
     wfcinit      :      0.01s CPU      0.01s WALL (       1 calls)
     potinit      :      0.11s CPU      0.13s WALL (       1 calls)
     hinit0       :      0.15s CPU      0.15s WALL (       1 calls)

     Called by electrons:
     c_bands      :      0.17s CPU      0.17s WALL (       8 calls)
     sum_band     :      0.09s CPU      0.09s WALL (       8 calls)
     v_of_rho     :      0.03s CPU      0.03s WALL (       8 calls)
     newd         :      0.05s CPU      0.06s WALL (       8 calls)
     PAW_pot      :      0.78s CPU      0.87s WALL (       8 calls)
     mix_rho      :      0.00s CPU      0.00s WALL (       8 calls)

     Called by c_bands:
     init_us_2    :      0.01s CPU      0.01s WALL (      57 calls)
     cegterg      :      0.16s CPU      0.16s WALL (      24 calls)

     Called by sum_band:
     sum_band:bec :      0.00s CPU      0.00s WALL (      24 calls)
     addusdens    :      0.05s CPU      0.05s WALL (       8 calls)

     Called by *egterg:
     h_psi        :      0.12s CPU      0.12s WALL (      98 calls)
     s_psi        :      0.00s CPU      0.00s WALL (      98 calls)
     g_psi        :      0.00s CPU      0.00s WALL (      71 calls)
     cdiaghg      :      0.02s CPU      0.02s WALL (      92 calls)

     Called by h_psi:
     h_psi:pot    :      0.12s CPU      0.12s WALL (      98 calls)
     h_psi:calbec :      0.01s CPU      0.01s WALL (      98 calls)
     vloc_psi     :      0.11s CPU      0.11s WALL (      98 calls)
     add_vuspsi   :      0.00s CPU      0.00s WALL (      98 calls)

     General routines
     calbec       :      0.02s CPU      0.02s WALL (     137 calls)
     fft          :      0.02s CPU      0.02s WALL (     115 calls)
     ffts         :      0.00s CPU      0.00s WALL (       8 calls)
     fftw         :      0.12s CPU      0.13s WALL (    1506 calls)

     Parallel routines
     fft_scatt_xy :      0.01s CPU      0.01s WALL (    1629 calls)
     fft_scatt_yz :      0.04s CPU      0.04s WALL (    1629 calls)

     PWSCF        :     2.21s CPU         2.36s WALL


   This run was terminated on:   0:23:29  27Mar2024            

=------------------------------------------------------------------------------=
   JOB DONE.
=------------------------------------------------------------------------------=
