
     Program PWSCF v.6.3MaX starts on 27Mar2024 at  0:20:34 

     This program is part of the open-source Quantum ESPRESSO suite
     for quantum simulation of materials; please cite
         "P. Giannozzi et al., J. Phys.:Condens. Matter 21 395502 (2009);
         "P. Giannozzi et al., J. Phys.:Condens. Matter 29 465901 (2017);
          URL http://www.quantum-espresso.org", 
     in publications or presentations arising from this work. More details at
     http://www.quantum-espresso.org/quote

     Parallel version (MPI), running on     5 processors

     MPI processes distributed on     1 nodes
     R & G space division:  proc/nbgrp/npool/nimage =       5
     Waiting for input...
     Reading input from standard input

     Current dimensions of program PWSCF are:
     Max number of different atomic species (ntypx) = 10
     Max number of k-points (npk) =  40000
     Max angular momentum in pseudopotentials (lmaxx) =  3
               file Ag.pbe-n-kjpaw_psl.1.0.0.UPF: wavefunction(s)  5S 5P renormalized

     Subspace diagonalization in iterative solution of the eigenvalue problem:
     a serial algorithm will be used


     Parallelization info
     --------------------
     sticks:   dense  smooth     PW     G-vecs:    dense   smooth      PW
     Min          84      84     27                 1115     1115     207
     Max          85      85     28                 1117     1117     208
     Sum         421     421    139                 5577     5577    1037



     bravais-lattice index     =            2
     lattice parameter (alat)  =       7.7200  a.u.
     unit-cell volume          =     115.0249 (a.u.)^3
     number of atoms/cell      =            1
     number of atomic types    =            1
     number of electrons       =        11.00
     number of Kohn-Sham states=           10
     kinetic-energy cutoff     =      50.0000  Ry
     charge density cutoff     =     200.0000  Ry
     convergence threshold     =      1.0E-08
     mixing beta               =       0.7000
     number of iterations used =            8  plain     mixing
     Exchange-correlation      = SLA PW PBX PBC ( 1  4  3  4 0 0)

     celldm(1)=   7.720000  celldm(2)=   0.000000  celldm(3)=   0.000000
     celldm(4)=   0.000000  celldm(5)=   0.000000  celldm(6)=   0.000000

     crystal axes: (cart. coord. in units of alat)
               a(1) = (  -0.500000   0.000000   0.500000 )  
               a(2) = (   0.000000   0.500000   0.500000 )  
               a(3) = (  -0.500000   0.500000   0.000000 )  

     reciprocal axes: (cart. coord. in units 2 pi/alat)
               b(1) = ( -1.000000 -1.000000  1.000000 )  
               b(2) = (  1.000000  1.000000  1.000000 )  
               b(3) = ( -1.000000  1.000000 -1.000000 )  


     PseudoPot. # 1 for Ag read from file:
     /home/lorenzo/pseudos/Ag/Ag.pbe-n-kjpaw_psl.1.0.0.UPF
     MD5 check sum: 51099775af2a3182a6a1caffb86952a3
     Pseudo is Projector augmented-wave + core cor, Zval = 11.0
     Generated using "atomic" code by A. Dal Corso v.6.2.2
     Shape of augmentation charge: PSQ
     Using radial grid of 1237 points,  6 beta functions with: 
                l(1) =   0
                l(2) =   0
                l(3) =   1
                l(4) =   1
                l(5) =   2
                l(6) =   2
     Q(r) pseudized with 0 coefficients 


     atomic species   valence    mass     pseudopotential
        Ag            11.00   107.86820     Ag( 1.00)

     48 Sym. Ops., with inversion, found



   Cartesian axes

     site n.     atom                  positions (alat units)
         1           Ag  tau(   1) = (   0.0000000   0.0000000   0.0000000  )

     number of k points=    56  gaussian smearing, width (Ry)=  0.0100
                       cart. coord. in units 2pi/alat
        k(    1) = (   0.0000000   0.0000000   0.0000000), wk =   0.0015026
        k(    2) = (  -0.0909091   0.0909091  -0.0909091), wk =   0.0120210
        k(    3) = (  -0.1818182   0.1818182  -0.1818182), wk =   0.0120210
        k(    4) = (  -0.2727273   0.2727273  -0.2727273), wk =   0.0120210
        k(    5) = (  -0.3636364   0.3636364  -0.3636364), wk =   0.0120210
        k(    6) = (  -0.4545455   0.4545455  -0.4545455), wk =   0.0120210
        k(    7) = (   0.0000000   0.1818182   0.0000000), wk =   0.0090158
        k(    8) = (  -0.0909091   0.2727273  -0.0909091), wk =   0.0360631
        k(    9) = (  -0.1818182   0.3636364  -0.1818182), wk =   0.0360631
        k(   10) = (  -0.2727273   0.4545455  -0.2727273), wk =   0.0360631
        k(   11) = (  -0.3636364   0.5454545  -0.3636364), wk =   0.0360631
        k(   12) = (   0.5454545  -0.3636364   0.5454545), wk =   0.0360631
        k(   13) = (   0.4545455  -0.2727273   0.4545455), wk =   0.0360631
        k(   14) = (   0.3636364  -0.1818182   0.3636364), wk =   0.0360631
        k(   15) = (   0.2727273  -0.0909091   0.2727273), wk =   0.0360631
        k(   16) = (   0.1818182  -0.0000000   0.1818182), wk =   0.0180316
        k(   17) = (   0.0000000   0.3636364   0.0000000), wk =   0.0090158
        k(   18) = (  -0.0909091   0.4545455  -0.0909091), wk =   0.0360631
        k(   19) = (  -0.1818182   0.5454545  -0.1818182), wk =   0.0360631
        k(   20) = (  -0.2727273   0.6363636  -0.2727273), wk =   0.0360631
        k(   21) = (   0.6363636  -0.2727273   0.6363636), wk =   0.0360631
        k(   22) = (   0.5454545  -0.1818182   0.5454545), wk =   0.0360631
        k(   23) = (   0.4545455  -0.0909091   0.4545455), wk =   0.0360631
        k(   24) = (   0.3636364   0.0000000   0.3636364), wk =   0.0180316
        k(   25) = (   0.0000000   0.5454545   0.0000000), wk =   0.0090158
        k(   26) = (  -0.0909091   0.6363636  -0.0909091), wk =   0.0360631
        k(   27) = (  -0.1818182   0.7272727  -0.1818182), wk =   0.0360631
        k(   28) = (   0.7272727  -0.1818182   0.7272727), wk =   0.0360631
        k(   29) = (   0.6363636  -0.0909091   0.6363636), wk =   0.0360631
        k(   30) = (   0.5454545   0.0000000   0.5454545), wk =   0.0180316
        k(   31) = (   0.0000000   0.7272727   0.0000000), wk =   0.0090158
        k(   32) = (  -0.0909091   0.8181818  -0.0909091), wk =   0.0360631
        k(   33) = (   0.8181818  -0.0909091   0.8181818), wk =   0.0360631
        k(   34) = (   0.7272727   0.0000000   0.7272727), wk =   0.0180316
        k(   35) = (   0.0000000   0.9090909   0.0000000), wk =   0.0090158
        k(   36) = (   0.9090909  -0.0000000   0.9090909), wk =   0.0180316
        k(   37) = (  -0.1818182   0.3636364   0.0000000), wk =   0.0360631
        k(   38) = (  -0.2727273   0.4545455  -0.0909091), wk =   0.0721262
        k(   39) = (  -0.3636364   0.5454545  -0.1818182), wk =   0.0721262
        k(   40) = (   0.5454545  -0.3636364   0.7272727), wk =   0.0721262
        k(   41) = (  -0.1818182   0.5454545   0.0000000), wk =   0.0360631
        k(   42) = (  -0.2727273   0.6363636  -0.0909091), wk =   0.0721262
        k(   43) = (   0.6363636  -0.2727273   0.8181818), wk =   0.0721262
        k(   44) = (   0.5454545  -0.1818182   0.7272727), wk =   0.0721262
        k(   45) = (   0.4545455  -0.0909091   0.6363636), wk =   0.0721262
        k(   46) = (   0.3636364   0.0000000   0.5454545), wk =   0.0360631
        k(   47) = (  -0.1818182   0.7272727   0.0000000), wk =   0.0360631
        k(   48) = (   0.7272727  -0.1818182   0.9090909), wk =   0.0721262
        k(   49) = (   0.6363636  -0.0909091   0.8181818), wk =   0.0721262
        k(   50) = (   0.5454545   0.0000000   0.7272727), wk =   0.0360631
        k(   51) = (   0.8181818  -0.0909091   1.0000000), wk =   0.0360631
        k(   52) = (   0.7272727   0.0000000   0.9090909), wk =   0.0360631
        k(   53) = (   0.6363636  -0.2727273   1.0000000), wk =   0.0360631
        k(   54) = (   0.5454545  -0.1818182   0.9090909), wk =   0.0721262
        k(   55) = (   0.6363636  -0.0909091   1.0000000), wk =   0.0360631
        k(   56) = (   0.5454545   0.0000000   0.9090909), wk =   0.0360631

     Dense  grid:     5577 G-vectors     FFT dimensions: (  25,  25,  25)

     Estimated max dynamical RAM per process >       6.73 MB

     Estimated total dynamical RAM >      33.64 MB

     Initial potential from superposition of free atoms

     starting charge   10.99960, renormalised to   11.00000
     Starting wfcs are    9 randomized atomic wfcs +    1 random wfcs
     Checking if some PAW data can be deallocated... 

     total cpu time spent up to now is        1.2 secs

     Self-consistent Calculation

     iteration #  1     ecut=    50.00 Ry     beta= 0.70
     Davidson diagonalization with overlap
     ethr =  1.00E-02,  avg # of iterations =  4.6

     Threshold (ethr) on eigenvalues was too large:
     Diagonalizing with lowered threshold

     Davidson diagonalization with overlap
     ethr =  2.98E-05,  avg # of iterations =  2.5

     total cpu time spent up to now is        2.3 secs

     total energy              =    -355.30041782 Ry
     Harris-Foulkes estimate   =    -355.30242295 Ry
     estimated scf accuracy    <       0.00359775 Ry

     iteration #  2     ecut=    50.00 Ry     beta= 0.70
     Davidson diagonalization with overlap
     ethr =  3.27E-05,  avg # of iterations =  2.0

     total cpu time spent up to now is        2.8 secs

     total energy              =    -355.30141160 Ry
     Harris-Foulkes estimate   =    -355.30263587 Ry
     estimated scf accuracy    <       0.00260166 Ry

     iteration #  3     ecut=    50.00 Ry     beta= 0.70
     Davidson diagonalization with overlap
     ethr =  2.37E-05,  avg # of iterations =  1.7

     total cpu time spent up to now is        3.3 secs

     total energy              =    -355.30192729 Ry
     Harris-Foulkes estimate   =    -355.30190430 Ry
     estimated scf accuracy    <       0.00001541 Ry

     iteration #  4     ecut=    50.00 Ry     beta= 0.70
     Davidson diagonalization with overlap
     ethr =  1.40E-07,  avg # of iterations =  2.9

     total cpu time spent up to now is        3.9 secs

     total energy              =    -355.30193360 Ry
     Harris-Foulkes estimate   =    -355.30193335 Ry
     estimated scf accuracy    <       0.00000032 Ry

     iteration #  5     ecut=    50.00 Ry     beta= 0.70
     Davidson diagonalization with overlap
     ethr =  2.91E-09,  avg # of iterations =  1.9

     total cpu time spent up to now is        4.4 secs

     End of self-consistent calculation

          k = 0.0000 0.0000 0.0000 (   701 PWs)   bands (ev):

     5.0652   8.0766   8.0766   8.0766   9.1156   9.1156  29.8011  33.0886
    33.0886  33.0886

          k =-0.0909 0.0909-0.0909 (   685 PWs)   bands (ev):

     5.3202   8.0222   8.1463   8.1463   9.0922   9.0922  29.5736  31.1807
    33.0693  33.0693

          k =-0.1818 0.1818-0.1818 (   685 PWs)   bands (ev):

     5.9867   7.9851   8.2696   8.2696   9.1032   9.1032  26.7751  30.5200
    32.9232  32.9232

          k =-0.2727 0.2727-0.2727 (   682 PWs)   bands (ev):

     6.5370   8.2614   8.2614   8.5507   9.3172   9.3172  23.1800  30.0406
    32.4622  32.4622

          k =-0.3636 0.3636-0.3636 (   682 PWs)   bands (ev):

     6.5631   8.1502   8.1502   9.6501   9.6501  10.1354  19.7571  29.3427
    31.7280  31.7280

          k =-0.4545 0.4545-0.4545 (   694 PWs)   bands (ev):

     6.4830   8.0659   8.0659   9.8822   9.8822  12.0174  17.0071  28.9006
    31.1755  31.1755

          k = 0.0000 0.1818 0.0000 (   693 PWs)   bands (ev):

     5.4058   7.9432   8.2032   8.2032   8.9865   9.1740  29.8069  31.8556
    31.9525  31.9525

          k =-0.0909 0.2727-0.0909 (   683 PWs)   bands (ev):

     5.9481   7.8153   8.3438   8.3494   8.9201   9.2397  28.1255  30.2707
    31.0364  33.0066

          k =-0.1818 0.3636-0.1818 (   683 PWs)   bands (ev):

     6.6073   7.9273   8.3043   8.4054   9.2748   9.4249  24.5414  29.9063
    30.3182  33.1691

          k =-0.2727 0.4545-0.2727 (   685 PWs)   bands (ev):

     6.7329   8.1199   8.3224   8.6507   9.7142  10.3126  21.0104  29.2728
    29.8550  31.5899

          k =-0.3636 0.5455-0.3636 (   691 PWs)   bands (ev):

     6.6433   7.9940   8.2160   9.2481   9.9094  12.0659  17.8972  28.6425
    29.8210  30.3619

          k = 0.5455-0.3636 0.5455 (   687 PWs)   bands (ev):

     6.6154   7.9700   8.1701   9.4795   9.8716  13.0667  16.5898  28.1851
    29.8677  30.4135

          k = 0.4545-0.2727 0.4545 (   688 PWs)   bands (ev):

     6.6878   8.0480   8.2144   9.2760   9.5954  11.5056  18.8706  28.0196
    30.1748  31.7164

          k = 0.3636-0.1818 0.3636 (   676 PWs)   bands (ev):

     6.7669   8.1476   8.3301   8.5739   9.2002  10.1377  22.1741  28.1980
    31.1378  33.6578

          k = 0.2727-0.0909 0.2727 (   677 PWs)   bands (ev):

     6.4337   7.8623   8.3496   8.3915   8.9167   9.4765  25.7565  28.6218
    32.2914  34.3803

          k = 0.1818-0.0000 0.1818 (   680 PWs)   bands (ev):

     5.7232   7.9097   8.2464   8.2786   8.9614   9.1957  29.0201  29.3812
    32.2121  34.2738

          k = 0.0000 0.3636 0.0000 (   681 PWs)   bands (ev):

     6.2985   7.6001   8.5646   8.5646   8.7684   9.3322  29.5428  29.5428
    29.8313  30.2320

          k =-0.0909 0.4545-0.0909 (   684 PWs)   bands (ev):

     6.8315   7.4506   8.4643   8.7293   9.3027   9.4896  26.1821  28.4619
    29.4855  30.7903

          k =-0.1818 0.5455-0.1818 (   684 PWs)   bands (ev):

     6.9881   7.6830   8.2927   8.7032   9.7603  10.5812  22.5947  27.8557
    28.1974  30.2002

          k =-0.2727 0.6364-0.2727 (   692 PWs)   bands (ev):

     6.9209   7.8114   8.4712   8.5931   9.9427  12.4666  19.2653  26.7485
    27.8386  29.7819

          k = 0.6364-0.2727 0.6364 (   687 PWs)   bands (ev):

     6.9300   7.7734   8.5047   8.7423   9.8837  14.4349  16.7804  25.6031
    28.5149  29.6501

          k = 0.5455-0.1818 0.5455 (   688 PWs)   bands (ev):

     7.0395   7.8265   8.4902   8.7016   9.5791  13.2874  18.3688  24.9284
    29.8872  29.9404

          k = 0.4545-0.0909 0.4545 (   684 PWs)   bands (ev):

     7.2162   7.8999   8.3214   8.5667   9.1382  11.5063  21.5620  24.7793
    30.7459  31.8277

          k = 0.3636 0.0000 0.3636 (   676 PWs)   bands (ev):

     7.1124   7.6747   8.2895   8.6975   8.7276  10.2555  24.9178  25.2524
    32.0381  34.0892

          k = 0.0000 0.5455 0.0000 (   681 PWs)   bands (ev):

     6.9198   7.1757   9.0995   9.0995   9.3845   9.5442  27.0392  27.0392
    27.8736  29.8769

          k =-0.0909 0.6364-0.0909 (   688 PWs)   bands (ev):

     6.9274   7.0757   9.0030   9.2078   9.7676  10.7877  24.3225  25.9731
    26.1712  30.0057

          k =-0.1818 0.7273-0.1818 (   688 PWs)   bands (ev):

     6.8840   7.2474   8.7902   9.1148   9.9712  12.7938  21.0226  24.2463
    25.9897  29.8528

          k = 0.7273-0.1818 0.7273 (   694 PWs)   bands (ev):

     6.9635   7.4997   8.5615   8.9929   9.9216  15.2071  18.0541  22.8519
    26.5737  29.7570

          k = 0.6364-0.0909 0.6364 (   689 PWs)   bands (ev):

     7.1790   7.7514   8.2812   8.8929   9.6318  15.3133  18.2098  21.8936
    27.8733  29.8460

          k = 0.5455 0.0000 0.5455 (   684 PWs)   bands (ev):

     7.4474   7.8396   8.0716   8.7932   9.2768  13.2285  21.1784  21.6281
    29.7119  30.1995

          k = 0.0000 0.7273 0.0000 (   692 PWs)   bands (ev):

     6.7103   6.8082   9.6737   9.6737   9.7441  11.4693  23.7993  25.0166
    25.0166  29.9268

          k =-0.0909 0.8182-0.0909 (   685 PWs)   bands (ev):

     6.6446   6.7704   9.6063   9.6271   9.9923  13.1658  21.9013  23.0119
    24.5826  29.9587

          k = 0.8182-0.0909 0.8182 (   694 PWs)   bands (ev):

     6.7197   6.9936   9.1952   9.4885   9.9892  15.3887  19.9849  20.7835
    24.9787  29.8829

          k = 0.7273 0.0000 0.7273 (   694 PWs)   bands (ev):

     6.9301   7.4007   8.6492   9.2634   9.7909  17.5669  17.5737  20.1014
    26.1444  29.8277

          k = 0.0000 0.9091 0.0000 (   692 PWs)   bands (ev):

     6.4628   6.5992   9.8661  10.0675  10.0675  13.9160  20.2913  23.8663
    23.8663  29.9592

          k = 0.9091-0.0000 0.9091 (   694 PWs)   bands (ev):

     6.5114   6.6618   9.7928   9.8454  10.0851  14.9332  19.6227  22.4591
    24.0074  29.9757

          k =-0.1818 0.3636 0.0000 (   680 PWs)   bands (ev):

     6.5450   7.6472   8.3560   8.5661   8.9212   9.5004  27.1890  27.4031
    31.9588  32.0619

          k =-0.2727 0.4545-0.0909 (   686 PWs)   bands (ev):

     7.0341   7.7728   8.1641   8.6455   9.2106  10.2450  23.6721  26.7524
    30.3428  32.5982

          k =-0.3636 0.5455-0.1818 (   689 PWs)   bands (ev):

     6.9691   7.9508   8.3388   8.6062   9.6212  11.6491  20.2284  26.5561
    28.8347  31.7960

          k = 0.5455-0.3636 0.7273 (   687 PWs)   bands (ev):

     6.8770   7.8208   8.4114   8.8783   9.8388  13.5610  17.3098  26.8223
    27.6489  31.1351

          k =-0.1818 0.5455 0.0000 (   684 PWs)   bands (ev):

     7.1402   7.2779   8.4087   9.0931   9.3761  10.3220  25.2794  25.5091
    28.1510  31.6194

          k =-0.2727 0.6364-0.0909 (   687 PWs)   bands (ev):

     7.1113   7.4806   8.2700   9.0821   9.6769  11.8943  21.9237  25.0526
    26.3859  31.7317

          k = 0.6364-0.2727 0.8182 (   687 PWs)   bands (ev):

     7.0974   7.6133   8.2979   8.9158   9.8711  14.0100  18.7450  24.8687
    25.3139  31.5166

          k = 0.5455-0.1818 0.7273 (   691 PWs)   bands (ev):

     7.2044   7.6060   8.3759   8.7879   9.8049  15.4648  17.1080  23.8120
    26.0752  31.6637

          k = 0.4545-0.0909 0.6364 (   685 PWs)   bands (ev):

     7.3780   7.6872   8.0974   8.8722   9.5219  13.3943  19.8807  23.2353
    27.2936  32.3897

          k = 0.3636 0.0000 0.5455 (   680 PWs)   bands (ev):

     7.5459   7.5970   7.9249   9.0097   9.1115  11.5885  23.1525  23.2738
    28.7827  33.6553

          k =-0.1818 0.7273 0.0000 (   685 PWs)   bands (ev):

     6.9049   6.9506   8.9606   9.6690   9.6922  12.2674  23.5505  23.8133
    24.1707  31.3179

          k = 0.7273-0.1818 0.9091 (   682 PWs)   bands (ev):

     6.9125   7.1278   8.7363   9.4336   9.9411  14.3650  20.6452  22.4050
    23.8904  31.4886

          k = 0.6364-0.0909 0.8182 (   694 PWs)   bands (ev):

     7.0518   7.4391   8.4149   9.1813   9.9046  16.8611  17.8947  21.1640
    24.6087  31.5887

          k = 0.5455 0.0000 0.7273 (   695 PWs)   bands (ev):

     7.3109   7.7505   7.9897   9.0358   9.6751  15.4515  19.4558  20.7067
    25.8251  31.9621

          k = 0.8182-0.0909 1.0000 (   687 PWs)   bands (ev):

     6.6436   6.7623   9.4424   9.7409  10.0670  14.7240  20.3848  22.7968
    22.8941  31.1865

          k = 0.7273 0.0000 0.9091 (   692 PWs)   bands (ev):

     6.7981   7.0162   9.0005   9.4812  10.0618  16.3643  19.6618  20.4288
    23.4418  31.4509

          k = 0.6364-0.2727 1.0000 (   682 PWs)   bands (ev):

     7.3597   7.3633   8.0884   9.3064   9.6609  13.7225  21.6463  21.8813
    24.7300  34.1194

          k = 0.5455-0.1818 0.9091 (   688 PWs)   bands (ev):

     7.3351   7.5450   8.0032   9.1034   9.8919  15.9765  18.6987  22.1809
    23.4181  33.8776

          k = 0.6364-0.0909 1.0000 (   694 PWs)   bands (ev):

     7.0539   7.2450   8.4471   9.3161  10.0651  16.3908  20.5907  20.6827
    21.7100  33.8462

          k = 0.5455 0.0000 0.9091 (   694 PWs)   bands (ev):

     7.1867   7.5986   8.0212   9.1404  10.0626  18.2501  18.4216  20.2366
    22.1276  34.4869

     the Fermi energy is    13.1074 ev

!    total energy              =    -355.30193363 Ry
     Harris-Foulkes estimate   =    -355.30193363 Ry
     estimated scf accuracy    <          3.3E-09 Ry

     total all-electron energy =    -10632.267987 Ry

     The total energy is the sum of the following terms:

     one-electron contribution =       1.56839442 Ry
     hartree contribution      =      14.65793541 Ry
     xc contribution           =     -22.35160249 Ry
     ewald contribution        =     -71.86118022 Ry
     one-center paw contrib.   =    -277.31525948 Ry
     smearing contrib. (-TS)   =      -0.00022126 Ry

     convergence has been achieved in   5 iterations

     Forces acting on atoms (cartesian axes, Ry/au):

     atom    1 type  1   force =     0.00000000    0.00000000    0.00000000

     Total force =     0.000000     Total SCF correction =     0.000000


     Computing stress (Cartesian axis) and pressure

          total   stress  (Ry/bohr**3)                   (kbar)     P=   29.33
   0.00019936  -0.00000000  -0.00000000         29.33     -0.00     -0.00
  -0.00000000   0.00019936   0.00000000         -0.00     29.33      0.00
  -0.00000000   0.00000000   0.00019936         -0.00      0.00     29.33


     Writing output data file Ag.save/

     init_run     :      0.39s CPU      0.41s WALL (       1 calls)
     electrons    :      2.99s CPU      3.19s WALL (       1 calls)
     forces       :      0.05s CPU      0.05s WALL (       1 calls)
     stress       :      0.14s CPU      0.14s WALL (       1 calls)

     Called by init_run:
     wfcinit      :      0.12s CPU      0.13s WALL (       1 calls)
     potinit      :      0.10s CPU      0.12s WALL (       1 calls)
     hinit0       :      0.14s CPU      0.14s WALL (       1 calls)

     Called by electrons:
     c_bands      :      2.09s CPU      2.21s WALL (       6 calls)
     sum_band     :      0.40s CPU      0.42s WALL (       6 calls)
     v_of_rho     :      0.02s CPU      0.02s WALL (       6 calls)
     newd         :      0.03s CPU      0.04s WALL (       6 calls)
     PAW_pot      :      0.55s CPU      0.62s WALL (       6 calls)
     mix_rho      :      0.00s CPU      0.00s WALL (       6 calls)

     Called by c_bands:
     init_us_2    :      0.07s CPU      0.07s WALL (     840 calls)
     cegterg      :      2.00s CPU      2.11s WALL (     336 calls)

     Called by sum_band:
     sum_band:bec :      0.00s CPU      0.00s WALL (     336 calls)
     addusdens    :      0.03s CPU      0.03s WALL (       6 calls)

     Called by *egterg:
     h_psi        :      1.58s CPU      1.67s WALL (    1264 calls)
     s_psi        :      0.05s CPU      0.05s WALL (    1264 calls)
     g_psi        :      0.01s CPU      0.01s WALL (     872 calls)
     cdiaghg      :      0.23s CPU      0.24s WALL (    1152 calls)

     Called by h_psi:
     h_psi:pot    :      1.57s CPU      1.66s WALL (    1264 calls)
     h_psi:calbec :      0.08s CPU      0.08s WALL (    1264 calls)
     vloc_psi     :      1.44s CPU      1.52s WALL (    1264 calls)
     add_vuspsi   :      0.05s CPU      0.05s WALL (    1264 calls)

     General routines
     calbec       :      0.13s CPU      0.13s WALL (    1880 calls)
     fft          :      0.02s CPU      0.02s WALL (      93 calls)
     ffts         :      0.00s CPU      0.00s WALL (       6 calls)
     fftw         :      1.62s CPU      1.71s WALL (   21022 calls)

     Parallel routines
     fft_scatt_xy :      0.14s CPU      0.14s WALL (   21121 calls)
     fft_scatt_yz :      0.39s CPU      0.41s WALL (   21121 calls)

     PWSCF        :     4.40s CPU         4.71s WALL


   This run was terminated on:   0:20:39  27Mar2024            

=------------------------------------------------------------------------------=
   JOB DONE.
=------------------------------------------------------------------------------=
