
     Program PWSCF v.6.3MaX starts on 27Mar2024 at  0:39: 0 

     This program is part of the open-source Quantum ESPRESSO suite
     for quantum simulation of materials; please cite
         "P. Giannozzi et al., J. Phys.:Condens. Matter 21 395502 (2009);
         "P. Giannozzi et al., J. Phys.:Condens. Matter 29 465901 (2017);
          URL http://www.quantum-espresso.org", 
     in publications or presentations arising from this work. More details at
     http://www.quantum-espresso.org/quote

     Parallel version (MPI), running on     5 processors

     MPI processes distributed on     1 nodes
     R & G space division:  proc/nbgrp/npool/nimage =       5
     Waiting for input...
     Reading input from standard input

     Current dimensions of program PWSCF are:
     Max number of different atomic species (ntypx) = 10
     Max number of k-points (npk) =  40000
     Max angular momentum in pseudopotentials (lmaxx) =  3
               file Ag.pbesol-n-kjpaw_psl.1.0.0.UPF: wavefunction(s)  5S 5P renormalized

     Subspace diagonalization in iterative solution of the eigenvalue problem:
     a serial algorithm will be used


     Parallelization info
     --------------------
     sticks:   dense  smooth     PW     G-vecs:    dense   smooth      PW
     Min         137     137     42                 2410     2410     416
     Max         139     139     43                 2411     2411     418
     Sum         691     691    211                12051    12051    2085



     bravais-lattice index     =            2
     lattice parameter (alat)  =       7.7200  a.u.
     unit-cell volume          =     115.0249 (a.u.)^3
     number of atoms/cell      =            1
     number of atomic types    =            1
     number of electrons       =        11.00
     number of Kohn-Sham states=           10
     kinetic-energy cutoff     =      85.0000  Ry
     charge density cutoff     =     340.0000  Ry
     convergence threshold     =      1.0E-08
     mixing beta               =       0.7000
     number of iterations used =            8  plain     mixing
     Exchange-correlation      = SLA PW PSX PSC ( 1  4 10  8 0 0)

     celldm(1)=   7.720000  celldm(2)=   0.000000  celldm(3)=   0.000000
     celldm(4)=   0.000000  celldm(5)=   0.000000  celldm(6)=   0.000000

     crystal axes: (cart. coord. in units of alat)
               a(1) = (  -0.500000   0.000000   0.500000 )  
               a(2) = (   0.000000   0.500000   0.500000 )  
               a(3) = (  -0.500000   0.500000   0.000000 )  

     reciprocal axes: (cart. coord. in units 2 pi/alat)
               b(1) = ( -1.000000 -1.000000  1.000000 )  
               b(2) = (  1.000000  1.000000  1.000000 )  
               b(3) = ( -1.000000  1.000000 -1.000000 )  


     PseudoPot. # 1 for Ag read from file:
     /home/lorenzo/pseudos/Ag/Ag.pbesol-n-kjpaw_psl.1.0.0.UPF
     MD5 check sum: 3b245e14fa22881b2ac493bfd23f605f
     Pseudo is Projector augmented-wave + core cor, Zval = 11.0
     Generated using "atomic" code by A. Dal Corso v.6.2.2
     Shape of augmentation charge: PSQ
     Using radial grid of 1237 points,  6 beta functions with: 
                l(1) =   0
                l(2) =   0
                l(3) =   1
                l(4) =   1
                l(5) =   2
                l(6) =   2
     Q(r) pseudized with 0 coefficients 


     atomic species   valence    mass     pseudopotential
        Ag            11.00   107.86820     Ag( 1.00)

     48 Sym. Ops., with inversion, found



   Cartesian axes

     site n.     atom                  positions (alat units)
         1           Ag  tau(   1) = (   0.0000000   0.0000000   0.0000000  )

     number of k points=    47  gaussian smearing, width (Ry)=  0.0100
                       cart. coord. in units 2pi/alat
        k(    1) = (   0.0000000   0.0000000   0.0000000), wk =   0.0020000
        k(    2) = (  -0.1000000   0.1000000  -0.1000000), wk =   0.0160000
        k(    3) = (  -0.2000000   0.2000000  -0.2000000), wk =   0.0160000
        k(    4) = (  -0.3000000   0.3000000  -0.3000000), wk =   0.0160000
        k(    5) = (  -0.4000000   0.4000000  -0.4000000), wk =   0.0160000
        k(    6) = (   0.5000000  -0.5000000   0.5000000), wk =   0.0080000
        k(    7) = (   0.0000000   0.2000000   0.0000000), wk =   0.0120000
        k(    8) = (  -0.1000000   0.3000000  -0.1000000), wk =   0.0480000
        k(    9) = (  -0.2000000   0.4000000  -0.2000000), wk =   0.0480000
        k(   10) = (  -0.3000000   0.5000000  -0.3000000), wk =   0.0480000
        k(   11) = (   0.6000000  -0.4000000   0.6000000), wk =   0.0480000
        k(   12) = (   0.5000000  -0.3000000   0.5000000), wk =   0.0480000
        k(   13) = (   0.4000000  -0.2000000   0.4000000), wk =   0.0480000
        k(   14) = (   0.3000000  -0.1000000   0.3000000), wk =   0.0480000
        k(   15) = (   0.2000000   0.0000000   0.2000000), wk =   0.0240000
        k(   16) = (   0.0000000   0.4000000   0.0000000), wk =   0.0120000
        k(   17) = (  -0.1000000   0.5000000  -0.1000000), wk =   0.0480000
        k(   18) = (  -0.2000000   0.6000000  -0.2000000), wk =   0.0480000
        k(   19) = (   0.7000000  -0.3000000   0.7000000), wk =   0.0480000
        k(   20) = (   0.6000000  -0.2000000   0.6000000), wk =   0.0480000
        k(   21) = (   0.5000000  -0.1000000   0.5000000), wk =   0.0480000
        k(   22) = (   0.4000000   0.0000000   0.4000000), wk =   0.0240000
        k(   23) = (   0.0000000   0.6000000   0.0000000), wk =   0.0120000
        k(   24) = (  -0.1000000   0.7000000  -0.1000000), wk =   0.0480000
        k(   25) = (   0.8000000  -0.2000000   0.8000000), wk =   0.0480000
        k(   26) = (   0.7000000  -0.1000000   0.7000000), wk =   0.0480000
        k(   27) = (   0.6000000  -0.0000000   0.6000000), wk =   0.0240000
        k(   28) = (   0.0000000   0.8000000   0.0000000), wk =   0.0120000
        k(   29) = (   0.9000000  -0.1000000   0.9000000), wk =   0.0480000
        k(   30) = (   0.8000000   0.0000000   0.8000000), wk =   0.0240000
        k(   31) = (   0.0000000  -1.0000000   0.0000000), wk =   0.0060000
        k(   32) = (  -0.2000000   0.4000000   0.0000000), wk =   0.0480000
        k(   33) = (  -0.3000000   0.5000000  -0.1000000), wk =   0.0960000
        k(   34) = (   0.6000000  -0.4000000   0.8000000), wk =   0.0960000
        k(   35) = (   0.5000000  -0.3000000   0.7000000), wk =   0.0480000
        k(   36) = (  -0.2000000   0.6000000   0.0000000), wk =   0.0480000
        k(   37) = (   0.7000000  -0.3000000   0.9000000), wk =   0.0960000
        k(   38) = (   0.6000000  -0.2000000   0.8000000), wk =   0.0960000
        k(   39) = (   0.5000000  -0.1000000   0.7000000), wk =   0.0960000
        k(   40) = (   0.4000000   0.0000000   0.6000000), wk =   0.0480000
        k(   41) = (   0.8000000  -0.2000000   1.0000000), wk =   0.0480000
        k(   42) = (   0.7000000  -0.1000000   0.9000000), wk =   0.0960000
        k(   43) = (   0.6000000   0.0000000   0.8000000), wk =   0.0480000
        k(   44) = (  -0.2000000  -1.0000000   0.0000000), wk =   0.0240000
        k(   45) = (   0.6000000  -0.2000000   1.0000000), wk =   0.0480000
        k(   46) = (   0.5000000  -0.1000000   0.9000000), wk =   0.0480000
        k(   47) = (  -0.4000000  -1.0000000   0.0000000), wk =   0.0240000

     Dense  grid:    12051 G-vectors     FFT dimensions: (  36,  36,  36)

     Estimated max dynamical RAM per process >      13.24 MB

     Estimated total dynamical RAM >      66.18 MB

     Initial potential from superposition of free atoms

     starting charge   10.99964, renormalised to   11.00000
     Starting wfcs are    9 randomized atomic wfcs +    1 random wfcs
     Checking if some PAW data can be deallocated... 

     total cpu time spent up to now is        1.5 secs

     Self-consistent Calculation

     iteration #  1     ecut=    85.00 Ry     beta= 0.70
     Davidson diagonalization with overlap
     ethr =  1.00E-02,  avg # of iterations =  4.7

     Threshold (ethr) on eigenvalues was too large:
     Diagonalizing with lowered threshold

     Davidson diagonalization with overlap
     ethr =  4.54E-05,  avg # of iterations =  2.1

     total cpu time spent up to now is        3.3 secs

     total energy              =    -350.23722426 Ry
     Harris-Foulkes estimate   =    -350.24079444 Ry
     estimated scf accuracy    <       0.00539072 Ry

     iteration #  2     ecut=    85.00 Ry     beta= 0.70
     Davidson diagonalization with overlap
     ethr =  4.90E-05,  avg # of iterations =  2.1

     total cpu time spent up to now is        4.2 secs

     total energy              =    -350.23876053 Ry
     Harris-Foulkes estimate   =    -350.24076487 Ry
     estimated scf accuracy    <       0.00418036 Ry

     iteration #  3     ecut=    85.00 Ry     beta= 0.70
     Davidson diagonalization with overlap
     ethr =  3.80E-05,  avg # of iterations =  1.6

     total cpu time spent up to now is        5.0 secs

     total energy              =    -350.23955550 Ry
     Harris-Foulkes estimate   =    -350.23953877 Ry
     estimated scf accuracy    <       0.00001468 Ry

     iteration #  4     ecut=    85.00 Ry     beta= 0.70
     Davidson diagonalization with overlap
     ethr =  1.33E-07,  avg # of iterations =  3.1

     total cpu time spent up to now is        6.0 secs

     total energy              =    -350.23956421 Ry
     Harris-Foulkes estimate   =    -350.23956404 Ry
     estimated scf accuracy    <       0.00000053 Ry

     iteration #  5     ecut=    85.00 Ry     beta= 0.70
     Davidson diagonalization with overlap
     ethr =  4.78E-09,  avg # of iterations =  1.0

     total cpu time spent up to now is        6.8 secs

     End of self-consistent calculation

          k = 0.0000 0.0000 0.0000 (  1471 PWs)   bands (ev):

     4.8051   7.9188   7.9188   7.9188   8.9717   8.9717  29.5438  32.8291
    32.8291  32.8291

          k =-0.1000 0.1000-0.1000 (  1489 PWs)   bands (ev):

     5.1123   7.8530   8.0013   8.0013   8.9441   8.9441  29.1893  30.7412
    32.8067  32.8068

          k =-0.2000 0.2000-0.2000 (  1519 PWs)   bands (ev):

     5.8834   7.8477   8.1263   8.1263   8.9811   8.9811  25.8191  30.2120
    32.6085  32.6086

          k =-0.3000 0.3000-0.3000 (  1519 PWs)   bands (ev):

     6.3706   8.0759   8.0759   8.7233   9.2708   9.2708  21.8836  29.5764
    31.9976  31.9976

          k =-0.4000 0.4000-0.4000 (  1504 PWs)   bands (ev):

     6.3343   7.9522   7.9522   9.6236   9.6236  10.6730  18.2943  28.8669
    31.1915  31.1915

          k = 0.5000-0.5000 0.5000 (  1502 PWs)   bands (ev):

     6.2805   7.8977   7.8977   9.7751   9.7751  12.1890  16.2533  28.5892
    30.8284  30.8284

          k = 0.0000 0.2000 0.0000 (  1499 PWs)   bands (ev):

     5.2155   7.7572   8.0718   8.0718   8.8159   9.0422  29.5571  31.4316
    31.4889  31.4889

          k =-0.1000 0.3000-0.1000 (  1506 PWs)   bands (ev):

     5.8538   7.6113   8.2164   8.2361   8.7758   9.1300  27.3421  29.9397
    30.4477  32.7069

          k =-0.2000 0.4000-0.2000 (  1519 PWs)   bands (ev):

     6.5077   7.8401   8.0953   8.2629   9.3523   9.3738  23.3731  29.4642
    29.6867  32.2270

          k =-0.3000 0.5000-0.3000 (  1512 PWs)   bands (ev):

     6.5344   7.8932   8.1511   8.6535   9.6784  10.7791  19.5918  28.7066
    29.3181  30.6064

          k = 0.6000-0.4000 0.6000 (  1521 PWs)   bands (ev):

     6.4570   7.7934   8.0532   9.1709   9.7855  12.7298  16.6357  27.9894
    29.5885  29.6531

          k = 0.5000-0.3000 0.5000 (  1515 PWs)   bands (ev):

     6.4875   7.8300   8.0511   9.1925   9.5849  12.1648  17.4484  27.5436
    29.6494  30.6949

          k = 0.4000-0.2000 0.4000 (  1517 PWs)   bands (ev):

     6.5917   7.9530   8.1542   8.5938   9.1664  10.4141  20.8263  27.5520
    30.4973  32.6324

          k = 0.3000-0.1000 0.3000 (  1516 PWs)   bands (ev):

     6.3770   7.7116   8.1866   8.2640   8.7806   9.4891  24.7074  27.9442
    31.8998  34.0650

          k = 0.2000 0.0000 0.2000 (  1512 PWs)   bands (ev):

     5.5927   7.7194   8.1242   8.1466   8.7876   9.0856  28.4880  28.6601
    32.0153  34.2545

          k = 0.0000 0.4000 0.0000 (  1507 PWs)   bands (ev):

     6.2437   7.3527   8.5059   8.5059   8.6102   9.2299  28.7732  28.7732
    29.6002  29.6724

          k =-0.1000 0.5000-0.1000 (  1522 PWs)   bands (ev):

     6.7458   7.2056   8.3343   8.6719   9.4300   9.4452  25.1911  27.6318
    28.6457  30.1577

          k =-0.2000 0.6000-0.2000 (  1514 PWs)   bands (ev):

     6.7924   7.4742   8.1946   8.6070   9.7216  11.1209  21.3183  26.9004
    27.1331  29.7216

          k = 0.7000-0.3000 0.7000 (  1527 PWs)   bands (ev):

     6.7668   7.5742   8.3681   8.4836   9.8139  13.4228  17.8670  25.3463
    27.4311  29.4415

          k = 0.6000-0.2000 0.6000 (  1521 PWs)   bands (ev):

     6.8644   7.5931   8.4140   8.4772   9.5871  14.2278  17.0337  24.2834
    28.5978  29.5160

          k = 0.5000-0.1000 0.5000 (  1523 PWs)   bands (ev):

     7.0624   7.6895   8.1895   8.4442   9.1331  12.1264  20.2572  23.8510
    30.1174  30.5215

          k = 0.4000 0.0000 0.4000 (  1532 PWs)   bands (ev):

     7.0977   7.4957   8.0750   8.5575   8.6570  10.5238  23.8894  24.1841
    31.2672  32.9183

          k = 0.0000 0.6000 0.0000 (  1511 PWs)   bands (ev):

     6.7056   6.8853   9.1266   9.1266   9.4686   9.6759  26.1062  26.1062
    26.4645  29.6642

          k =-0.1000 0.7000-0.1000 (  1527 PWs)   bands (ev):

     6.6573   6.8037   9.0234   9.1952   9.7297  11.4085  23.2420  24.3338
    25.3089  29.7278

          k = 0.8000-0.2000 0.8000 (  1520 PWs)   bands (ev):

     6.6654   7.0254   8.7132   9.0689   9.8543  13.8254  19.8065  22.5487
    25.4191  29.5992

          k = 0.7000-0.1000 0.7000 (  1526 PWs)   bands (ev):

     6.8431   7.3786   8.3187   8.9231   9.6512  16.4479  17.0511  21.2144
    26.4693  29.5584

          k = 0.6000-0.0000 0.6000 (  1520 PWs)   bands (ev):

     7.1382   7.7664   7.8446   8.7500   9.2998  14.2070  19.7963  20.7485
    28.2780  29.7306

          k = 0.0000 0.8000 0.0000 (  1524 PWs)   bands (ev):

     6.4105   6.5297   9.6674   9.7244   9.7244  12.2381  21.9979  24.1696
    24.1696  29.7216

          k = 0.9000-0.1000 0.9000 (  1530 PWs)   bands (ev):

     6.3917   6.5421   9.5684   9.5792   9.9129  14.0833  20.2423  22.1626
    23.9798  29.7351

          k = 0.8000 0.0000 0.8000 (  1522 PWs)   bands (ev):

     6.5624   6.8710   8.9682   9.3601   9.7995  16.1005  19.1171  19.7979
    24.8132  29.6456

          k = 0.0000-1.0000 0.0000 (  1524 PWs)   bands (ev):

     6.2499   6.3987   9.7448   9.9839   9.9839  14.2116  19.3768  23.4484
    23.4484  29.7445

          k =-0.2000 0.4000 0.0000 (  1513 PWs)   bands (ev):

     6.5251   7.4214   8.1571   8.5071   8.8166   9.5130  26.2920  26.5676
    31.0951  31.9731

          k =-0.3000 0.5000-0.1000 (  1523 PWs)   bands (ev):

     6.9158   7.6707   7.9109   8.5522   9.1852  10.5545  22.4720  25.9084
    29.2577  32.2523

          k = 0.6000-0.4000 0.8000 (  1517 PWs)   bands (ev):

     6.8056   7.6844   8.2488   8.5009   9.5841  12.3754  18.8254  25.8819
    27.6552  31.3706

          k = 0.5000-0.3000 0.7000 (  1518 PWs)   bands (ev):

     6.7506   7.5960   8.3209   8.6446   9.7154  14.1497  16.4483  26.4242
    26.5366  30.9701

          k =-0.2000 0.6000 0.0000 (  1525 PWs)   bands (ev):

     6.9661   7.0246   8.3036   9.1194   9.3219  10.7188  24.2847  24.4981
    26.7073  31.5271

          k = 0.7000-0.3000 0.9000 (  1522 PWs)   bands (ev):

     6.9144   7.2520   8.1512   9.0253   9.6367  12.7041  20.6967  24.1743
    24.8703  31.6112

          k = 0.6000-0.2000 0.8000 (  1530 PWs)   bands (ev):

     6.9878   7.3932   8.1217   8.8061   9.7346  15.2336  17.4523  23.3188
    24.7894  31.5518

          k = 0.5000-0.1000 0.7000 (  1525 PWs)   bands (ev):

     7.2115   7.4298   7.9595   8.7642   9.5265  14.4456  18.5679  22.3850
    25.9448  32.0184

          k = 0.4000 0.0000 0.6000 (  1515 PWs)   bands (ev):

     7.4017   7.5156   7.6226   8.8931   9.1336  12.2438  22.0585  22.1358
    27.5048  33.0658

          k = 0.8000-0.2000 1.0000 (  1533 PWs)   bands (ev):

     6.6364   6.7146   8.9249   9.5673   9.7208  13.1652  22.0592  22.8568
    23.0230  31.2446

          k = 0.7000-0.1000 0.9000 (  1527 PWs)   bands (ev):

     6.7241   6.9640   8.5944   9.2653   9.8691  15.5802  19.5896  20.7672
    23.2869  31.4978

          k = 0.6000 0.0000 0.8000 (  1526 PWs)   bands (ev):

     6.9612   7.3706   8.0905   8.9993   9.7169  16.8556  18.0697  20.0478
    24.4004  31.7160

          k =-0.2000-1.0000 0.0000 (  1540 PWs)   bands (ev):

     6.4657   6.5993   9.2968   9.5295   9.9843  15.2394  19.4324  22.2198
    22.3706  31.1586

          k = 0.6000-0.2000 1.0000 (  1531 PWs)   bands (ev):

     7.1105   7.2563   7.9160   9.1057   9.7132  14.8732  20.4696  20.9923
    23.1617  34.3653

          k = 0.5000-0.1000 0.9000 (  1534 PWs)   bands (ev):

     7.0981   7.4930   7.7414   8.9595   9.8564  17.4434  17.6252  21.2719
    22.1436  34.2837

          k =-0.4000-1.0000 0.0000 (  1524 PWs)   bands (ev):

     6.9131   7.1940   8.1448   9.0781   9.9849  17.3800  19.6170  19.8543
    21.0679  34.1834

     the Fermi energy is    12.5914 ev

!    total energy              =    -350.23956423 Ry
     Harris-Foulkes estimate   =    -350.23956423 Ry
     estimated scf accuracy    <          5.9E-09 Ry

     total all-electron energy =    -10627.249973 Ry

     The total energy is the sum of the following terms:

     one-electron contribution =       1.60803361 Ry
     hartree contribution      =      14.57215190 Ry
     xc contribution           =     -22.14397702 Ry
     ewald contribution        =     -71.86118018 Ry
     one-center paw contrib.   =    -272.41438601 Ry
     smearing contrib. (-TS)   =      -0.00020653 Ry

     convergence has been achieved in   5 iterations

     Forces acting on atoms (cartesian axes, Ry/au):

     atom    1 type  1   force =     0.00000000    0.00000000    0.00000000

     Total force =     0.000000     Total SCF correction =     0.000000


     Computing stress (Cartesian axis) and pressure

          total   stress  (Ry/bohr**3)                   (kbar)     P=  -20.08
  -0.00013649   0.00000000   0.00000000        -20.08      0.00      0.00
   0.00000000  -0.00013649  -0.00000000          0.00    -20.08     -0.00
   0.00000000  -0.00000000  -0.00013649          0.00     -0.00    -20.08


     Writing output data file Ag.save/

     init_run     :      0.55s CPU      0.60s WALL (       1 calls)
     electrons    :      5.00s CPU      5.32s WALL (       1 calls)
     forces       :      0.12s CPU      0.12s WALL (       1 calls)
     stress       :      0.39s CPU      0.39s WALL (       1 calls)

     Called by init_run:
     wfcinit      :      0.22s CPU      0.24s WALL (       1 calls)
     potinit      :      0.11s CPU      0.13s WALL (       1 calls)
     hinit0       :      0.19s CPU      0.19s WALL (       1 calls)

     Called by electrons:
     c_bands      :      3.66s CPU      3.91s WALL (       6 calls)
     sum_band     :      0.77s CPU      0.82s WALL (       6 calls)
     v_of_rho     :      0.05s CPU      0.05s WALL (       6 calls)
     newd         :      0.07s CPU      0.07s WALL (       6 calls)
     PAW_pot      :      0.56s CPU      0.59s WALL (       6 calls)
     mix_rho      :      0.00s CPU      0.00s WALL (       6 calls)

     Called by c_bands:
     init_us_2    :      0.13s CPU      0.14s WALL (     705 calls)
     cegterg      :      3.50s CPU      3.75s WALL (     282 calls)

     Called by sum_band:
     sum_band:bec :      0.00s CPU      0.00s WALL (     282 calls)
     addusdens    :      0.06s CPU      0.07s WALL (       6 calls)

     Called by *egterg:
     h_psi        :      3.02s CPU      3.26s WALL (    1014 calls)
     s_psi        :      0.09s CPU      0.09s WALL (    1014 calls)
     g_psi        :      0.01s CPU      0.01s WALL (     685 calls)
     cdiaghg      :      0.20s CPU      0.21s WALL (     920 calls)

     Called by h_psi:
     h_psi:pot    :      3.01s CPU      3.25s WALL (    1014 calls)
     h_psi:calbec :      0.12s CPU      0.13s WALL (    1014 calls)
     vloc_psi     :      2.79s CPU      3.02s WALL (    1014 calls)
     add_vuspsi   :      0.09s CPU      0.09s WALL (    1014 calls)

     General routines
     calbec       :      0.22s CPU      0.23s WALL (    1531 calls)
     fft          :      0.04s CPU      0.04s WALL (      93 calls)
     ffts         :      0.00s CPU      0.00s WALL (       6 calls)
     fftw         :      3.14s CPU      3.39s WALL (   17464 calls)

     Parallel routines
     fft_scatt_xy :      0.26s CPU      0.29s WALL (   17563 calls)
     fft_scatt_yz :      0.74s CPU      0.79s WALL (   17563 calls)

     PWSCF        :     6.98s CPU         7.43s WALL


   This run was terminated on:   0:39: 7  27Mar2024            

=------------------------------------------------------------------------------=
   JOB DONE.
=------------------------------------------------------------------------------=
