
     Program PWSCF v.6.3MaX starts on 27Mar2024 at  0:38:39 

     This program is part of the open-source Quantum ESPRESSO suite
     for quantum simulation of materials; please cite
         "P. Giannozzi et al., J. Phys.:Condens. Matter 21 395502 (2009);
         "P. Giannozzi et al., J. Phys.:Condens. Matter 29 465901 (2017);
          URL http://www.quantum-espresso.org", 
     in publications or presentations arising from this work. More details at
     http://www.quantum-espresso.org/quote

     Parallel version (MPI), running on     5 processors

     MPI processes distributed on     1 nodes
     R & G space division:  proc/nbgrp/npool/nimage =       5
     Waiting for input...
     Reading input from standard input

     Current dimensions of program PWSCF are:
     Max number of different atomic species (ntypx) = 10
     Max number of k-points (npk) =  40000
     Max angular momentum in pseudopotentials (lmaxx) =  3

     Subspace diagonalization in iterative solution of the eigenvalue problem:
     a serial algorithm will be used


     Parallelization info
     --------------------
     sticks:   dense  smooth     PW     G-vecs:    dense   smooth      PW
     Min         131     131     39                 2222     2222     381
     Max         134     134     40                 2223     2223     384
     Sum         661     661    199                11113    11113    1917



     bravais-lattice index     =            2
     lattice parameter (alat)  =       7.7200  a.u.
     unit-cell volume          =     115.0249 (a.u.)^3
     number of atoms/cell      =            1
     number of atomic types    =            1
     number of electrons       =        11.00
     number of Kohn-Sham states=           10
     kinetic-energy cutoff     =      80.0000  Ry
     charge density cutoff     =     320.0000  Ry
     convergence threshold     =      1.0E-08
     mixing beta               =       0.7000
     number of iterations used =            8  plain     mixing
     Exchange-correlation      = PBESOL ( 1  4 10  8 0 0)

     celldm(1)=   7.720000  celldm(2)=   0.000000  celldm(3)=   0.000000
     celldm(4)=   0.000000  celldm(5)=   0.000000  celldm(6)=   0.000000

     crystal axes: (cart. coord. in units of alat)
               a(1) = (  -0.500000   0.000000   0.500000 )  
               a(2) = (   0.000000   0.500000   0.500000 )  
               a(3) = (  -0.500000   0.500000   0.000000 )  

     reciprocal axes: (cart. coord. in units 2 pi/alat)
               b(1) = ( -1.000000 -1.000000  1.000000 )  
               b(2) = (  1.000000  1.000000  1.000000 )  
               b(3) = ( -1.000000  1.000000 -1.000000 )  


     PseudoPot. # 1 for Ag read from file:
     /home/lorenzo/pseudos/Ag/Ag.pbesol-n-rrkjus_psl.1.0.0.UPF
     MD5 check sum: 3b43e8aa747a56f565f44d11355b8b45
     Pseudo is Ultrasoft + core correction, Zval = 11.0
     Generated using "atomic" code by A. Dal Corso v.6.2.2
     Using radial grid of 1237 points,  6 beta functions with: 
                l(1) =   0
                l(2) =   0
                l(3) =   1
                l(4) =   1
                l(5) =   2
                l(6) =   2
     Q(r) pseudized with 0 coefficients 


     atomic species   valence    mass     pseudopotential
        Ag            11.00   107.86820     Ag( 1.00)

     48 Sym. Ops., with inversion, found



   Cartesian axes

     site n.     atom                  positions (alat units)
         1           Ag  tau(   1) = (   0.0000000   0.0000000   0.0000000  )

     number of k points=    35  gaussian smearing, width (Ry)=  0.0100
                       cart. coord. in units 2pi/alat
        k(    1) = (   0.0000000   0.0000000   0.0000000), wk =   0.0027435
        k(    2) = (  -0.1111111   0.1111111  -0.1111111), wk =   0.0219479
        k(    3) = (  -0.2222222   0.2222222  -0.2222222), wk =   0.0219479
        k(    4) = (  -0.3333333   0.3333333  -0.3333333), wk =   0.0219479
        k(    5) = (  -0.4444444   0.4444444  -0.4444444), wk =   0.0219479
        k(    6) = (   0.0000000   0.2222222   0.0000000), wk =   0.0164609
        k(    7) = (  -0.1111111   0.3333333  -0.1111111), wk =   0.0658436
        k(    8) = (  -0.2222222   0.4444444  -0.2222222), wk =   0.0658436
        k(    9) = (  -0.3333333   0.5555556  -0.3333333), wk =   0.0658436
        k(   10) = (   0.5555556  -0.3333333   0.5555556), wk =   0.0658436
        k(   11) = (   0.4444444  -0.2222222   0.4444444), wk =   0.0658436
        k(   12) = (   0.3333333  -0.1111111   0.3333333), wk =   0.0658436
        k(   13) = (   0.2222222  -0.0000000   0.2222222), wk =   0.0329218
        k(   14) = (   0.0000000   0.4444444   0.0000000), wk =   0.0164609
        k(   15) = (  -0.1111111   0.5555556  -0.1111111), wk =   0.0658436
        k(   16) = (  -0.2222222   0.6666667  -0.2222222), wk =   0.0658436
        k(   17) = (   0.6666667  -0.2222222   0.6666667), wk =   0.0658436
        k(   18) = (   0.5555556  -0.1111111   0.5555556), wk =   0.0658436
        k(   19) = (   0.4444444   0.0000000   0.4444444), wk =   0.0329218
        k(   20) = (   0.0000000   0.6666667   0.0000000), wk =   0.0164609
        k(   21) = (  -0.1111111   0.7777778  -0.1111111), wk =   0.0658436
        k(   22) = (   0.7777778  -0.1111111   0.7777778), wk =   0.0658436
        k(   23) = (   0.6666667  -0.0000000   0.6666667), wk =   0.0329218
        k(   24) = (   0.0000000   0.8888889   0.0000000), wk =   0.0164609
        k(   25) = (   0.8888889   0.0000000   0.8888889), wk =   0.0329218
        k(   26) = (  -0.2222222   0.4444444   0.0000000), wk =   0.0658436
        k(   27) = (  -0.3333333   0.5555556  -0.1111111), wk =   0.1316872
        k(   28) = (   0.5555556  -0.3333333   0.7777778), wk =   0.1316872
        k(   29) = (  -0.2222222   0.6666667   0.0000000), wk =   0.0658436
        k(   30) = (   0.6666667  -0.2222222   0.8888889), wk =   0.1316872
        k(   31) = (   0.5555556  -0.1111111   0.7777778), wk =   0.1316872
        k(   32) = (   0.4444444   0.0000000   0.6666667), wk =   0.0658436
        k(   33) = (   0.7777778  -0.1111111   1.0000000), wk =   0.0658436
        k(   34) = (   0.6666667  -0.0000000   0.8888889), wk =   0.0658436
        k(   35) = (   0.5555556  -0.1111111   1.0000000), wk =   0.0658436

     Dense  grid:    11113 G-vectors     FFT dimensions: (  32,  32,  32)

     Estimated max dynamical RAM per process >      11.60 MB

     Estimated total dynamical RAM >      57.99 MB

     Initial potential from superposition of free atoms

     starting charge   10.99964, renormalised to   11.00000
     Starting wfcs are    9 randomized atomic wfcs +    1 random wfcs

     total cpu time spent up to now is        1.2 secs

     Self-consistent Calculation

     iteration #  1     ecut=    80.00 Ry     beta= 0.70
     Davidson diagonalization with overlap
     ethr =  1.00E-02,  avg # of iterations =  4.6

     Threshold (ethr) on eigenvalues was too large:
     Diagonalizing with lowered threshold

     Davidson diagonalization with overlap
     ethr =  4.30E-05,  avg # of iterations =  2.2

     total cpu time spent up to now is        2.2 secs

     total energy              =     -84.18151085 Ry
     Harris-Foulkes estimate   =     -84.18481199 Ry
     estimated scf accuracy    <       0.00509910 Ry

     iteration #  2     ecut=    80.00 Ry     beta= 0.70
     Davidson diagonalization with overlap
     ethr =  4.64E-05,  avg # of iterations =  2.0

     total cpu time spent up to now is        2.7 secs

     total energy              =     -84.18269954 Ry
     Harris-Foulkes estimate   =     -84.18460740 Ry
     estimated scf accuracy    <       0.00355007 Ry

     iteration #  3     ecut=    80.00 Ry     beta= 0.70
     Davidson diagonalization with overlap
     ethr =  3.23E-05,  avg # of iterations =  2.0

     total cpu time spent up to now is        3.0 secs

     total energy              =     -84.18348335 Ry
     Harris-Foulkes estimate   =     -84.18348543 Ry
     estimated scf accuracy    <       0.00002521 Ry

     iteration #  4     ecut=    80.00 Ry     beta= 0.70
     Davidson diagonalization with overlap
     ethr =  2.29E-07,  avg # of iterations =  2.9

     total cpu time spent up to now is        3.5 secs

     total energy              =     -84.18349240 Ry
     Harris-Foulkes estimate   =     -84.18349238 Ry
     estimated scf accuracy    <       0.00000053 Ry

     iteration #  5     ecut=    80.00 Ry     beta= 0.70
     Davidson diagonalization with overlap
     ethr =  4.79E-09,  avg # of iterations =  2.1

     total cpu time spent up to now is        3.9 secs

     total energy              =     -84.18349250 Ry
     Harris-Foulkes estimate   =     -84.18349252 Ry
     estimated scf accuracy    <       0.00000003 Ry

     iteration #  6     ecut=    80.00 Ry     beta= 0.70
     Davidson diagonalization with overlap
     ethr =  2.53E-10,  avg # of iterations =  2.3

     total cpu time spent up to now is        4.3 secs

     End of self-consistent calculation

          k = 0.0000 0.0000 0.0000 (  1411 PWs)   bands (ev):

     4.8082   7.9212   7.9212   7.9212   8.9701   8.9701  29.5470  32.8314
    32.8314  32.8314

          k =-0.1111 0.1111-0.1111 (  1399 PWs)   bands (ev):

     5.1849   7.8438   8.0202   8.0202   8.9390   8.9390  28.9643  30.5760
    32.8007  32.8007

          k =-0.2222 0.2222-0.2222 (  1387 PWs)   bands (ev):

     6.0575   7.9291   8.1335   8.1335   9.0236   9.0236  24.9425  30.1193
    32.5163  32.5163

          k =-0.3333 0.3333-0.3333 (  1399 PWs)   bands (ev):

     6.3859   8.0339   8.0339   9.3022   9.3976   9.3976  20.6277  29.3156
    31.7228  31.7228

          k =-0.4444 0.4444-0.4444 (  1392 PWs)   bands (ev):

     6.3014   7.9154   7.9154   9.7274   9.7274  11.5903  17.0211  28.6795
    30.9496  30.9496

          k = 0.0000 0.2222 0.0000 (  1399 PWs)   bands (ev):

     5.3116   7.7238   8.1097   8.1097   8.7828   9.0566  29.5638  31.2222
    31.2222  31.2257

          k =-0.1111 0.3333-0.1111 (  1384 PWs)   bands (ev):

     6.0608   7.5660   8.2320   8.2901   8.8231   9.1782  26.6670  29.8390
    30.0339  32.5633

          k =-0.2222 0.4444-0.2222 (  1396 PWs)   bands (ev):

     6.6020   7.9964   8.0173   8.2719   9.4907   9.7551  22.2612  29.1853
    29.2619  31.4026

          k =-0.3333 0.5556-0.3333 (  1398 PWs)   bands (ev):

     6.5315   7.8158   8.1380   8.8225   9.7670  11.7207  18.2528  28.2328
    29.1081  29.9308

          k = 0.5556-0.3333 0.5556 (  1402 PWs)   bands (ev):

     6.4983   7.7738   8.0700   9.1627   9.7116  13.0754  16.4413  27.4087
    29.4825  29.8863

          k = 0.4444-0.2222 0.4444 (  1391 PWs)   bands (ev):

     6.6026   7.8873   8.1356   8.8058   9.3128  11.1118  19.5334  27.1239
    30.0914  31.7181

          k = 0.3333-0.1111 0.3333 (  1377 PWs)   bands (ev):

     6.5682   7.7712   8.1777   8.2824   8.8233   9.7447  23.7331  27.4190
    31.5913  34.2334

          k = 0.2222-0.0000 0.2222 (  1387 PWs)   bands (ev):

     5.7633   7.6860   8.1728   8.1747   8.7525   9.1433  28.0912  28.0932
    32.1487  34.4201

          k = 0.0000 0.4444 0.0000 (  1375 PWs)   bands (ev):

     6.4611   7.2498   8.6356   8.6356   8.6684   9.2801  28.1500  28.1500
    29.2292  29.6172

          k =-0.1111 0.5556-0.1111 (  1384 PWs)   bands (ev):

     6.8153   7.1298   8.4268   8.7869   9.5351   9.9467  24.3029  26.9759
    27.5856  29.9117

          k =-0.2222 0.6667-0.2222 (  1393 PWs)   bands (ev):

     6.7762   7.4082   8.3015   8.6772   9.8080  12.1687  20.1289  25.5533
    26.6985  29.5828

          k = 0.6667-0.2222 0.6667 (  1388 PWs)   bands (ev):

     6.8443   7.5305   8.3633   8.5494   9.7348  14.8480  16.7720  23.9927
    27.4920  29.4540

          k = 0.5556-0.1111 0.5556 (  1393 PWs)   bands (ev):

     7.0723   7.6234   8.2112   8.5102   9.3107  13.2605  19.0385  23.1377
    29.3077  29.8015

          k = 0.4444 0.0000 0.4444 (  1392 PWs)   bands (ev):

     7.2753   7.5108   8.0141   8.5527   8.8023  11.1649  23.0128  23.1781
    30.7444  31.8253

          k = 0.0000 0.6667 0.0000 (  1379 PWs)   bands (ev):

     6.6263   6.7497   9.3455   9.3455   9.5424  10.4407  24.9434  25.3569
    25.3569  29.6898

          k =-0.1111 0.7778-0.1111 (  1395 PWs)   bands (ev):

     6.5527   6.7058   9.2181   9.3394   9.8310  12.5504  22.2236  22.8183
    24.7277  29.7122

          k = 0.7778-0.1111 0.7778 (  1385 PWs)   bands (ev):

     6.6505   7.0237   8.7427   9.1719   9.8053  15.4323  18.8219  20.9422
    25.2984  29.6072

          k = 0.6667-0.0000 0.6667 (  1382 PWs)   bands (ev):

     6.9409   7.5176   8.1436   8.9252   9.4960  15.7991  18.4661  20.1950
    26.9575  29.6101

          k = 0.0000 0.8889 0.0000 (  1383 PWs)   bands (ev):

     6.3015   6.4423   9.7188   9.9025   9.9025  13.4308  20.3645  23.6795
    23.6795  29.7415

          k = 0.8889 0.0000 0.8889 (  1384 PWs)   bands (ev):

     6.3703   6.5388   9.5806   9.6101   9.9289  14.8922  19.4099  21.7286
    23.8891  29.7379

          k =-0.2222 0.4444 0.0000 (  1379 PWs)   bands (ev):

     6.7843   7.3542   8.0876   8.6353   8.8905   9.7830  25.5264  25.8305
    30.2501  32.2022

          k =-0.3333 0.5556-0.1111 (  1388 PWs)   bands (ev):

     6.9708   7.7324   7.8411   8.6264   9.3313  11.2855  21.3495  25.2339
    28.2006  32.1708

          k = 0.5556-0.3333 0.7778 (  1394 PWs)   bands (ev):

     6.8582   7.5671   8.3337   8.5191   9.6677  13.6320  17.5514  25.4988
    26.5441  31.3588

          k =-0.2222 0.6667 0.0000 (  1380 PWs)   bands (ev):

     6.9274   6.9438   8.4021   9.3375   9.4034  11.5912  23.4450  23.6185
    25.2690  31.7298

          k = 0.6667-0.2222 0.8889 (  1395 PWs)   bands (ev):

     6.9092   7.2043   8.1981   9.0852   9.7354  14.0976  19.6230  23.1651
    23.7844  31.8682

          k = 0.5556-0.1111 0.7778 (  1394 PWs)   bands (ev):

     7.0985   7.4115   7.9894   8.8573   9.6865  16.1085  17.4068  21.8508
    24.6751  32.0700

          k = 0.4444 0.0000 0.6667 (  1393 PWs)   bands (ev):

     7.4394   7.4816   7.6010   8.9127   9.3438  13.4294  20.9166  21.3524
    26.2731  32.8493

          k = 0.7778-0.1111 1.0000 (  1389 PWs)   bands (ev):

     6.5673   6.6838   9.0345   9.5187   9.9012  14.5665  20.5058  22.1867
    22.3912  31.4757

          k = 0.6667-0.0000 0.8889 (  1386 PWs)   bands (ev):

     6.7692   7.0474   8.4908   9.1863   9.8951  16.8484  18.9066  19.8230
    23.1201  31.8631

          k = 0.5556-0.1111 1.0000 (  1391 PWs)   bands (ev):

     7.0403   7.3939   7.8506   9.0206   9.8976  16.6697  19.4995  20.3687
    21.7476  35.0396

     the Fermi energy is    12.9276 ev

!    total energy              =     -84.18349251 Ry
     Harris-Foulkes estimate   =     -84.18349251 Ry
     estimated scf accuracy    <          6.4E-10 Ry

     The total energy is the sum of the following terms:

     one-electron contribution =      -4.74107418 Ry
     hartree contribution      =      14.55917007 Ry
     xc contribution           =     -22.14035058 Ry
     ewald contribution        =     -71.86118018 Ry
     smearing contrib. (-TS)   =      -0.00005765 Ry

     convergence has been achieved in   6 iterations

     Forces acting on atoms (cartesian axes, Ry/au):

     atom    1 type  1   force =     0.00000000    0.00000000    0.00000000

     Total force =     0.000000     Total SCF correction =     0.000000


     Computing stress (Cartesian axis) and pressure

          total   stress  (Ry/bohr**3)                   (kbar)     P=  -23.82
  -0.00016195   0.00000000   0.00000000        -23.82      0.00      0.00
   0.00000000  -0.00016195  -0.00000000          0.00    -23.82     -0.00
   0.00000000  -0.00000000  -0.00016195          0.00     -0.00    -23.82


     Writing output data file Ag.save/

     init_run     :      0.37s CPU      0.39s WALL (       1 calls)
     electrons    :      2.79s CPU      3.03s WALL (       1 calls)
     forces       :      0.08s CPU      0.08s WALL (       1 calls)
     stress       :      0.29s CPU      0.29s WALL (       1 calls)

     Called by init_run:
     wfcinit      :      0.14s CPU      0.16s WALL (       1 calls)
     potinit      :      0.02s CPU      0.02s WALL (       1 calls)
     hinit0       :      0.19s CPU      0.20s WALL (       1 calls)

     Called by electrons:
     c_bands      :      2.24s CPU      2.43s WALL (       7 calls)
     sum_band     :      0.44s CPU      0.49s WALL (       7 calls)
     v_of_rho     :      0.05s CPU      0.05s WALL (       7 calls)
     newd         :      0.07s CPU      0.07s WALL (       7 calls)
     mix_rho      :      0.00s CPU      0.00s WALL (       7 calls)

     Called by c_bands:
     init_us_2    :      0.09s CPU      0.10s WALL (     595 calls)
     cegterg      :      2.12s CPU      2.31s WALL (     245 calls)

     Called by sum_band:
     sum_band:bec :      0.00s CPU      0.00s WALL (     245 calls)
     addusdens    :      0.07s CPU      0.07s WALL (       7 calls)

     Called by *egterg:
     h_psi        :      1.72s CPU      1.88s WALL (     916 calls)
     s_psi        :      0.06s CPU      0.07s WALL (     916 calls)
     g_psi        :      0.01s CPU      0.01s WALL (     636 calls)
     cdiaghg      :      0.17s CPU      0.18s WALL (     846 calls)

     Called by h_psi:
     h_psi:pot    :      1.71s CPU      1.87s WALL (     916 calls)
     h_psi:calbec :      0.09s CPU      0.10s WALL (     916 calls)
     vloc_psi     :      1.55s CPU      1.70s WALL (     916 calls)
     add_vuspsi   :      0.06s CPU      0.07s WALL (     916 calls)

     General routines
     calbec       :      0.15s CPU      0.17s WALL (    1336 calls)
     fft          :      0.03s CPU      0.04s WALL (     104 calls)
     ffts         :      0.00s CPU      0.00s WALL (       7 calls)
     fftw         :      1.70s CPU      1.86s WALL (   15150 calls)

     Parallel routines
     fft_scatt_xy :      0.17s CPU      0.19s WALL (   15261 calls)
     fft_scatt_yz :      0.51s CPU      0.56s WALL (   15261 calls)

     PWSCF        :     4.42s CPU         4.75s WALL


   This run was terminated on:   0:38:44  27Mar2024            

=------------------------------------------------------------------------------=
   JOB DONE.
=------------------------------------------------------------------------------=
