
     Program PWSCF v.6.3MaX starts on 27Mar2024 at  0:11:31 

     This program is part of the open-source Quantum ESPRESSO suite
     for quantum simulation of materials; please cite
         "P. Giannozzi et al., J. Phys.:Condens. Matter 21 395502 (2009);
         "P. Giannozzi et al., J. Phys.:Condens. Matter 29 465901 (2017);
          URL http://www.quantum-espresso.org", 
     in publications or presentations arising from this work. More details at
     http://www.quantum-espresso.org/quote

     Parallel version (MPI), running on     5 processors

     MPI processes distributed on     1 nodes
     R & G space division:  proc/nbgrp/npool/nimage =       5
     Waiting for input...
     Reading input from standard input

     Current dimensions of program PWSCF are:
     Max number of different atomic species (ntypx) = 10
     Max number of k-points (npk) =  40000
     Max angular momentum in pseudopotentials (lmaxx) =  3

     Subspace diagonalization in iterative solution of the eigenvalue problem:
     a serial algorithm will be used


     Parallelization info
     --------------------
     sticks:   dense  smooth     PW     G-vecs:    dense   smooth      PW
     Min          39      39     14                  381      381      82
     Max          40      40     15                  384      384      83
     Sum         199     199     73                 1917     1917     411



     bravais-lattice index     =            2
     lattice parameter (alat)  =       7.7200  a.u.
     unit-cell volume          =     115.0249 (a.u.)^3
     number of atoms/cell      =            1
     number of atomic types    =            1
     number of electrons       =        11.00
     number of Kohn-Sham states=           10
     kinetic-energy cutoff     =      25.0000  Ry
     charge density cutoff     =     100.0000  Ry
     convergence threshold     =      1.0E-08
     mixing beta               =       0.7000
     number of iterations used =            8  plain     mixing
     Exchange-correlation      = PBESOL ( 1  4 10  8 0 0)

     celldm(1)=   7.720000  celldm(2)=   0.000000  celldm(3)=   0.000000
     celldm(4)=   0.000000  celldm(5)=   0.000000  celldm(6)=   0.000000

     crystal axes: (cart. coord. in units of alat)
               a(1) = (  -0.500000   0.000000   0.500000 )  
               a(2) = (   0.000000   0.500000   0.500000 )  
               a(3) = (  -0.500000   0.500000   0.000000 )  

     reciprocal axes: (cart. coord. in units 2 pi/alat)
               b(1) = ( -1.000000 -1.000000  1.000000 )  
               b(2) = (  1.000000  1.000000  1.000000 )  
               b(3) = ( -1.000000  1.000000 -1.000000 )  


     PseudoPot. # 1 for Ag read from file:
     /home/lorenzo/pseudos/Ag/Ag.pbesol-n-rrkjus_psl.1.0.0.UPF
     MD5 check sum: 3b43e8aa747a56f565f44d11355b8b45
     Pseudo is Ultrasoft + core correction, Zval = 11.0
     Generated using "atomic" code by A. Dal Corso v.6.2.2
     Using radial grid of 1237 points,  6 beta functions with: 
                l(1) =   0
                l(2) =   0
                l(3) =   1
                l(4) =   1
                l(5) =   2
                l(6) =   2
     Q(r) pseudized with 0 coefficients 


     atomic species   valence    mass     pseudopotential
        Ag            11.00   107.86820     Ag( 1.00)

     48 Sym. Ops., with inversion, found



   Cartesian axes

     site n.     atom                  positions (alat units)
         1           Ag  tau(   1) = (   0.0000000   0.0000000   0.0000000  )

     number of k points=    29  gaussian smearing, width (Ry)=  0.0100
                       cart. coord. in units 2pi/alat
        k(    1) = (   0.0000000   0.0000000   0.0000000), wk =   0.0039062
        k(    2) = (  -0.1250000   0.1250000  -0.1250000), wk =   0.0312500
        k(    3) = (  -0.2500000   0.2500000  -0.2500000), wk =   0.0312500
        k(    4) = (  -0.3750000   0.3750000  -0.3750000), wk =   0.0312500
        k(    5) = (   0.5000000  -0.5000000   0.5000000), wk =   0.0156250
        k(    6) = (   0.0000000   0.2500000   0.0000000), wk =   0.0234375
        k(    7) = (  -0.1250000   0.3750000  -0.1250000), wk =   0.0937500
        k(    8) = (  -0.2500000   0.5000000  -0.2500000), wk =   0.0937500
        k(    9) = (   0.6250000  -0.3750000   0.6250000), wk =   0.0937500
        k(   10) = (   0.5000000  -0.2500000   0.5000000), wk =   0.0937500
        k(   11) = (   0.3750000  -0.1250000   0.3750000), wk =   0.0937500
        k(   12) = (   0.2500000   0.0000000   0.2500000), wk =   0.0468750
        k(   13) = (   0.0000000   0.5000000   0.0000000), wk =   0.0234375
        k(   14) = (  -0.1250000   0.6250000  -0.1250000), wk =   0.0937500
        k(   15) = (   0.7500000  -0.2500000   0.7500000), wk =   0.0937500
        k(   16) = (   0.6250000  -0.1250000   0.6250000), wk =   0.0937500
        k(   17) = (   0.5000000   0.0000000   0.5000000), wk =   0.0468750
        k(   18) = (   0.0000000   0.7500000   0.0000000), wk =   0.0234375
        k(   19) = (   0.8750000  -0.1250000   0.8750000), wk =   0.0937500
        k(   20) = (   0.7500000   0.0000000   0.7500000), wk =   0.0468750
        k(   21) = (   0.0000000  -1.0000000   0.0000000), wk =   0.0117188
        k(   22) = (  -0.2500000   0.5000000   0.0000000), wk =   0.0937500
        k(   23) = (   0.6250000  -0.3750000   0.8750000), wk =   0.1875000
        k(   24) = (   0.5000000  -0.2500000   0.7500000), wk =   0.0937500
        k(   25) = (   0.7500000  -0.2500000   1.0000000), wk =   0.0937500
        k(   26) = (   0.6250000  -0.1250000   0.8750000), wk =   0.1875000
        k(   27) = (   0.5000000   0.0000000   0.7500000), wk =   0.0937500
        k(   28) = (  -0.2500000  -1.0000000   0.0000000), wk =   0.0468750
        k(   29) = (  -0.5000000  -1.0000000   0.0000000), wk =   0.0234375

     Dense  grid:     1917 G-vectors     FFT dimensions: (  18,  18,  18)

     Estimated max dynamical RAM per process >       2.64 MB

     Estimated total dynamical RAM >      13.18 MB

     Initial potential from superposition of free atoms

     starting charge   10.99964, renormalised to   11.00000
     Starting wfcs are    9 randomized atomic wfcs +    1 random wfcs

     total cpu time spent up to now is        0.9 secs

     Self-consistent Calculation

     iteration #  1     ecut=    25.00 Ry     beta= 0.70
     Davidson diagonalization with overlap
     ethr =  1.00E-02,  avg # of iterations =  5.1

     Threshold (ethr) on eigenvalues was too large:
     Diagonalizing with lowered threshold

     Davidson diagonalization with overlap
     ethr =  8.02E-04,  avg # of iterations =  1.0

     total cpu time spent up to now is        1.1 secs

     total energy              =     -83.67238849 Ry
     Harris-Foulkes estimate   =     -83.73804840 Ry
     estimated scf accuracy    <       0.09045643 Ry

     iteration #  2     ecut=    25.00 Ry     beta= 0.70
     Davidson diagonalization with overlap
     ethr =  8.22E-04,  avg # of iterations =  2.0

     total cpu time spent up to now is        1.3 secs

     total energy              =     -83.70081287 Ry
     Harris-Foulkes estimate   =     -83.73270492 Ry
     estimated scf accuracy    <       0.06212273 Ry

     iteration #  3     ecut=    25.00 Ry     beta= 0.70
     Davidson diagonalization with overlap
     ethr =  5.65E-04,  avg # of iterations =  1.6

     total cpu time spent up to now is        1.4 secs

     total energy              =     -83.71260211 Ry
     Harris-Foulkes estimate   =     -83.71251494 Ry
     estimated scf accuracy    <       0.00032966 Ry

     iteration #  4     ecut=    25.00 Ry     beta= 0.70
     Davidson diagonalization with overlap
     ethr =  3.00E-06,  avg # of iterations =  3.3

     total cpu time spent up to now is        1.6 secs

     total energy              =     -83.71285570 Ry
     Harris-Foulkes estimate   =     -83.71285853 Ry
     estimated scf accuracy    <       0.00003495 Ry

     iteration #  5     ecut=    25.00 Ry     beta= 0.70
     Davidson diagonalization with overlap
     ethr =  3.18E-07,  avg # of iterations =  1.0

     total cpu time spent up to now is        1.7 secs

     total energy              =     -83.71284704 Ry
     Harris-Foulkes estimate   =     -83.71285590 Ry
     estimated scf accuracy    <       0.00002518 Ry

     iteration #  6     ecut=    25.00 Ry     beta= 0.70
     Davidson diagonalization with overlap
     ethr =  2.29E-07,  avg # of iterations =  1.3

     total cpu time spent up to now is        1.8 secs

     total energy              =     -83.71285121 Ry
     Harris-Foulkes estimate   =     -83.71285138 Ry
     estimated scf accuracy    <       0.00000046 Ry

     iteration #  7     ecut=    25.00 Ry     beta= 0.70
     Davidson diagonalization with overlap
     ethr =  4.15E-09,  avg # of iterations =  2.1

     total cpu time spent up to now is        1.9 secs

     total energy              =     -83.71285125 Ry
     Harris-Foulkes estimate   =     -83.71285128 Ry
     estimated scf accuracy    <       0.00000008 Ry

     iteration #  8     ecut=    25.00 Ry     beta= 0.70
     Davidson diagonalization with overlap
     ethr =  7.44E-10,  avg # of iterations =  1.4

     total cpu time spent up to now is        2.0 secs

     total energy              =     -83.71285126 Ry
     Harris-Foulkes estimate   =     -83.71285126 Ry
     estimated scf accuracy    <       0.00000001 Ry

     iteration #  9     ecut=    25.00 Ry     beta= 0.70
     Davidson diagonalization with overlap
     ethr =  1.04E-10,  avg # of iterations =  2.2

     total cpu time spent up to now is        2.1 secs

     End of self-consistent calculation

          k = 0.0000 0.0000 0.0000 (   259 PWs)   bands (ev):

     4.8048   7.6073   7.6073   7.6073   8.8519   8.8519  29.6308  32.8021
    32.8021  32.8021

          k =-0.1250 0.1250-0.1250 (   256 PWs)   bands (ev):

     5.2717   7.6804   7.7473   7.7473   8.8522   8.8522  28.6287  30.4907
    32.7551  32.7551

          k =-0.2500 0.2500-0.2500 (   247 PWs)   bands (ev):

     6.1774   7.9522   7.9522   8.0194   9.1134   9.1134  23.8221  30.0522
    32.3238  32.3238

          k =-0.3750 0.3750-0.3750 (   247 PWs)   bands (ev):

     6.2499   7.7718   7.7718   9.5509   9.5509  10.0860  19.0726  29.1049
    31.2919  31.2919

          k = 0.5000-0.5000 0.5000 (   242 PWs)   bands (ev):

     6.1336   7.7651   7.7651   9.8466   9.8466  12.1578  16.1459  28.6754
    30.7172  30.7172

          k = 0.0000 0.2500 0.0000 (   254 PWs)   bands (ev):

     5.4298   7.4451   8.0115   8.0115   8.5457   9.0086  29.6635  30.8464
    30.8464  31.0086

          k =-0.1250 0.3750-0.1250 (   243 PWs)   bands (ev):

     6.2906   7.4356   8.1657   8.3154   8.9251   9.2614  25.8615  29.5112
    29.8038  32.2467

          k =-0.2500 0.5000-0.2500 (   240 PWs)   bands (ev):

     6.5705   7.8439   8.1803   8.2304   9.7342  10.3640  20.8920  28.7747
    28.8457  30.4881

          k = 0.6250-0.3750 0.6250 (   246 PWs)   bands (ev):

     6.3996   7.6179   7.9369   8.8559   9.7768  12.8727  16.7741  27.4920
    28.9969  29.4851

          k = 0.5000-0.2500 0.5000 (   247 PWs)   bands (ev):

     6.4865   7.6428   7.9268   8.8517   9.4394  12.0923  17.9848  26.6983
    29.7233  30.5797

          k = 0.3750-0.1250 0.3750 (   246 PWs)   bands (ev):

     6.6356   7.7808   8.0724   8.1081   8.8774  10.1972  22.5056  26.8062
    31.1352  33.4036

          k = 0.2500 0.0000 0.2500 (   249 PWs)   bands (ev):

     5.9703   7.6113   7.9451   8.0598   8.6264   9.2505  27.3692  27.6406
    32.3988  33.8900

          k = 0.0000 0.5000 0.0000 (   234 PWs)   bands (ev):

     6.6254   7.0519   8.8556   8.9634   8.9634   9.4560  27.3978  27.3978
    28.6424  29.8526

          k =-0.1250 0.6250-0.1250 (   241 PWs)   bands (ev):

     6.6924   6.9381   8.5705   8.8987   9.7368  10.6805  23.2048  26.1187
    26.1975  29.8545

          k = 0.7500-0.2500 0.7500 (   242 PWs)   bands (ev):

     6.7215   7.2094   8.3043   8.6841   9.8429  13.5954  18.7275  23.8894
    26.3245  29.6420

          k = 0.6250-0.1250 0.6250 (   241 PWs)   bands (ev):

     6.9458   7.4829   8.1391   8.5384   9.4794  14.7912  17.6314  22.4320
    27.8657  29.6899

          k = 0.5000 0.0000 0.5000 (   248 PWs)   bands (ev):

     7.1593   7.4575   7.8902   8.3919   8.8802  12.0592  21.9223  21.9861
    30.2958  30.4566

          k = 0.0000 0.7500 0.0000 (   242 PWs)   bands (ev):

     6.3665   6.4955   9.5465   9.5966   9.5966  11.4791  23.0196  24.5001
    24.5001  29.8384

          k = 0.8750-0.1250 0.8750 (   236 PWs)   bands (ev):

     6.4145   6.5580   9.3476   9.5634   9.9594  13.9859  20.5899  21.6702
    24.2066  29.8963

          k = 0.7500 0.0000 0.7500 (   240 PWs)   bands (ev):

     6.6282   7.0394   8.5407   9.1623   9.7216  16.8887  17.8577  19.8208
    25.4735  29.7357

          k = 0.0000-1.0000 0.0000 (   230 PWs)   bands (ev):

     6.3574   6.4980   9.7305  10.0599  10.0599  14.1593  19.4699  23.3745
    23.3745  29.9650

          k =-0.2500 0.5000 0.0000 (   239 PWs)   bands (ev):

     6.9659   7.2520   8.0596   8.8107   8.9437  10.2590  24.6019  24.9827
    29.1781  32.6270

          k = 0.6250-0.3750 0.8750 (   241 PWs)   bands (ev):

     6.9109   7.5896   7.8818   8.6069   9.4841  12.3353  20.0035  24.4910
    26.9240  32.1579

          k = 0.5000-0.2500 0.7500 (   242 PWs)   bands (ev):

     6.8534   7.4025   8.2711   8.4081   9.6677  14.8902  16.5399  25.0575
    25.4163  31.6164

          k = 0.7500-0.2500 1.0000 (   247 PWs)   bands (ev):

     6.7053   6.7059   8.3431   9.3844   9.5174  12.7845  22.3741  22.5905
    23.6184  32.1276

          k = 0.6250-0.1250 0.8750 (   244 PWs)   bands (ev):

     6.8040   7.1056   8.0568   8.9926   9.7862  15.9451  18.4363  21.4187
    23.2622  32.3847

          k = 0.5000 0.0000 0.7500 (   239 PWs)   bands (ev):

     7.2341   7.5110   7.5551   8.8484   9.6370  15.0582  19.5565  20.5871
    24.8257  32.8610

          k =-0.2500-1.0000 0.0000 (   240 PWs)   bands (ev):

     6.4944   6.6064   9.0042   9.4201   9.9425  15.6860  19.4198  21.6298
    21.9616  32.0210

          k =-0.5000-1.0000 0.0000 (   252 PWs)   bands (ev):

     6.8705   7.3944   7.3944   8.8145   9.8501  18.5143  18.5143  19.5717
    20.8555  36.1238

     the Fermi energy is    12.4368 ev

!    total energy              =     -83.71285126 Ry
     Harris-Foulkes estimate   =     -83.71285126 Ry
     estimated scf accuracy    <          2.7E-09 Ry

     The total energy is the sum of the following terms:

     one-electron contribution =      -3.85100419 Ry
     hartree contribution      =      14.03116270 Ry
     xc contribution           =     -22.03152485 Ry
     ewald contribution        =     -71.86118028 Ry
     smearing contrib. (-TS)   =      -0.00030465 Ry

     convergence has been achieved in   9 iterations

     Forces acting on atoms (cartesian axes, Ry/au):

     atom    1 type  1   force =     0.00000000    0.00000000    0.00000000

     Total force =     0.000000     Total SCF correction =     0.000000


     Computing stress (Cartesian axis) and pressure

          total   stress  (Ry/bohr**3)                   (kbar)     P=-2867.47
  -0.01949266   0.00000000   0.00000000      -2867.47      0.00      0.00
   0.00000000  -0.01949266  -0.00000000          0.00  -2867.47     -0.00
   0.00000000  -0.00000000  -0.01949266          0.00     -0.00  -2867.47


     Writing output data file Ag.save/

     init_run     :      0.13s CPU      0.14s WALL (       1 calls)
     electrons    :      1.10s CPU      1.22s WALL (       1 calls)
     forces       :      0.01s CPU      0.01s WALL (       1 calls)
     stress       :      0.04s CPU      0.04s WALL (       1 calls)

     Called by init_run:
     wfcinit      :      0.04s CPU      0.04s WALL (       1 calls)
     potinit      :      0.00s CPU      0.00s WALL (       1 calls)
     hinit0       :      0.09s CPU      0.09s WALL (       1 calls)

     Called by electrons:
     c_bands      :      0.91s CPU      1.00s WALL (      10 calls)
     sum_band     :      0.16s CPU      0.18s WALL (      10 calls)
     v_of_rho     :      0.01s CPU      0.01s WALL (      10 calls)
     newd         :      0.02s CPU      0.02s WALL (      10 calls)
     mix_rho      :      0.00s CPU      0.00s WALL (      10 calls)

     Called by c_bands:
     init_us_2    :      0.02s CPU      0.02s WALL (     667 calls)
     cegterg      :      0.88s CPU      0.96s WALL (     290 calls)

     Called by sum_band:
     sum_band:bec :      0.00s CPU      0.00s WALL (     290 calls)
     addusdens    :      0.02s CPU      0.02s WALL (      10 calls)

     Called by *egterg:
     h_psi        :      0.63s CPU      0.69s WALL (     930 calls)
     s_psi        :      0.02s CPU      0.02s WALL (     930 calls)
     g_psi        :      0.00s CPU      0.00s WALL (     611 calls)
     cdiaghg      :      0.16s CPU      0.17s WALL (     872 calls)

     Called by h_psi:
     h_psi:pot    :      0.62s CPU      0.69s WALL (     930 calls)
     h_psi:calbec :      0.03s CPU      0.04s WALL (     930 calls)
     vloc_psi     :      0.57s CPU      0.62s WALL (     930 calls)
     add_vuspsi   :      0.02s CPU      0.02s WALL (     930 calls)

     General routines
     calbec       :      0.04s CPU      0.05s WALL (    1365 calls)
     fft          :      0.01s CPU      0.01s WALL (     137 calls)
     ffts         :      0.00s CPU      0.00s WALL (      10 calls)
     fftw         :      0.62s CPU      0.69s WALL (   17178 calls)

     Parallel routines
     fft_scatt_xy :      0.06s CPU      0.07s WALL (   17325 calls)
     fft_scatt_yz :      0.21s CPU      0.23s WALL (   17325 calls)

     PWSCF        :     2.05s CPU         2.23s WALL


   This run was terminated on:   0:11:33  27Mar2024            

=------------------------------------------------------------------------------=
   JOB DONE.
=------------------------------------------------------------------------------=
