
     Program PWSCF v.6.3MaX starts on 27Mar2024 at  0: 8:43 

     This program is part of the open-source Quantum ESPRESSO suite
     for quantum simulation of materials; please cite
         "P. Giannozzi et al., J. Phys.:Condens. Matter 21 395502 (2009);
         "P. Giannozzi et al., J. Phys.:Condens. Matter 29 465901 (2017);
          URL http://www.quantum-espresso.org", 
     in publications or presentations arising from this work. More details at
     http://www.quantum-espresso.org/quote

     Parallel version (MPI), running on     5 processors

     MPI processes distributed on     1 nodes
     R & G space division:  proc/nbgrp/npool/nimage =       5
     Waiting for input...
     Reading input from standard input

     Current dimensions of program PWSCF are:
     Max number of different atomic species (ntypx) = 10
     Max number of k-points (npk) =  40000
     Max angular momentum in pseudopotentials (lmaxx) =  3

     Subspace diagonalization in iterative solution of the eigenvalue problem:
     a serial algorithm will be used


     Parallelization info
     --------------------
     sticks:   dense  smooth     PW     G-vecs:    dense   smooth      PW
     Min          32      32     12                  280      280      61
     Max          33      33     13                  283      283      62
     Sum         163     163     61                 1411     1411     307



     bravais-lattice index     =            2
     lattice parameter (alat)  =       7.7200  a.u.
     unit-cell volume          =     115.0249 (a.u.)^3
     number of atoms/cell      =            1
     number of atomic types    =            1
     number of electrons       =        11.00
     number of Kohn-Sham states=           10
     kinetic-energy cutoff     =      20.0000  Ry
     charge density cutoff     =      80.0000  Ry
     convergence threshold     =      1.0E-08
     mixing beta               =       0.7000
     number of iterations used =            8  plain     mixing
     Exchange-correlation      = PBE ( 1  4  3  4 0 0)

     celldm(1)=   7.720000  celldm(2)=   0.000000  celldm(3)=   0.000000
     celldm(4)=   0.000000  celldm(5)=   0.000000  celldm(6)=   0.000000

     crystal axes: (cart. coord. in units of alat)
               a(1) = (  -0.500000   0.000000   0.500000 )  
               a(2) = (   0.000000   0.500000   0.500000 )  
               a(3) = (  -0.500000   0.500000   0.000000 )  

     reciprocal axes: (cart. coord. in units 2 pi/alat)
               b(1) = ( -1.000000 -1.000000  1.000000 )  
               b(2) = (  1.000000  1.000000  1.000000 )  
               b(3) = ( -1.000000  1.000000 -1.000000 )  


     PseudoPot. # 1 for Ag read from file:
     /home/lorenzo/pseudos/Ag/Ag.pbe-n-rrkjus_psl.1.0.0.UPF
     MD5 check sum: d841cbfac2b0861aec33b46768a516bf
     Pseudo is Ultrasoft + core correction, Zval = 11.0
     Generated using "atomic" code by A. Dal Corso v.6.2.2
     Using radial grid of 1237 points,  6 beta functions with: 
                l(1) =   0
                l(2) =   0
                l(3) =   1
                l(4) =   1
                l(5) =   2
                l(6) =   2
     Q(r) pseudized with 0 coefficients 


     atomic species   valence    mass     pseudopotential
        Ag            11.00   107.86820     Ag( 1.00)

     48 Sym. Ops., with inversion, found



   Cartesian axes

     site n.     atom                  positions (alat units)
         1           Ag  tau(   1) = (   0.0000000   0.0000000   0.0000000  )

     number of k points=     8  gaussian smearing, width (Ry)=  0.0100
                       cart. coord. in units 2pi/alat
        k(    1) = (   0.0000000   0.0000000   0.0000000), wk =   0.0312500
        k(    2) = (  -0.2500000   0.2500000  -0.2500000), wk =   0.2500000
        k(    3) = (   0.5000000  -0.5000000   0.5000000), wk =   0.1250000
        k(    4) = (   0.0000000   0.5000000   0.0000000), wk =   0.1875000
        k(    5) = (   0.7500000  -0.2500000   0.7500000), wk =   0.7500000
        k(    6) = (   0.5000000   0.0000000   0.5000000), wk =   0.3750000
        k(    7) = (   0.0000000  -1.0000000   0.0000000), wk =   0.0937500
        k(    8) = (  -0.5000000  -1.0000000   0.0000000), wk =   0.1875000

     Dense  grid:     1411 G-vectors     FFT dimensions: (  15,  15,  15)

     Estimated max dynamical RAM per process >       1.97 MB

     Estimated total dynamical RAM >       9.84 MB

     Initial potential from superposition of free atoms

     starting charge   10.99960, renormalised to   11.00000
     Starting wfcs are    9 randomized atomic wfcs +    1 random wfcs

     total cpu time spent up to now is        1.2 secs

     Self-consistent Calculation

     iteration #  1     ecut=    20.00 Ry     beta= 0.70
     Davidson diagonalization with overlap
     ethr =  1.00E-02,  avg # of iterations =  4.9

     total cpu time spent up to now is        1.2 secs

     total energy              =     -82.28234574 Ry
     Harris-Foulkes estimate   =     -82.75112084 Ry
     estimated scf accuracy    <       0.62210477 Ry

     iteration #  2     ecut=    20.00 Ry     beta= 0.70
     Davidson diagonalization with overlap
     ethr =  5.66E-03,  avg # of iterations =  2.0

     total cpu time spent up to now is        1.3 secs

     total energy              =     -82.49891847 Ry
     Harris-Foulkes estimate   =     -82.64367288 Ry
     estimated scf accuracy    <       0.27208084 Ry

     iteration #  3     ecut=    20.00 Ry     beta= 0.70
     Davidson diagonalization with overlap
     ethr =  2.47E-03,  avg # of iterations =  1.8

     total cpu time spent up to now is        1.3 secs

     total energy              =     -82.54269507 Ry
     Harris-Foulkes estimate   =     -82.54389825 Ry
     estimated scf accuracy    <       0.00420660 Ry

     iteration #  4     ecut=    20.00 Ry     beta= 0.70
     Davidson diagonalization with overlap
     ethr =  3.82E-05,  avg # of iterations =  3.8

     total cpu time spent up to now is        1.3 secs

     total energy              =     -82.54446886 Ry
     Harris-Foulkes estimate   =     -82.54470514 Ry
     estimated scf accuracy    <       0.00073286 Ry

     iteration #  5     ecut=    20.00 Ry     beta= 0.70
     Davidson diagonalization with overlap
     ethr =  6.66E-06,  avg # of iterations =  1.0

     total cpu time spent up to now is        1.3 secs

     total energy              =     -82.54445740 Ry
     Harris-Foulkes estimate   =     -82.54451199 Ry
     estimated scf accuracy    <       0.00013766 Ry

     iteration #  6     ecut=    20.00 Ry     beta= 0.70
     Davidson diagonalization with overlap
     ethr =  1.25E-06,  avg # of iterations =  1.8

     total cpu time spent up to now is        1.4 secs

     total energy              =     -82.54447805 Ry
     Harris-Foulkes estimate   =     -82.54447835 Ry
     estimated scf accuracy    <       0.00000085 Ry

     iteration #  7     ecut=    20.00 Ry     beta= 0.70
     Davidson diagonalization with overlap
     ethr =  7.76E-09,  avg # of iterations =  3.0

     total cpu time spent up to now is        1.4 secs

     End of self-consistent calculation

          k = 0.0000 0.0000 0.0000 (   169 PWs)   bands (ev):

     5.0332   8.0545   8.0545   8.0545   8.6718   8.6718  30.1582  32.9781
    32.9781  32.9781

          k =-0.2500 0.2500-0.2500 (   168 PWs)   bands (ev):

     6.4931   8.2226   8.2226   8.5509   9.2126   9.2126  24.2488  30.6545
    32.5378  32.5378

          k = 0.5000-0.5000 0.5000 (   168 PWs)   bands (ev):

     6.3868   8.4132   8.4132   9.7551   9.7551  12.3969  16.3851  29.1879
    30.7012  30.7012

          k = 0.0000 0.5000 0.0000 (   165 PWs)   bands (ev):

     6.9394   7.5669   9.0364   9.3065   9.3377   9.3377  27.6402  27.6402
    29.4118  30.5397

          k = 0.7500-0.2500 0.7500 (   178 PWs)   bands (ev):

     6.9225   7.2901   8.0738   8.5894   9.4809  13.7444  18.8556  24.1331
    26.4528  30.2056

          k = 0.5000 0.0000 0.5000 (   170 PWs)   bands (ev):

     7.5249   7.7850   8.0526   8.9186   9.1116  12.1919  22.1630  22.3415
    30.7988  30.8127

          k = 0.0000-1.0000 0.0000 (   190 PWs)   bands (ev):

     6.0042   6.4714   8.4088   8.9399   8.9399  14.3526  19.2861  23.4884
    23.4884  30.0244

          k =-0.5000-1.0000 0.0000 (   176 PWs)   bands (ev):

     6.9438   7.6381   7.6381   9.0747   9.8639  18.7964  18.7964  19.4853
    21.2646  36.9198

     the Fermi energy is    13.5778 ev

!    total energy              =     -82.54447878 Ry
     Harris-Foulkes estimate   =     -82.54447878 Ry
     estimated scf accuracy    <          2.4E-09 Ry

     The total energy is the sum of the following terms:

     one-electron contribution =      -1.56589784 Ry
     hartree contribution      =      12.81823267 Ry
     xc contribution           =     -21.93516102 Ry
     ewald contribution        =     -71.86118020 Ry
     smearing contrib. (-TS)   =      -0.00047239 Ry

     convergence has been achieved in   7 iterations

     Forces acting on atoms (cartesian axes, Ry/au):

     atom    1 type  1   force =     0.00000000    0.00000000    0.00000000

     Total force =     0.000000     Total SCF correction =     0.000000


     Computing stress (Cartesian axis) and pressure

          total   stress  (Ry/bohr**3)                   (kbar)     P=-7122.21
  -0.04841580   0.00000000  -0.00000000      -7122.21      0.00     -0.00
   0.00000000  -0.04841580   0.00000000          0.00  -7122.21      0.00
  -0.00000000   0.00000000  -0.04841580         -0.00      0.00  -7122.21


     Writing output data file Ag.save/

     init_run     :      0.10s CPU      0.10s WALL (       1 calls)
     electrons    :      0.19s CPU      0.22s WALL (       1 calls)
     forces       :      0.01s CPU      0.01s WALL (       1 calls)
     stress       :      0.02s CPU      0.02s WALL (       1 calls)

     Called by init_run:
     wfcinit      :      0.01s CPU      0.01s WALL (       1 calls)
     potinit      :      0.00s CPU      0.00s WALL (       1 calls)
     hinit0       :      0.08s CPU      0.08s WALL (       1 calls)

     Called by electrons:
     c_bands      :      0.14s CPU      0.17s WALL (       7 calls)
     sum_band     :      0.03s CPU      0.03s WALL (       7 calls)
     v_of_rho     :      0.01s CPU      0.01s WALL (       8 calls)
     newd         :      0.01s CPU      0.01s WALL (       8 calls)
     mix_rho      :      0.00s CPU      0.00s WALL (       7 calls)

     Called by c_bands:
     init_us_2    :      0.00s CPU      0.00s WALL (     136 calls)
     cegterg      :      0.13s CPU      0.16s WALL (      56 calls)

     Called by sum_band:
     sum_band:bec :      0.00s CPU      0.00s WALL (      56 calls)
     addusdens    :      0.01s CPU      0.01s WALL (       7 calls)

     Called by *egterg:
     h_psi        :      0.08s CPU      0.10s WALL (     209 calls)
     s_psi        :      0.00s CPU      0.00s WALL (     209 calls)
     g_psi        :      0.00s CPU      0.00s WALL (     145 calls)
     cdiaghg      :      0.04s CPU      0.05s WALL (     201 calls)

     Called by h_psi:
     h_psi:pot    :      0.08s CPU      0.10s WALL (     209 calls)
     h_psi:calbec :      0.00s CPU      0.01s WALL (     209 calls)
     vloc_psi     :      0.07s CPU      0.08s WALL (     209 calls)
     add_vuspsi   :      0.00s CPU      0.00s WALL (     209 calls)

     General routines
     calbec       :      0.01s CPU      0.01s WALL (     305 calls)
     fft          :      0.00s CPU      0.00s WALL (     114 calls)
     ffts         :      0.00s CPU      0.00s WALL (       7 calls)
     fftw         :      0.08s CPU      0.09s WALL (    3574 calls)

     Parallel routines
     fft_scatt_xy :      0.01s CPU      0.01s WALL (    3695 calls)
     fft_scatt_yz :      0.03s CPU      0.04s WALL (    3695 calls)

     PWSCF        :     1.40s CPU         1.47s WALL


   This run was terminated on:   0: 8:44  27Mar2024            

=------------------------------------------------------------------------------=
   JOB DONE.
=------------------------------------------------------------------------------=
