
     Program PWSCF v.6.3MaX starts on 27Mar2024 at  0:47:12 

     This program is part of the open-source Quantum ESPRESSO suite
     for quantum simulation of materials; please cite
         "P. Giannozzi et al., J. Phys.:Condens. Matter 21 395502 (2009);
         "P. Giannozzi et al., J. Phys.:Condens. Matter 29 465901 (2017);
          URL http://www.quantum-espresso.org", 
     in publications or presentations arising from this work. More details at
     http://www.quantum-espresso.org/quote

     Parallel version (MPI), running on     5 processors

     MPI processes distributed on     1 nodes
     R & G space division:  proc/nbgrp/npool/nimage =       5
     Waiting for input...
     Reading input from standard input

     Current dimensions of program PWSCF are:
     Max number of different atomic species (ntypx) = 10
     Max number of k-points (npk) =  40000
     Max angular momentum in pseudopotentials (lmaxx) =  3
               file Ag.pbe-n-kjpaw_psl.1.0.0.UPF: wavefunction(s)  5S 5P renormalized

     Subspace diagonalization in iterative solution of the eigenvalue problem:
     a serial algorithm will be used


     Parallelization info
     --------------------
     sticks:   dense  smooth     PW     G-vecs:    dense   smooth      PW
     Min         153     153     46                 2863     2863     455
     Max         154     154     48                 2867     2867     456
     Sum         769     769    235                14331    14331    2277



     bravais-lattice index     =            2
     lattice parameter (alat)  =       7.7200  a.u.
     unit-cell volume          =     115.0249 (a.u.)^3
     number of atoms/cell      =            1
     number of atomic types    =            1
     number of electrons       =        11.00
     number of Kohn-Sham states=           10
     kinetic-energy cutoff     =      95.0000  Ry
     charge density cutoff     =     380.0000  Ry
     convergence threshold     =      1.0E-08
     mixing beta               =       0.7000
     number of iterations used =            8  plain     mixing
     Exchange-correlation      = SLA PW PBX PBC ( 1  4  3  4 0 0)

     celldm(1)=   7.720000  celldm(2)=   0.000000  celldm(3)=   0.000000
     celldm(4)=   0.000000  celldm(5)=   0.000000  celldm(6)=   0.000000

     crystal axes: (cart. coord. in units of alat)
               a(1) = (  -0.500000   0.000000   0.500000 )  
               a(2) = (   0.000000   0.500000   0.500000 )  
               a(3) = (  -0.500000   0.500000   0.000000 )  

     reciprocal axes: (cart. coord. in units 2 pi/alat)
               b(1) = ( -1.000000 -1.000000  1.000000 )  
               b(2) = (  1.000000  1.000000  1.000000 )  
               b(3) = ( -1.000000  1.000000 -1.000000 )  


     PseudoPot. # 1 for Ag read from file:
     /home/lorenzo/pseudos/Ag/Ag.pbe-n-kjpaw_psl.1.0.0.UPF
     MD5 check sum: 51099775af2a3182a6a1caffb86952a3
     Pseudo is Projector augmented-wave + core cor, Zval = 11.0
     Generated using "atomic" code by A. Dal Corso v.6.2.2
     Shape of augmentation charge: PSQ
     Using radial grid of 1237 points,  6 beta functions with: 
                l(1) =   0
                l(2) =   0
                l(3) =   1
                l(4) =   1
                l(5) =   2
                l(6) =   2
     Q(r) pseudized with 0 coefficients 


     atomic species   valence    mass     pseudopotential
        Ag            11.00   107.86820     Ag( 1.00)

     48 Sym. Ops., with inversion, found



   Cartesian axes

     site n.     atom                  positions (alat units)
         1           Ag  tau(   1) = (   0.0000000   0.0000000   0.0000000  )

     number of k points=     3  gaussian smearing, width (Ry)=  0.0100
                       cart. coord. in units 2pi/alat
        k(    1) = (   0.0000000   0.0000000   0.0000000), wk =   0.2500000
        k(    2) = (   0.5000000  -0.5000000   0.5000000), wk =   1.0000000
        k(    3) = (   0.0000000  -1.0000000   0.0000000), wk =   0.7500000

     Dense  grid:    14331 G-vectors     FFT dimensions: (  36,  36,  36)

     Estimated max dynamical RAM per process >      12.94 MB

     Estimated total dynamical RAM >      64.68 MB

     Initial potential from superposition of free atoms

     starting charge   10.99960, renormalised to   11.00000
     Starting wfcs are    9 randomized atomic wfcs +    1 random wfcs
     Checking if some PAW data can be deallocated... 

     total cpu time spent up to now is        1.2 secs

     Self-consistent Calculation

     iteration #  1     ecut=    95.00 Ry     beta= 0.70
     Davidson diagonalization with overlap
     ethr =  1.00E-02,  avg # of iterations =  6.7

     Threshold (ethr) on eigenvalues was too large:
     Diagonalizing with lowered threshold

     Davidson diagonalization with overlap
     ethr =  2.07E-05,  avg # of iterations =  3.7

     total cpu time spent up to now is        1.5 secs

     total energy              =    -355.15997998 Ry
     Harris-Foulkes estimate   =    -355.15988382 Ry
     estimated scf accuracy    <       0.00214835 Ry

     iteration #  2     ecut=    95.00 Ry     beta= 0.70
     Davidson diagonalization with overlap
     ethr =  1.95E-05,  avg # of iterations =  2.0

     total cpu time spent up to now is        1.7 secs

     total energy              =    -355.16018270 Ry
     Harris-Foulkes estimate   =    -355.16029919 Ry
     estimated scf accuracy    <       0.00030007 Ry

     iteration #  3     ecut=    95.00 Ry     beta= 0.70
     Davidson diagonalization with overlap
     ethr =  2.73E-06,  avg # of iterations =  2.0

     total cpu time spent up to now is        1.9 secs

     total energy              =    -355.16026287 Ry
     Harris-Foulkes estimate   =    -355.16027983 Ry
     estimated scf accuracy    <       0.00007248 Ry

     iteration #  4     ecut=    95.00 Ry     beta= 0.70
     Davidson diagonalization with overlap
     ethr =  6.59E-07,  avg # of iterations =  3.7

     total cpu time spent up to now is        2.2 secs

     total energy              =    -355.16027186 Ry
     Harris-Foulkes estimate   =    -355.16027191 Ry
     estimated scf accuracy    <       0.00000016 Ry

     iteration #  5     ecut=    95.00 Ry     beta= 0.70
     Davidson diagonalization with overlap
     ethr =  1.46E-09,  avg # of iterations =  3.7

     total cpu time spent up to now is        2.3 secs

     total energy              =    -355.16027217 Ry
     Harris-Foulkes estimate   =    -355.16027219 Ry
     estimated scf accuracy    <       0.00000006 Ry

     iteration #  6     ecut=    95.00 Ry     beta= 0.70
     Davidson diagonalization with overlap
     ethr =  5.50E-10,  avg # of iterations =  1.0

     total cpu time spent up to now is        2.5 secs

     total energy              =    -355.16027217 Ry
     Harris-Foulkes estimate   =    -355.16027218 Ry
     estimated scf accuracy    <       0.00000002 Ry

     iteration #  7     ecut=    95.00 Ry     beta= 0.70
     Davidson diagonalization with overlap
     ethr =  1.70E-10,  avg # of iterations =  2.0

     total cpu time spent up to now is        2.7 secs

     End of self-consistent calculation

          k = 0.0000 0.0000 0.0000 (  1807 PWs)   bands (ev):

     5.0733   8.3560   8.3560   8.3560   9.4429   9.4429  29.7671  33.1040
    33.1040  33.1040

          k = 0.5000-0.5000 0.5000 (  1802 PWs)   bands (ev):

     6.6607   8.3407   8.3407  10.2488  10.2488  12.4464  16.6324  28.7897
    31.1550  31.1550

          k = 0.0000-1.0000 0.0000 (  1772 PWs)   bands (ev):

     6.6436   6.8036  10.2281  10.4544  10.4544  14.4917  19.7368  23.7482
    23.7482  30.0915

     the Fermi energy is    12.5113 ev

!    total energy              =    -355.16027217 Ry
     Harris-Foulkes estimate   =    -355.16027217 Ry
     estimated scf accuracy    <          1.7E-10 Ry

     total all-electron energy =    -10632.126326 Ry

     The total energy is the sum of the following terms:

     one-electron contribution =       1.58773446 Ry
     hartree contribution      =      14.89295855 Ry
     xc contribution           =     -22.42139133 Ry
     ewald contribution        =     -71.86118018 Ry
     one-center paw contrib.   =    -277.35614666 Ry
     smearing contrib. (-TS)   =      -0.00224702 Ry

     convergence has been achieved in   7 iterations

     Forces acting on atoms (cartesian axes, Ry/au):

     atom    1 type  1   force =     0.00000000    0.00000000    0.00000000

     Total force =     0.000000     Total SCF correction =     0.000000


     Computing stress (Cartesian axis) and pressure

          total   stress  (Ry/bohr**3)                   (kbar)     P=  284.98
   0.00193727   0.00000000   0.00000000        284.98      0.00      0.00
   0.00000000   0.00193727  -0.00000000          0.00    284.98     -0.00
   0.00000000  -0.00000000   0.00193727          0.00     -0.00    284.98


     Writing output data file Ag.save/

     init_run     :      0.36s CPU      0.38s WALL (       1 calls)
     electrons    :      1.48s CPU      1.54s WALL (       1 calls)
     forces       :      0.06s CPU      0.06s WALL (       1 calls)
     stress       :      0.21s CPU      0.22s WALL (       1 calls)

     Called by init_run:
     wfcinit      :      0.02s CPU      0.02s WALL (       1 calls)
     potinit      :      0.10s CPU      0.12s WALL (       1 calls)
     hinit0       :      0.20s CPU      0.20s WALL (       1 calls)

     Called by electrons:
     c_bands      :      0.39s CPU      0.41s WALL (       8 calls)
     sum_band     :      0.21s CPU      0.22s WALL (       8 calls)
     v_of_rho     :      0.08s CPU      0.08s WALL (       8 calls)
     newd         :      0.12s CPU      0.12s WALL (       8 calls)
     PAW_pot      :      0.77s CPU      0.81s WALL (       8 calls)
     mix_rho      :      0.01s CPU      0.01s WALL (       8 calls)

     Called by c_bands:
     init_us_2    :      0.01s CPU      0.01s WALL (      57 calls)
     cegterg      :      0.37s CPU      0.39s WALL (      24 calls)

     Called by sum_band:
     sum_band:bec :      0.00s CPU      0.00s WALL (      24 calls)
     addusdens    :      0.12s CPU      0.12s WALL (       8 calls)

     Called by *egterg:
     h_psi        :      0.31s CPU      0.33s WALL (     101 calls)
     s_psi        :      0.01s CPU      0.01s WALL (     101 calls)
     g_psi        :      0.00s CPU      0.00s WALL (      74 calls)
     cdiaghg      :      0.02s CPU      0.02s WALL (      95 calls)

     Called by h_psi:
     h_psi:pot    :      0.30s CPU      0.32s WALL (     101 calls)
     h_psi:calbec :      0.01s CPU      0.01s WALL (     101 calls)
     vloc_psi     :      0.28s CPU      0.30s WALL (     101 calls)
     add_vuspsi   :      0.01s CPU      0.01s WALL (     101 calls)

     General routines
     calbec       :      0.02s CPU      0.02s WALL (     140 calls)
     fft          :      0.05s CPU      0.06s WALL (     115 calls)
     ffts         :      0.00s CPU      0.00s WALL (       8 calls)
     fftw         :      0.31s CPU      0.33s WALL (    1512 calls)

     Parallel routines
     fft_scatt_xy :      0.03s CPU      0.03s WALL (    1635 calls)
     fft_scatt_yz :      0.09s CPU      0.10s WALL (    1635 calls)

     PWSCF        :     2.91s CPU         3.03s WALL


   This run was terminated on:   0:47:15  27Mar2024            

=------------------------------------------------------------------------------=
   JOB DONE.
=------------------------------------------------------------------------------=
