
     Program PWSCF v.6.3MaX starts on 27Mar2024 at  0:26:13 

     This program is part of the open-source Quantum ESPRESSO suite
     for quantum simulation of materials; please cite
         "P. Giannozzi et al., J. Phys.:Condens. Matter 21 395502 (2009);
         "P. Giannozzi et al., J. Phys.:Condens. Matter 29 465901 (2017);
          URL http://www.quantum-espresso.org", 
     in publications or presentations arising from this work. More details at
     http://www.quantum-espresso.org/quote

     Parallel version (MPI), running on     5 processors

     MPI processes distributed on     1 nodes
     R & G space division:  proc/nbgrp/npool/nimage =       5
     Waiting for input...
     Reading input from standard input

     Current dimensions of program PWSCF are:
     Max number of different atomic species (ntypx) = 10
     Max number of k-points (npk) =  40000
     Max angular momentum in pseudopotentials (lmaxx) =  3
               file Ag.pbe-n-kjpaw_psl.1.0.0.UPF: wavefunction(s)  5S 5P renormalized

     Subspace diagonalization in iterative solution of the eigenvalue problem:
     a serial algorithm will be used


     Parallelization info
     --------------------
     sticks:   dense  smooth     PW     G-vecs:    dense   smooth      PW
     Min          99      99     30                 1446     1446     248
     Max         100     100     31                 1449     1449     251
     Sum         499     499    151                 7239     7239    1243



     bravais-lattice index     =            2
     lattice parameter (alat)  =       7.7200  a.u.
     unit-cell volume          =     115.0249 (a.u.)^3
     number of atoms/cell      =            1
     number of atomic types    =            1
     number of electrons       =        11.00
     number of Kohn-Sham states=           10
     kinetic-energy cutoff     =      60.0000  Ry
     charge density cutoff     =     240.0000  Ry
     convergence threshold     =      1.0E-08
     mixing beta               =       0.7000
     number of iterations used =            8  plain     mixing
     Exchange-correlation      = SLA PW PBX PBC ( 1  4  3  4 0 0)

     celldm(1)=   7.720000  celldm(2)=   0.000000  celldm(3)=   0.000000
     celldm(4)=   0.000000  celldm(5)=   0.000000  celldm(6)=   0.000000

     crystal axes: (cart. coord. in units of alat)
               a(1) = (  -0.500000   0.000000   0.500000 )  
               a(2) = (   0.000000   0.500000   0.500000 )  
               a(3) = (  -0.500000   0.500000   0.000000 )  

     reciprocal axes: (cart. coord. in units 2 pi/alat)
               b(1) = ( -1.000000 -1.000000  1.000000 )  
               b(2) = (  1.000000  1.000000  1.000000 )  
               b(3) = ( -1.000000  1.000000 -1.000000 )  


     PseudoPot. # 1 for Ag read from file:
     /home/lorenzo/pseudos/Ag/Ag.pbe-n-kjpaw_psl.1.0.0.UPF
     MD5 check sum: 51099775af2a3182a6a1caffb86952a3
     Pseudo is Projector augmented-wave + core cor, Zval = 11.0
     Generated using "atomic" code by A. Dal Corso v.6.2.2
     Shape of augmentation charge: PSQ
     Using radial grid of 1237 points,  6 beta functions with: 
                l(1) =   0
                l(2) =   0
                l(3) =   1
                l(4) =   1
                l(5) =   2
                l(6) =   2
     Q(r) pseudized with 0 coefficients 


     atomic species   valence    mass     pseudopotential
        Ag            11.00   107.86820     Ag( 1.00)

     48 Sym. Ops., with inversion, found



   Cartesian axes

     site n.     atom                  positions (alat units)
         1           Ag  tau(   1) = (   0.0000000   0.0000000   0.0000000  )

     number of k points=     8  gaussian smearing, width (Ry)=  0.0100
                       cart. coord. in units 2pi/alat
        k(    1) = (   0.0000000   0.0000000   0.0000000), wk =   0.0312500
        k(    2) = (  -0.2500000   0.2500000  -0.2500000), wk =   0.2500000
        k(    3) = (   0.5000000  -0.5000000   0.5000000), wk =   0.1250000
        k(    4) = (   0.0000000   0.5000000   0.0000000), wk =   0.1875000
        k(    5) = (   0.7500000  -0.2500000   0.7500000), wk =   0.7500000
        k(    6) = (   0.5000000   0.0000000   0.5000000), wk =   0.3750000
        k(    7) = (   0.0000000  -1.0000000   0.0000000), wk =   0.0937500
        k(    8) = (  -0.5000000  -1.0000000   0.0000000), wk =   0.1875000

     Dense  grid:     7239 G-vectors     FFT dimensions: (  27,  27,  27)

     Estimated max dynamical RAM per process >       7.17 MB

     Estimated total dynamical RAM >      35.86 MB

     Initial potential from superposition of free atoms

     starting charge   10.99960, renormalised to   11.00000
     Starting wfcs are    9 randomized atomic wfcs +    1 random wfcs
     Checking if some PAW data can be deallocated... 

     total cpu time spent up to now is        1.1 secs

     Self-consistent Calculation

     iteration #  1     ecut=    60.00 Ry     beta= 0.70
     Davidson diagonalization with overlap
     ethr =  1.00E-02,  avg # of iterations =  5.6

     Threshold (ethr) on eigenvalues was too large:
     Diagonalizing with lowered threshold

     Davidson diagonalization with overlap
     ethr =  2.94E-05,  avg # of iterations =  3.0

     total cpu time spent up to now is        1.5 secs

     total energy              =    -355.29089625 Ry
     Harris-Foulkes estimate   =    -355.29296618 Ry
     estimated scf accuracy    <       0.00360192 Ry

     iteration #  2     ecut=    60.00 Ry     beta= 0.70
     Davidson diagonalization with overlap
     ethr =  3.27E-05,  avg # of iterations =  2.0

     total cpu time spent up to now is        1.8 secs

     total energy              =    -355.29191313 Ry
     Harris-Foulkes estimate   =    -355.29309555 Ry
     estimated scf accuracy    <       0.00250894 Ry

     iteration #  3     ecut=    60.00 Ry     beta= 0.70
     Davidson diagonalization with overlap
     ethr =  2.28E-05,  avg # of iterations =  2.0

     total cpu time spent up to now is        1.9 secs

     total energy              =    -355.29240389 Ry
     Harris-Foulkes estimate   =    -355.29238338 Ry
     estimated scf accuracy    <       0.00001559 Ry

     iteration #  4     ecut=    60.00 Ry     beta= 0.70
     Davidson diagonalization with overlap
     ethr =  1.42E-07,  avg # of iterations =  2.6

     total cpu time spent up to now is        2.1 secs

     total energy              =    -355.29240976 Ry
     Harris-Foulkes estimate   =    -355.29240950 Ry
     estimated scf accuracy    <       0.00000031 Ry

     iteration #  5     ecut=    60.00 Ry     beta= 0.70
     Davidson diagonalization with overlap
     ethr =  2.82E-09,  avg # of iterations =  2.0

     total cpu time spent up to now is        2.3 secs

     End of self-consistent calculation

          k = 0.0000 0.0000 0.0000 (   893 PWs)   bands (ev):

     5.0616   8.0641   8.0641   8.0641   9.1060   9.1060  29.7987  33.0856
    33.0856  37.3712

          k =-0.2500 0.2500-0.2500 (   902 PWs)   bands (ev):

     6.4506   8.2667   8.2667   8.2947   9.2321   9.2321  24.0706  30.1984
    32.6095  32.6096

          k = 0.5000-0.5000 0.5000 (   886 PWs)   bands (ev):

     6.4606   8.0434   8.0434   9.9030   9.9030  12.4435  16.4624  28.8363
    31.0941  31.0941

          k = 0.0000 0.5000 0.0000 (   902 PWs)   bands (ev):

     6.8613   7.2692   8.9419   8.9419   9.0613   9.4788  27.6334  27.6334
    28.6987  29.8600

          k = 0.7500-0.2500 0.7500 (   898 PWs)   bands (ev):

     6.9348   7.5018   8.5440   8.9068   9.9600  13.8695  19.0097  24.1288
    26.6317  29.7475

          k = 0.5000 0.0000 0.5000 (   907 PWs)   bands (ev):

     7.5029   7.7297   8.1229   8.7261   9.1169  12.3124  22.1626  22.2849
    30.4849  30.7453

          k = 0.0000-1.0000 0.0000 (   934 PWs)   bands (ev):

     6.4192   6.5598   9.8715  10.1096  10.1096  14.4716  19.5921  23.7113
    23.7113  29.9588

          k =-0.5000-1.0000 0.0000 (   892 PWs)   bands (ev):

     7.1736   7.7874   7.7874   9.1165  10.1113  18.8375  18.8375  19.9282
    21.0597  36.2665

     the Fermi energy is    13.7029 ev

!    total energy              =    -355.29240979 Ry
     Harris-Foulkes estimate   =    -355.29240980 Ry
     estimated scf accuracy    <          7.9E-09 Ry

     total all-electron energy =    -10632.258464 Ry

     The total energy is the sum of the following terms:

     one-electron contribution =       1.58341805 Ry
     hartree contribution      =      14.65488879 Ry
     xc contribution           =     -22.35178111 Ry
     ewald contribution        =     -71.86118019 Ry
     one-center paw contrib.   =    -277.31728294 Ry
     smearing contrib. (-TS)   =      -0.00047239 Ry

     convergence has been achieved in   5 iterations

     Forces acting on atoms (cartesian axes, Ry/au):

     atom    1 type  1   force =     0.00000000    0.00000000    0.00000000

     Total force =     0.000000     Total SCF correction =     0.000000


     Computing stress (Cartesian axis) and pressure

          total   stress  (Ry/bohr**3)                   (kbar)     P=   53.18
   0.00036150   0.00000000   0.00000000         53.18      0.00      0.00
   0.00000000   0.00036150  -0.00000000          0.00     53.18     -0.00
   0.00000000  -0.00000000   0.00036150          0.00     -0.00     53.18


     Writing output data file Ag.save/

     init_run     :      0.30s CPU      0.32s WALL (       1 calls)
     electrons    :      1.11s CPU      1.20s WALL (       1 calls)
     forces       :      0.03s CPU      0.03s WALL (       1 calls)
     stress       :      0.08s CPU      0.08s WALL (       1 calls)

     Called by init_run:
     wfcinit      :      0.02s CPU      0.02s WALL (       1 calls)
     potinit      :      0.10s CPU      0.11s WALL (       1 calls)
     hinit0       :      0.15s CPU      0.16s WALL (       1 calls)

     Called by electrons:
     c_bands      :      0.46s CPU      0.48s WALL (       6 calls)
     sum_band     :      0.12s CPU      0.12s WALL (       6 calls)
     v_of_rho     :      0.02s CPU      0.02s WALL (       6 calls)
     newd         :      0.05s CPU      0.05s WALL (       6 calls)
     PAW_pot      :      0.56s CPU      0.63s WALL (       6 calls)
     mix_rho      :      0.00s CPU      0.00s WALL (       6 calls)

     Called by c_bands:
     init_us_2    :      0.02s CPU      0.02s WALL (     120 calls)
     cegterg      :      0.44s CPU      0.46s WALL (      48 calls)

     Called by sum_band:
     sum_band:bec :      0.00s CPU      0.00s WALL (      48 calls)
     addusdens    :      0.04s CPU      0.04s WALL (       6 calls)

     Called by *egterg:
     h_psi        :      0.34s CPU      0.36s WALL (     194 calls)
     s_psi        :      0.01s CPU      0.01s WALL (     194 calls)
     g_psi        :      0.00s CPU      0.00s WALL (     138 calls)
     cdiaghg      :      0.05s CPU      0.05s WALL (     178 calls)

     Called by h_psi:
     h_psi:pot    :      0.34s CPU      0.35s WALL (     194 calls)
     h_psi:calbec :      0.02s CPU      0.02s WALL (     194 calls)
     vloc_psi     :      0.31s CPU      0.32s WALL (     194 calls)
     add_vuspsi   :      0.01s CPU      0.01s WALL (     194 calls)

     General routines
     calbec       :      0.02s CPU      0.02s WALL (     282 calls)
     fft          :      0.02s CPU      0.02s WALL (      93 calls)
     ffts         :      0.00s CPU      0.00s WALL (       6 calls)
     fftw         :      0.34s CPU      0.35s WALL (    3028 calls)

     Parallel routines
     fft_scatt_xy :      0.03s CPU      0.03s WALL (    3127 calls)
     fft_scatt_yz :      0.06s CPU      0.06s WALL (    3127 calls)

     PWSCF        :     2.34s CPU         2.48s WALL


   This run was terminated on:   0:26:15  27Mar2024            

=------------------------------------------------------------------------------=
   JOB DONE.
=------------------------------------------------------------------------------=
