
     Program PWSCF v.6.3MaX starts on 27Mar2024 at  0:24:15 

     This program is part of the open-source Quantum ESPRESSO suite
     for quantum simulation of materials; please cite
         "P. Giannozzi et al., J. Phys.:Condens. Matter 21 395502 (2009);
         "P. Giannozzi et al., J. Phys.:Condens. Matter 29 465901 (2017);
          URL http://www.quantum-espresso.org", 
     in publications or presentations arising from this work. More details at
     http://www.quantum-espresso.org/quote

     Parallel version (MPI), running on     5 processors

     MPI processes distributed on     1 nodes
     R & G space division:  proc/nbgrp/npool/nimage =       5
     Waiting for input...
     Reading input from standard input

     Current dimensions of program PWSCF are:
     Max number of different atomic species (ntypx) = 10
     Max number of k-points (npk) =  40000
     Max angular momentum in pseudopotentials (lmaxx) =  3
               file Ag.pbe-n-kjpaw_psl.1.0.0.UPF: wavefunction(s)  5S 5P renormalized

     Subspace diagonalization in iterative solution of the eigenvalue problem:
     a serial algorithm will be used


     Parallelization info
     --------------------
     sticks:   dense  smooth     PW     G-vecs:    dense   smooth      PW
     Min          90      90     30                 1274     1274     241
     Max          91      91     31                 1276     1276     244
     Sum         451     451    151                 6375     6375    1211



     bravais-lattice index     =            2
     lattice parameter (alat)  =       7.7200  a.u.
     unit-cell volume          =     115.0249 (a.u.)^3
     number of atoms/cell      =            1
     number of atomic types    =            1
     number of electrons       =        11.00
     number of Kohn-Sham states=           10
     kinetic-energy cutoff     =      55.0000  Ry
     charge density cutoff     =     220.0000  Ry
     convergence threshold     =      1.0E-08
     mixing beta               =       0.7000
     number of iterations used =            8  plain     mixing
     Exchange-correlation      = SLA PW PBX PBC ( 1  4  3  4 0 0)

     celldm(1)=   7.720000  celldm(2)=   0.000000  celldm(3)=   0.000000
     celldm(4)=   0.000000  celldm(5)=   0.000000  celldm(6)=   0.000000

     crystal axes: (cart. coord. in units of alat)
               a(1) = (  -0.500000   0.000000   0.500000 )  
               a(2) = (   0.000000   0.500000   0.500000 )  
               a(3) = (  -0.500000   0.500000   0.000000 )  

     reciprocal axes: (cart. coord. in units 2 pi/alat)
               b(1) = ( -1.000000 -1.000000  1.000000 )  
               b(2) = (  1.000000  1.000000  1.000000 )  
               b(3) = ( -1.000000  1.000000 -1.000000 )  


     PseudoPot. # 1 for Ag read from file:
     /home/lorenzo/pseudos/Ag/Ag.pbe-n-kjpaw_psl.1.0.0.UPF
     MD5 check sum: 51099775af2a3182a6a1caffb86952a3
     Pseudo is Projector augmented-wave + core cor, Zval = 11.0
     Generated using "atomic" code by A. Dal Corso v.6.2.2
     Shape of augmentation charge: PSQ
     Using radial grid of 1237 points,  6 beta functions with: 
                l(1) =   0
                l(2) =   0
                l(3) =   1
                l(4) =   1
                l(5) =   2
                l(6) =   2
     Q(r) pseudized with 0 coefficients 


     atomic species   valence    mass     pseudopotential
        Ag            11.00   107.86820     Ag( 1.00)

     48 Sym. Ops., with inversion, found



   Cartesian axes

     site n.     atom                  positions (alat units)
         1           Ag  tau(   1) = (   0.0000000   0.0000000   0.0000000  )

     number of k points=    20  gaussian smearing, width (Ry)=  0.0100
                       cart. coord. in units 2pi/alat
        k(    1) = (   0.0000000   0.0000000   0.0000000), wk =   0.0058309
        k(    2) = (  -0.1428571   0.1428571  -0.1428571), wk =   0.0466472
        k(    3) = (  -0.2857143   0.2857143  -0.2857143), wk =   0.0466472
        k(    4) = (  -0.4285714   0.4285714  -0.4285714), wk =   0.0466472
        k(    5) = (   0.0000000   0.2857143   0.0000000), wk =   0.0349854
        k(    6) = (  -0.1428571   0.4285714  -0.1428571), wk =   0.1399417
        k(    7) = (  -0.2857143   0.5714286  -0.2857143), wk =   0.1399417
        k(    8) = (   0.5714286  -0.2857143   0.5714286), wk =   0.1399417
        k(    9) = (   0.4285714  -0.1428571   0.4285714), wk =   0.1399417
        k(   10) = (   0.2857143  -0.0000000   0.2857143), wk =   0.0699708
        k(   11) = (   0.0000000   0.5714286   0.0000000), wk =   0.0349854
        k(   12) = (  -0.1428571   0.7142857  -0.1428571), wk =   0.1399417
        k(   13) = (   0.7142857  -0.1428571   0.7142857), wk =   0.1399417
        k(   14) = (   0.5714286   0.0000000   0.5714286), wk =   0.0699708
        k(   15) = (   0.0000000   0.8571429   0.0000000), wk =   0.0349854
        k(   16) = (   0.8571429  -0.0000000   0.8571429), wk =   0.0699708
        k(   17) = (  -0.2857143   0.5714286   0.0000000), wk =   0.1399417
        k(   18) = (   0.5714286  -0.2857143   0.8571429), wk =   0.2798834
        k(   19) = (   0.7142857  -0.1428571   1.0000000), wk =   0.1399417
        k(   20) = (   0.5714286   0.0000000   0.8571429), wk =   0.1399417

     Dense  grid:     6375 G-vectors     FFT dimensions: (  25,  25,  25)

     Estimated max dynamical RAM per process >       6.67 MB

     Estimated total dynamical RAM >      33.36 MB

     Initial potential from superposition of free atoms

     starting charge   10.99960, renormalised to   11.00000
     Starting wfcs are    9 randomized atomic wfcs +    1 random wfcs
     Checking if some PAW data can be deallocated... 

     total cpu time spent up to now is        1.1 secs

     Self-consistent Calculation

     iteration #  1     ecut=    55.00 Ry     beta= 0.70
     Davidson diagonalization with overlap
     ethr =  1.00E-02,  avg # of iterations =  4.4

     Threshold (ethr) on eigenvalues was too large:
     Diagonalizing with lowered threshold

     Davidson diagonalization with overlap
     ethr =  2.70E-05,  avg # of iterations =  2.9

     total cpu time spent up to now is        1.6 secs

     total energy              =    -355.30643082 Ry
     Harris-Foulkes estimate   =    -355.30826792 Ry
     estimated scf accuracy    <       0.00328485 Ry

     iteration #  2     ecut=    55.00 Ry     beta= 0.70
     Davidson diagonalization with overlap
     ethr =  2.99E-05,  avg # of iterations =  2.0

     total cpu time spent up to now is        1.9 secs

     total energy              =    -355.30736744 Ry
     Harris-Foulkes estimate   =    -355.30846869 Ry
     estimated scf accuracy    <       0.00235754 Ry

     iteration #  3     ecut=    55.00 Ry     beta= 0.70
     Davidson diagonalization with overlap
     ethr =  2.14E-05,  avg # of iterations =  1.9

     total cpu time spent up to now is        2.1 secs

     total energy              =    -355.30782768 Ry
     Harris-Foulkes estimate   =    -355.30780581 Ry
     estimated scf accuracy    <       0.00001481 Ry

     iteration #  4     ecut=    55.00 Ry     beta= 0.70
     Davidson diagonalization with overlap
     ethr =  1.35E-07,  avg # of iterations =  2.9

     total cpu time spent up to now is        2.4 secs

     total energy              =    -355.30783359 Ry
     Harris-Foulkes estimate   =    -355.30783336 Ry
     estimated scf accuracy    <       0.00000032 Ry

     iteration #  5     ecut=    55.00 Ry     beta= 0.70
     Davidson diagonalization with overlap
     ethr =  2.92E-09,  avg # of iterations =  1.5

     total cpu time spent up to now is        2.7 secs

     End of self-consistent calculation

          k = 0.0000 0.0000 0.0000 (   821 PWs)   bands (ev):

     5.0669   8.0831   8.0831   8.0831   9.1217   9.1217  29.8022  33.0890
    33.0890  37.3854

          k =-0.1429 0.1429-0.1429 (   797 PWs)   bands (ev):

     5.6709   7.9828   8.2294   8.2294   9.0881   9.0881  28.2401  30.6158
    33.0146  33.0146

          k =-0.2857 0.2857-0.2857 (   796 PWs)   bands (ev):

     6.5682   8.2541   8.2541   8.7283   9.3694   9.3694  22.6753  29.9419
    32.3688  32.3688

          k =-0.4286 0.4286-0.4286 (   799 PWs)   bands (ev):

     6.5062   8.0882   8.0882   9.8434   9.8434  11.5268  17.6614  28.9867
    31.2893  31.2893

          k = 0.0000 0.2857 0.0000 (   805 PWs)   bands (ev):

     5.8753   7.7718   8.3898   8.3898   8.8476   9.2605  29.8198  30.6384
    30.6384  30.8987

          k =-0.1429 0.4286-0.1429 (   804 PWs)   bands (ev):

     6.8055   7.6612   8.3177   8.5804   9.4328   9.5108  24.9411  29.1117
    29.6456  31.5816

          k =-0.2857 0.5714-0.2857 (   792 PWs)   bands (ev):

     6.8442   7.9501   8.4442   8.5944   9.9038  11.7348  19.5031  28.0804
    28.6334  30.0215

          k = 0.5714-0.2857 0.5714 (   797 PWs)   bands (ev):

     6.8127   7.8712   8.3363   9.0738   9.8199  13.7199  16.8130  26.6143
    29.6936  29.6945

          k = 0.4286-0.1429 0.4286 (   796 PWs)   bands (ev):

     6.9979   8.0216   8.4387   8.5214   9.2214  11.0732  21.2866  26.2485
    30.7816  32.4120

          k = 0.2857-0.0000 0.2857 (   807 PWs)   bands (ev):

     6.5294   7.7568   8.3605   8.4843   8.8155   9.5906  26.7441  27.0159
    33.0197  33.3891

          k = 0.0000 0.5714 0.0000 (   801 PWs)   bands (ev):

     6.9235   7.1222   9.1903   9.1903   9.5816   9.6160  26.7130  26.7130
    27.3341  29.8867

          k =-0.1429 0.7143-0.1429 (   795 PWs)   bands (ev):

     6.8626   7.1068   8.9789   9.2329   9.9439  12.2201  22.2100  24.3783
    25.7409  29.9116

          k = 0.7143-0.1429 0.7143 (   783 PWs)   bands (ev):

     6.9898   7.5207   8.5433   9.0396   9.8755  15.9872  17.5860  22.1635
    26.6193  29.7753

          k = 0.5714 0.0000 0.5714 (   796 PWs)   bands (ev):

     7.3920   7.9205   8.0246   8.8442   9.3653  13.7900  20.6291  21.3051
    29.1434  30.0787

          k = 0.0000 0.8571 0.0000 (   793 PWs)   bands (ev):

     6.5180   6.6436   9.8493   9.9965   9.9965  13.2790  21.1292  24.0879
    24.0879  29.9561

          k = 0.8571-0.0000 0.8571 (   776 PWs)   bands (ev):

     6.6131   6.8139   9.5307   9.6797  10.0378  15.5244  19.6526  21.1797
    24.4279  29.9347

          k =-0.2857 0.5714 0.0000 (   800 PWs)   bands (ev):

     7.3816   7.4241   8.0865   9.1831   9.2512  11.2536  23.7749  23.9748
    27.8653  33.1639

          k = 0.5714-0.2857 0.8571 (   793 PWs)   bands (ev):

     7.2781   7.5970   8.1876   8.9244   9.7759  14.2703  18.7338  23.9876
    25.4951  32.5954

          k = 0.7143-0.1429 1.0000 (   783 PWs)   bands (ev):

     6.9325   7.0351   8.7799   9.5291   9.9930  14.9178  21.3047  21.8266
    22.3685  32.6453

          k = 0.5714 0.0000 0.8571 (   779 PWs)   bands (ev):

     7.1771   7.5446   8.1503   9.1552   9.9870  17.6815  18.3177  20.2641
    23.2893  33.2748

     the Fermi energy is    13.2588 ev

!    total energy              =    -355.30783361 Ry
     Harris-Foulkes estimate   =    -355.30783361 Ry
     estimated scf accuracy    <          5.6E-09 Ry

     total all-electron energy =    -10632.273887 Ry

     The total energy is the sum of the following terms:

     one-electron contribution =       1.55685815 Ry
     hartree contribution      =      14.66635923 Ry
     xc contribution           =     -22.35371842 Ry
     ewald contribution        =     -71.86118025 Ry
     one-center paw contrib.   =    -277.31605578 Ry
     smearing contrib. (-TS)   =      -0.00009653 Ry

     convergence has been achieved in   5 iterations

     Forces acting on atoms (cartesian axes, Ry/au):

     atom    1 type  1   force =     0.00000000    0.00000000    0.00000000

     Total force =     0.000000     Total SCF correction =     0.000000


     Computing stress (Cartesian axis) and pressure

          total   stress  (Ry/bohr**3)                   (kbar)     P=   29.46
   0.00020027   0.00000000   0.00000000         29.46      0.00      0.00
   0.00000000   0.00020027  -0.00000000          0.00     29.46     -0.00
   0.00000000  -0.00000000   0.00020027          0.00     -0.00     29.46


     Writing output data file Ag.save/

     init_run     :      0.31s CPU      0.34s WALL (       1 calls)
     electrons    :      1.43s CPU      1.55s WALL (       1 calls)
     forces       :      0.03s CPU      0.03s WALL (       1 calls)
     stress       :      0.10s CPU      0.10s WALL (       1 calls)

     Called by init_run:
     wfcinit      :      0.04s CPU      0.05s WALL (       1 calls)
     potinit      :      0.10s CPU      0.12s WALL (       1 calls)
     hinit0       :      0.15s CPU      0.15s WALL (       1 calls)

     Called by electrons:
     c_bands      :      0.76s CPU      0.81s WALL (       6 calls)
     sum_band     :      0.17s CPU      0.18s WALL (       6 calls)
     v_of_rho     :      0.02s CPU      0.02s WALL (       6 calls)
     newd         :      0.04s CPU      0.04s WALL (       6 calls)
     PAW_pot      :      0.54s CPU      0.62s WALL (       6 calls)
     mix_rho      :      0.00s CPU      0.00s WALL (       6 calls)

     Called by c_bands:
     init_us_2    :      0.03s CPU      0.03s WALL (     300 calls)
     cegterg      :      0.72s CPU      0.77s WALL (     120 calls)

     Called by sum_band:
     sum_band:bec :      0.00s CPU      0.00s WALL (     120 calls)
     addusdens    :      0.04s CPU      0.04s WALL (       6 calls)

     Called by *egterg:
     h_psi        :      0.56s CPU      0.60s WALL (     451 calls)
     s_psi        :      0.02s CPU      0.02s WALL (     451 calls)
     g_psi        :      0.00s CPU      0.00s WALL (     311 calls)
     cdiaghg      :      0.08s CPU      0.08s WALL (     411 calls)

     Called by h_psi:
     h_psi:pot    :      0.56s CPU      0.60s WALL (     451 calls)
     h_psi:calbec :      0.03s CPU      0.03s WALL (     451 calls)
     vloc_psi     :      0.51s CPU      0.54s WALL (     451 calls)
     add_vuspsi   :      0.02s CPU      0.02s WALL (     451 calls)

     General routines
     calbec       :      0.04s CPU      0.05s WALL (     671 calls)
     fft          :      0.01s CPU      0.01s WALL (      93 calls)
     ffts         :      0.00s CPU      0.00s WALL (       6 calls)
     fftw         :      0.57s CPU      0.61s WALL (    7480 calls)

     Parallel routines
     fft_scatt_xy :      0.05s CPU      0.05s WALL (    7579 calls)
     fft_scatt_yz :      0.12s CPU      0.13s WALL (    7579 calls)

     PWSCF        :     2.66s CPU         2.86s WALL


   This run was terminated on:   0:24:18  27Mar2024            

=------------------------------------------------------------------------------=
   JOB DONE.
=------------------------------------------------------------------------------=
