
     Program PWSCF v.6.3MaX starts on 27Mar2024 at  0: 9:22 

     This program is part of the open-source Quantum ESPRESSO suite
     for quantum simulation of materials; please cite
         "P. Giannozzi et al., J. Phys.:Condens. Matter 21 395502 (2009);
         "P. Giannozzi et al., J. Phys.:Condens. Matter 29 465901 (2017);
          URL http://www.quantum-espresso.org", 
     in publications or presentations arising from this work. More details at
     http://www.quantum-espresso.org/quote

     Parallel version (MPI), running on     5 processors

     MPI processes distributed on     1 nodes
     R & G space division:  proc/nbgrp/npool/nimage =       5
     Waiting for input...
     Reading input from standard input

     Current dimensions of program PWSCF are:
     Max number of different atomic species (ntypx) = 10
     Max number of k-points (npk) =  40000
     Max angular momentum in pseudopotentials (lmaxx) =  3
               file Ag.pbesol-n-kjpaw_psl.1.0.0.UPF: wavefunction(s)  5S 5P renormalized

     Subspace diagonalization in iterative solution of the eigenvalue problem:
     a serial algorithm will be used


     Parallelization info
     --------------------
     sticks:   dense  smooth     PW     G-vecs:    dense   smooth      PW
     Min          32      32     12                  280      280      66
     Max          33      33     13                  283      283      67
     Sum         163     163     61                 1411     1411     331



     bravais-lattice index     =            2
     lattice parameter (alat)  =       7.7200  a.u.
     unit-cell volume          =     115.0249 (a.u.)^3
     number of atoms/cell      =            1
     number of atomic types    =            1
     number of electrons       =        11.00
     number of Kohn-Sham states=           10
     kinetic-energy cutoff     =      20.0000  Ry
     charge density cutoff     =      80.0000  Ry
     convergence threshold     =      1.0E-08
     mixing beta               =       0.7000
     number of iterations used =            8  plain     mixing
     Exchange-correlation      = SLA PW PSX PSC ( 1  4 10  8 0 0)

     celldm(1)=   7.720000  celldm(2)=   0.000000  celldm(3)=   0.000000
     celldm(4)=   0.000000  celldm(5)=   0.000000  celldm(6)=   0.000000

     crystal axes: (cart. coord. in units of alat)
               a(1) = (  -0.500000   0.000000   0.500000 )  
               a(2) = (   0.000000   0.500000   0.500000 )  
               a(3) = (  -0.500000   0.500000   0.000000 )  

     reciprocal axes: (cart. coord. in units 2 pi/alat)
               b(1) = ( -1.000000 -1.000000  1.000000 )  
               b(2) = (  1.000000  1.000000  1.000000 )  
               b(3) = ( -1.000000  1.000000 -1.000000 )  


     PseudoPot. # 1 for Ag read from file:
     /home/lorenzo/pseudos/Ag/Ag.pbesol-n-kjpaw_psl.1.0.0.UPF
     MD5 check sum: 3b245e14fa22881b2ac493bfd23f605f
     Pseudo is Projector augmented-wave + core cor, Zval = 11.0
     Generated using "atomic" code by A. Dal Corso v.6.2.2
     Shape of augmentation charge: PSQ
     Using radial grid of 1237 points,  6 beta functions with: 
                l(1) =   0
                l(2) =   0
                l(3) =   1
                l(4) =   1
                l(5) =   2
                l(6) =   2
     Q(r) pseudized with 0 coefficients 


     atomic species   valence    mass     pseudopotential
        Ag            11.00   107.86820     Ag( 1.00)

     48 Sym. Ops., with inversion, found



   Cartesian axes

     site n.     atom                  positions (alat units)
         1           Ag  tau(   1) = (   0.0000000   0.0000000   0.0000000  )

     number of k points=    29  gaussian smearing, width (Ry)=  0.0100
                       cart. coord. in units 2pi/alat
        k(    1) = (   0.0000000   0.0000000   0.0000000), wk =   0.0039062
        k(    2) = (  -0.1250000   0.1250000  -0.1250000), wk =   0.0312500
        k(    3) = (  -0.2500000   0.2500000  -0.2500000), wk =   0.0312500
        k(    4) = (  -0.3750000   0.3750000  -0.3750000), wk =   0.0312500
        k(    5) = (   0.5000000  -0.5000000   0.5000000), wk =   0.0156250
        k(    6) = (   0.0000000   0.2500000   0.0000000), wk =   0.0234375
        k(    7) = (  -0.1250000   0.3750000  -0.1250000), wk =   0.0937500
        k(    8) = (  -0.2500000   0.5000000  -0.2500000), wk =   0.0937500
        k(    9) = (   0.6250000  -0.3750000   0.6250000), wk =   0.0937500
        k(   10) = (   0.5000000  -0.2500000   0.5000000), wk =   0.0937500
        k(   11) = (   0.3750000  -0.1250000   0.3750000), wk =   0.0937500
        k(   12) = (   0.2500000   0.0000000   0.2500000), wk =   0.0468750
        k(   13) = (   0.0000000   0.5000000   0.0000000), wk =   0.0234375
        k(   14) = (  -0.1250000   0.6250000  -0.1250000), wk =   0.0937500
        k(   15) = (   0.7500000  -0.2500000   0.7500000), wk =   0.0937500
        k(   16) = (   0.6250000  -0.1250000   0.6250000), wk =   0.0937500
        k(   17) = (   0.5000000   0.0000000   0.5000000), wk =   0.0468750
        k(   18) = (   0.0000000   0.7500000   0.0000000), wk =   0.0234375
        k(   19) = (   0.8750000  -0.1250000   0.8750000), wk =   0.0937500
        k(   20) = (   0.7500000   0.0000000   0.7500000), wk =   0.0468750
        k(   21) = (   0.0000000  -1.0000000   0.0000000), wk =   0.0117188
        k(   22) = (  -0.2500000   0.5000000   0.0000000), wk =   0.0937500
        k(   23) = (   0.6250000  -0.3750000   0.8750000), wk =   0.1875000
        k(   24) = (   0.5000000  -0.2500000   0.7500000), wk =   0.0937500
        k(   25) = (   0.7500000  -0.2500000   1.0000000), wk =   0.0937500
        k(   26) = (   0.6250000  -0.1250000   0.8750000), wk =   0.1875000
        k(   27) = (   0.5000000   0.0000000   0.7500000), wk =   0.0937500
        k(   28) = (  -0.2500000  -1.0000000   0.0000000), wk =   0.0468750
        k(   29) = (  -0.5000000  -1.0000000   0.0000000), wk =   0.0234375

     Dense  grid:     1411 G-vectors     FFT dimensions: (  15,  15,  15)

     Estimated max dynamical RAM per process >       2.08 MB

     Estimated total dynamical RAM >      10.38 MB

     Initial potential from superposition of free atoms

     starting charge   10.99964, renormalised to   11.00000
     Starting wfcs are    9 randomized atomic wfcs +    1 random wfcs
     Checking if some PAW data can be deallocated... 

     total cpu time spent up to now is        1.1 secs

     Self-consistent Calculation

     iteration #  1     ecut=    20.00 Ry     beta= 0.70
     Davidson diagonalization with overlap
     ethr =  1.00E-02,  avg # of iterations =  4.7

     total cpu time spent up to now is        1.4 secs

     total energy              =    -348.22799517 Ry
     Harris-Foulkes estimate   =    -348.76000483 Ry
     estimated scf accuracy    <       0.65493870 Ry

     iteration #  2     ecut=    20.00 Ry     beta= 0.70
     Davidson diagonalization with overlap
     ethr =  5.95E-03,  avg # of iterations =  2.0

     total cpu time spent up to now is        1.6 secs

     total energy              =    -348.46821014 Ry
     Harris-Foulkes estimate   =    -348.61866572 Ry
     estimated scf accuracy    <       0.30794507 Ry

     iteration #  3     ecut=    20.00 Ry     beta= 0.70
     Davidson diagonalization with overlap
     ethr =  2.80E-03,  avg # of iterations =  1.3

     total cpu time spent up to now is        1.8 secs

     total energy              =    -348.50932277 Ry
     Harris-Foulkes estimate   =    -348.51204381 Ry
     estimated scf accuracy    <       0.00655573 Ry

     iteration #  4     ecut=    20.00 Ry     beta= 0.70
     Davidson diagonalization with overlap
     ethr =  5.96E-05,  avg # of iterations =  2.7

     total cpu time spent up to now is        2.0 secs

     total energy              =    -348.51151236 Ry
     Harris-Foulkes estimate   =    -348.51177144 Ry
     estimated scf accuracy    <       0.00090478 Ry

     iteration #  5     ecut=    20.00 Ry     beta= 0.70
     Davidson diagonalization with overlap
     ethr =  8.23E-06,  avg # of iterations =  1.3

     total cpu time spent up to now is        2.2 secs

     total energy              =    -348.51144383 Ry
     Harris-Foulkes estimate   =    -348.51155082 Ry
     estimated scf accuracy    <       0.00023201 Ry

     iteration #  6     ecut=    20.00 Ry     beta= 0.70
     Davidson diagonalization with overlap
     ethr =  2.11E-06,  avg # of iterations =  1.9

     total cpu time spent up to now is        2.4 secs

     total energy              =    -348.51148462 Ry
     Harris-Foulkes estimate   =    -348.51148486 Ry
     estimated scf accuracy    <       0.00000037 Ry

     iteration #  7     ecut=    20.00 Ry     beta= 0.70
     Davidson diagonalization with overlap
     ethr =  3.37E-09,  avg # of iterations =  3.1

     total cpu time spent up to now is        2.6 secs

     total energy              =    -348.51148513 Ry
     Harris-Foulkes estimate   =    -348.51148514 Ry
     estimated scf accuracy    <       0.00000003 Ry

     iteration #  8     ecut=    20.00 Ry     beta= 0.70
     Davidson diagonalization with overlap
     ethr =  2.90E-10,  avg # of iterations =  1.0

     total cpu time spent up to now is        2.8 secs

     End of self-consistent calculation

          k = 0.0000 0.0000 0.0000 (   169 PWs)   bands (ev):

     4.8662   8.0185   8.0185   8.0185   8.6348   8.6348  29.9181  32.8159
    32.8159  32.8159

          k =-0.1250 0.1250-0.1250 (   172 PWs)   bands (ev):

     5.3297   7.8497   8.0387   8.0387   8.5528   8.5528  28.8830  30.6885
    32.8369  32.8369

          k =-0.2500 0.2500-0.2500 (   168 PWs)   bands (ev):

     6.3563   8.1860   8.1860   8.4817   9.1797   9.1797  24.1081  30.4147
    32.4030  32.4030

          k =-0.3750 0.3750-0.3750 (   174 PWs)   bands (ev):

     6.4010   8.1307   8.1307   9.1758   9.1758  10.1698  19.1996  29.3901
    31.1776  31.1776

          k = 0.5000-0.5000 0.5000 (   168 PWs)   bands (ev):

     6.3131   8.3835   8.3835   9.7207   9.7207  12.2151  16.3005  28.9454
    30.5729  30.5729

          k = 0.0000 0.2500 0.0000 (   173 PWs)   bands (ev):

     5.4843   7.7984   8.0342   8.0342   8.4610   8.6077  30.1145  30.9283
    30.9283  31.1455

          k =-0.1250 0.3750-0.1250 (   169 PWs)   bands (ev):

     6.3831   7.6620   8.2586   8.4507   9.0287   9.3340  26.0270  29.5799
    30.2849  32.5415

          k =-0.2500 0.5000-0.2500 (   168 PWs)   bands (ev):

     6.6880   8.3989   8.4162   8.5374   9.7873  10.3899  21.0180  28.8318
    29.2991  30.5595

          k = 0.6250-0.3750 0.6250 (   172 PWs)   bands (ev):

     6.5838   7.9583   8.4741   8.8346   9.3446  12.9456  16.8984  27.7310
    29.0328  29.6222

          k = 0.5000-0.2500 0.5000 (   172 PWs)   bands (ev):

     6.6565   7.9637   8.5692   8.6477   9.2657  12.0704  18.0999  26.8838
    29.8863  30.6103

          k = 0.3750-0.1250 0.3750 (   171 PWs)   bands (ev):

     6.6739   8.1006   8.2389   8.5453   9.0325   9.8589  22.6363  27.0503
    31.2770  33.4246

          k = 0.2500 0.0000 0.2500 (   174 PWs)   bands (ev):

     6.0201   7.6073   8.0914   8.1824   8.3922   8.9979  27.4587  27.9001
    32.5432  34.0494

          k = 0.0000 0.5000 0.0000 (   165 PWs)   bands (ev):

     6.8090   7.5265   8.9982   9.2426   9.3084   9.3084  27.4922  27.4922
    29.2061  30.4597

          k =-0.1250 0.6250-0.1250 (   178 PWs)   bands (ev):

     6.8190   7.1742   8.1602   8.5897   9.1877  10.6605  23.1879  26.1855
    26.2520  30.3009

          k = 0.7500-0.2500 0.7500 (   178 PWs)   bands (ev):

     6.8626   7.2267   8.0076   8.5473   9.4377  13.6159  18.7295  23.9869
    26.3044  30.0016

          k = 0.6250-0.1250 0.6250 (   176 PWs)   bands (ev):

     7.0244   7.4942   8.0206   8.7022   9.0236  14.7986  17.6250  22.5010
    27.9008  30.0214

          k = 0.5000 0.0000 0.5000 (   170 PWs)   bands (ev):

     7.4472   7.7314   7.9931   8.8798   9.0844  12.0887  22.0416  22.1877
    30.5990  30.6604

          k = 0.0000 0.7500 0.0000 (   170 PWs)   bands (ev):

     6.6439   7.0289   9.3593   9.8317   9.8317  11.5657  23.1694  24.4981
    24.4981  29.9718

          k = 0.8750-0.1250 0.8750 (   176 PWs)   bands (ev):

     6.4614   6.9130   9.1579   9.2624   9.4891  13.9560  20.5382  21.8423
    24.1734  30.4186

          k = 0.7500 0.0000 0.7500 (   182 PWs)   bands (ev):

     6.5683   6.8090   8.3988   8.7589   8.9364  16.9042  17.8178  19.6898
    25.4269  30.1739

          k = 0.0000-1.0000 0.0000 (   190 PWs)   bands (ev):

     5.9298   6.4159   8.3459   8.8800   8.8800  14.1819  19.1906  23.3346
    23.3346  29.8668

          k =-0.2500 0.5000 0.0000 (   170 PWs)   bands (ev):

     7.0516   7.6389   8.3188   8.7729   8.9818  10.1142  24.6284  25.2311
    29.4978  33.1124

          k = 0.6250-0.3750 0.8750 (   174 PWs)   bands (ev):

     7.0403   7.6678   7.9855   8.7330   9.1492  12.3513  20.0335  24.5702
    27.1365  32.2705

          k = 0.5000-0.2500 0.7500 (   172 PWs)   bands (ev):

     7.0140   7.5259   8.2759   8.7753   9.6529  14.8985  16.6077  25.0371
    25.7252  31.7286

          k = 0.7500-0.2500 1.0000 (   176 PWs)   bands (ev):

     6.9044   7.1264   8.1882   9.0804   9.3740  12.8333  22.2354  22.7168
    23.8796  32.8843

          k = 0.6250-0.1250 0.8750 (   179 PWs)   bands (ev):

     6.8210   7.2404   7.8567   8.7463   9.4339  15.9093  18.4831  21.4031
    23.3479  32.7696

          k = 0.5000 0.0000 0.7500 (   176 PWs)   bands (ev):

     7.3008   7.4359   7.4844   9.1064   9.1618  15.0368  19.5913  20.6022
    24.9534  33.0933

          k =-0.2500-1.0000 0.0000 (   178 PWs)   bands (ev):

     6.3959   7.0747   8.7520   9.1159   9.4046  15.6757  19.3200  21.7768
    22.0061  32.8461

          k =-0.5000-1.0000 0.0000 (   176 PWs)   bands (ev):

     6.8771   7.5799   7.5799   9.0384   9.8249  18.6445  18.6445  19.4113
    21.0899  36.6821

     the Fermi energy is    12.4530 ev

!    total energy              =    -348.51148513 Ry
     Harris-Foulkes estimate   =    -348.51148513 Ry
     estimated scf accuracy    <          6.9E-09 Ry

     total all-electron energy =    -10625.521894 Ry

     The total energy is the sum of the following terms:

     one-electron contribution =       3.94840515 Ry
     hartree contribution      =      12.82297500 Ry
     xc contribution           =     -21.74865032 Ry
     ewald contribution        =     -71.86118020 Ry
     one-center paw contrib.   =    -271.67272983 Ry
     smearing contrib. (-TS)   =      -0.00030492 Ry

     convergence has been achieved in   8 iterations

     Forces acting on atoms (cartesian axes, Ry/au):

     atom    1 type  1   force =     0.00000000    0.00000000    0.00000000

     Total force =     0.000000     Total SCF correction =     0.000000


     Computing stress (Cartesian axis) and pressure

          total   stress  (Ry/bohr**3)                   (kbar)     P=-7300.84
  -0.04963010  -0.00000000  -0.00000000      -7300.84     -0.00     -0.00
  -0.00000000  -0.04963010   0.00000000         -0.00  -7300.84      0.00
  -0.00000000   0.00000000  -0.04963010         -0.00      0.00  -7300.84


     Writing output data file Ag.save/

     init_run     :      0.23s CPU      0.24s WALL (       1 calls)
     electrons    :      1.42s CPU      1.64s WALL (       1 calls)
     forces       :      0.01s CPU      0.01s WALL (       1 calls)
     stress       :      0.03s CPU      0.03s WALL (       1 calls)

     Called by init_run:
     wfcinit      :      0.02s CPU      0.03s WALL (       1 calls)
     potinit      :      0.11s CPU      0.12s WALL (       1 calls)
     hinit0       :      0.08s CPU      0.08s WALL (       1 calls)

     Called by electrons:
     c_bands      :      0.55s CPU      0.64s WALL (       8 calls)
     sum_band     :      0.09s CPU      0.10s WALL (       8 calls)
     v_of_rho     :      0.01s CPU      0.01s WALL (       9 calls)
     newd         :      0.01s CPU      0.01s WALL (       9 calls)
     PAW_pot      :      0.86s CPU      0.98s WALL (       9 calls)
     mix_rho      :      0.00s CPU      0.00s WALL (       8 calls)

     Called by c_bands:
     init_us_2    :      0.01s CPU      0.02s WALL (     551 calls)
     cegterg      :      0.53s CPU      0.61s WALL (     232 calls)

     Called by sum_band:
     sum_band:bec :      0.00s CPU      0.00s WALL (     232 calls)
     addusdens    :      0.01s CPU      0.01s WALL (       8 calls)

     Called by *egterg:
     h_psi        :      0.33s CPU      0.39s WALL (     784 calls)
     s_psi        :      0.01s CPU      0.01s WALL (     784 calls)
     g_psi        :      0.00s CPU      0.00s WALL (     523 calls)
     cdiaghg      :      0.13s CPU      0.15s WALL (     755 calls)

     Called by h_psi:
     h_psi:pot    :      0.32s CPU      0.38s WALL (     784 calls)
     h_psi:calbec :      0.02s CPU      0.02s WALL (     784 calls)
     vloc_psi     :      0.29s CPU      0.34s WALL (     784 calls)
     add_vuspsi   :      0.01s CPU      0.01s WALL (     784 calls)

     General routines
     calbec       :      0.03s CPU      0.04s WALL (    1161 calls)
     fft          :      0.01s CPU      0.01s WALL (     125 calls)
     ffts         :      0.00s CPU      0.00s WALL (       8 calls)
     fftw         :      0.31s CPU      0.37s WALL (   14226 calls)

     Parallel routines
     fft_scatt_xy :      0.03s CPU      0.04s WALL (   14359 calls)
     fft_scatt_yz :      0.14s CPU      0.16s WALL (   14359 calls)

     PWSCF        :     2.60s CPU         2.89s WALL


   This run was terminated on:   0: 9:25  27Mar2024            

=------------------------------------------------------------------------------=
   JOB DONE.
=------------------------------------------------------------------------------=
