
     Program PWSCF v.6.3MaX starts on 27Mar2024 at  0:13:21 

     This program is part of the open-source Quantum ESPRESSO suite
     for quantum simulation of materials; please cite
         "P. Giannozzi et al., J. Phys.:Condens. Matter 21 395502 (2009);
         "P. Giannozzi et al., J. Phys.:Condens. Matter 29 465901 (2017);
          URL http://www.quantum-espresso.org", 
     in publications or presentations arising from this work. More details at
     http://www.quantum-espresso.org/quote

     Parallel version (MPI), running on     5 processors

     MPI processes distributed on     1 nodes
     R & G space division:  proc/nbgrp/npool/nimage =       5
     Waiting for input...
     Reading input from standard input

     Current dimensions of program PWSCF are:
     Max number of different atomic species (ntypx) = 10
     Max number of k-points (npk) =  40000
     Max angular momentum in pseudopotentials (lmaxx) =  3

     Subspace diagonalization in iterative solution of the eigenvalue problem:
     a serial algorithm will be used


     Parallelization info
     --------------------
     sticks:   dense  smooth     PW     G-vecs:    dense   smooth      PW
     Min          50      50     17                  527      527     106
     Max          51      51     17                  528      528     107
     Sum         253     253     85                 2637     2637     531



     bravais-lattice index     =            2
     lattice parameter (alat)  =       7.7200  a.u.
     unit-cell volume          =     115.0249 (a.u.)^3
     number of atoms/cell      =            1
     number of atomic types    =            1
     number of electrons       =        11.00
     number of Kohn-Sham states=           10
     kinetic-energy cutoff     =      30.0000  Ry
     charge density cutoff     =     120.0000  Ry
     convergence threshold     =      1.0E-08
     mixing beta               =       0.7000
     number of iterations used =            8  plain     mixing
     Exchange-correlation      = PBE ( 1  4  3  4 0 0)

     celldm(1)=   7.720000  celldm(2)=   0.000000  celldm(3)=   0.000000
     celldm(4)=   0.000000  celldm(5)=   0.000000  celldm(6)=   0.000000

     crystal axes: (cart. coord. in units of alat)
               a(1) = (  -0.500000   0.000000   0.500000 )  
               a(2) = (   0.000000   0.500000   0.500000 )  
               a(3) = (  -0.500000   0.500000   0.000000 )  

     reciprocal axes: (cart. coord. in units 2 pi/alat)
               b(1) = ( -1.000000 -1.000000  1.000000 )  
               b(2) = (  1.000000  1.000000  1.000000 )  
               b(3) = ( -1.000000  1.000000 -1.000000 )  


     PseudoPot. # 1 for Ag read from file:
     /home/lorenzo/pseudos/Ag/Ag.pbe-n-rrkjus_psl.1.0.0.UPF
     MD5 check sum: d841cbfac2b0861aec33b46768a516bf
     Pseudo is Ultrasoft + core correction, Zval = 11.0
     Generated using "atomic" code by A. Dal Corso v.6.2.2
     Using radial grid of 1237 points,  6 beta functions with: 
                l(1) =   0
                l(2) =   0
                l(3) =   1
                l(4) =   1
                l(5) =   2
                l(6) =   2
     Q(r) pseudized with 0 coefficients 


     atomic species   valence    mass     pseudopotential
        Ag            11.00   107.86820     Ag( 1.00)

     48 Sym. Ops., with inversion, found



   Cartesian axes

     site n.     atom                  positions (alat units)
         1           Ag  tau(   1) = (   0.0000000   0.0000000   0.0000000  )

     number of k points=    20  gaussian smearing, width (Ry)=  0.0100
                       cart. coord. in units 2pi/alat
        k(    1) = (   0.0000000   0.0000000   0.0000000), wk =   0.0058309
        k(    2) = (  -0.1428571   0.1428571  -0.1428571), wk =   0.0466472
        k(    3) = (  -0.2857143   0.2857143  -0.2857143), wk =   0.0466472
        k(    4) = (  -0.4285714   0.4285714  -0.4285714), wk =   0.0466472
        k(    5) = (   0.0000000   0.2857143   0.0000000), wk =   0.0349854
        k(    6) = (  -0.1428571   0.4285714  -0.1428571), wk =   0.1399417
        k(    7) = (  -0.2857143   0.5714286  -0.2857143), wk =   0.1399417
        k(    8) = (   0.5714286  -0.2857143   0.5714286), wk =   0.1399417
        k(    9) = (   0.4285714  -0.1428571   0.4285714), wk =   0.1399417
        k(   10) = (   0.2857143  -0.0000000   0.2857143), wk =   0.0699708
        k(   11) = (   0.0000000   0.5714286   0.0000000), wk =   0.0349854
        k(   12) = (  -0.1428571   0.7142857  -0.1428571), wk =   0.1399417
        k(   13) = (   0.7142857  -0.1428571   0.7142857), wk =   0.1399417
        k(   14) = (   0.5714286   0.0000000   0.5714286), wk =   0.0699708
        k(   15) = (   0.0000000   0.8571429   0.0000000), wk =   0.0349854
        k(   16) = (   0.8571429  -0.0000000   0.8571429), wk =   0.0699708
        k(   17) = (  -0.2857143   0.5714286   0.0000000), wk =   0.1399417
        k(   18) = (   0.5714286  -0.2857143   0.8571429), wk =   0.2798834
        k(   19) = (   0.7142857  -0.1428571   1.0000000), wk =   0.1399417
        k(   20) = (   0.5714286   0.0000000   0.8571429), wk =   0.1399417

     Dense  grid:     2637 G-vectors     FFT dimensions: (  20,  20,  20)

     Estimated max dynamical RAM per process >       3.25 MB

     Estimated total dynamical RAM >      16.24 MB

     Initial potential from superposition of free atoms

     starting charge   10.99960, renormalised to   11.00000
     Starting wfcs are    9 randomized atomic wfcs +    1 random wfcs

     total cpu time spent up to now is        0.9 secs

     Self-consistent Calculation

     iteration #  1     ecut=    30.00 Ry     beta= 0.70
     Davidson diagonalization with overlap
     ethr =  1.00E-02,  avg # of iterations =  4.3

     Threshold (ethr) on eigenvalues was too large:
     Diagonalizing with lowered threshold

     Davidson diagonalization with overlap
     ethr =  9.52E-05,  avg # of iterations =  1.9

     total cpu time spent up to now is        1.1 secs

     total energy              =     -84.17576452 Ry
     Harris-Foulkes estimate   =     -84.18221239 Ry
     estimated scf accuracy    <       0.01114238 Ry

     iteration #  2     ecut=    30.00 Ry     beta= 0.70
     Davidson diagonalization with overlap
     ethr =  1.01E-04,  avg # of iterations =  2.1

     total cpu time spent up to now is        1.2 secs

     total energy              =     -84.17909870 Ry
     Harris-Foulkes estimate   =     -84.18317480 Ry
     estimated scf accuracy    <       0.00800754 Ry

     iteration #  3     ecut=    30.00 Ry     beta= 0.70
     Davidson diagonalization with overlap
     ethr =  7.28E-05,  avg # of iterations =  1.8

     total cpu time spent up to now is        1.3 secs

     total energy              =     -84.18078912 Ry
     Harris-Foulkes estimate   =     -84.18071427 Ry
     estimated scf accuracy    <       0.00002545 Ry

     iteration #  4     ecut=    30.00 Ry     beta= 0.70
     Davidson diagonalization with overlap
     ethr =  2.31E-07,  avg # of iterations =  3.0

     total cpu time spent up to now is        1.4 secs

     total energy              =     -84.18081670 Ry
     Harris-Foulkes estimate   =     -84.18081673 Ry
     estimated scf accuracy    <       0.00000234 Ry

     iteration #  5     ecut=    30.00 Ry     beta= 0.70
     Davidson diagonalization with overlap
     ethr =  2.13E-08,  avg # of iterations =  1.0

     total cpu time spent up to now is        1.5 secs

     total energy              =     -84.18081639 Ry
     Harris-Foulkes estimate   =     -84.18081671 Ry
     estimated scf accuracy    <       0.00000194 Ry

     iteration #  6     ecut=    30.00 Ry     beta= 0.70
     Davidson diagonalization with overlap
     ethr =  1.76E-08,  avg # of iterations =  1.2

     total cpu time spent up to now is        1.6 secs

     total energy              =     -84.18081664 Ry
     Harris-Foulkes estimate   =     -84.18081665 Ry
     estimated scf accuracy    <       0.00000003 Ry

     iteration #  7     ecut=    30.00 Ry     beta= 0.70
     Davidson diagonalization with overlap
     ethr =  3.07E-10,  avg # of iterations =  2.0

     total cpu time spent up to now is        1.7 secs

     total energy              =     -84.18081664 Ry
     Harris-Foulkes estimate   =     -84.18081664 Ry
     estimated scf accuracy    <       0.00000001 Ry

     iteration #  8     ecut=    30.00 Ry     beta= 0.70
     Davidson diagonalization with overlap
     ethr =  1.07E-10,  avg # of iterations =  1.2

     total cpu time spent up to now is        1.8 secs

     End of self-consistent calculation

          k = 0.0000 0.0000 0.0000 (   331 PWs)   bands (ev):

     5.0640   8.0012   8.0012   8.0012   9.0240   9.0240  29.8230  33.0808
    33.0808  33.0808

          k =-0.1429 0.1429-0.1429 (   320 PWs)   bands (ev):

     5.6662   7.9409   8.1685   8.1685   9.0406   9.0406  28.2517  30.6332
    33.0086  33.0086

          k =-0.2857 0.2857-0.2857 (   314 PWs)   bands (ev):

     6.5428   8.2233   8.2233   8.7013   9.3703   9.3703  22.6687  29.9692
    32.3603  32.3603

          k =-0.4286 0.4286-0.4286 (   323 PWs)   bands (ev):

     6.4747   8.0469   8.0469   9.8057   9.8057  11.5141  17.6479  29.0118
    31.2530  31.2530

          k = 0.0000 0.2857 0.0000 (   323 PWs)   bands (ev):

     5.8703   7.7039   8.3481   8.3481   8.8023   9.1698  29.8456  30.6339
    30.6339  30.9211

          k =-0.1429 0.4286-0.1429 (   321 PWs)   bands (ev):

     6.7852   7.6109   8.2788   8.5199   9.4007   9.4821  24.9379  29.0988
    29.6814  31.5848

          k =-0.2857 0.5714-0.2857 (   321 PWs)   bands (ev):

     6.8078   7.9158   8.4038   8.5629   9.8726  11.7144  19.4929  28.1030
    28.6147  30.0205

          k = 0.5714-0.2857 0.5714 (   316 PWs)   bands (ev):

     6.8109   7.8434   8.3147   9.0577   9.7949  13.7134  16.8221  26.6229
    29.6779  29.7043

          k = 0.4286-0.1429 0.4286 (   319 PWs)   bands (ev):

     6.9658   7.9880   8.3936   8.4895   9.2182  11.0423  21.2781  26.2545
    30.7892  32.4072

          k = 0.2857-0.0000 0.2857 (   317 PWs)   bands (ev):

     6.5217   7.7260   8.3140   8.4247   8.7887   9.5617  26.7424  27.0354
    33.0259  33.3985

          k = 0.0000 0.5714 0.0000 (   311 PWs)   bands (ev):

     6.8978   7.0795   9.2058   9.2058   9.5607   9.5932  26.7064  26.7064
    27.3570  29.9431

          k =-0.1429 0.7143-0.1429 (   323 PWs)   bands (ev):

     6.8194   7.0607   8.9484   9.2074   9.8808  12.1988  22.1939  24.3759
    25.7220  29.9442

          k = 0.7143-0.1429 0.7143 (   314 PWs)   bands (ev):

     6.9624   7.5166   8.5288   9.0398   9.8753  15.9936  17.5803  22.1660
    26.6057  29.8125

          k = 0.5714 0.0000 0.5714 (   325 PWs)   bands (ev):

     7.3417   7.8863   7.9769   8.8027   9.3469  13.7665  20.6232  21.2874
    29.1303  30.0983

          k = 0.0000 0.8571 0.0000 (   322 PWs)   bands (ev):

     6.4815   6.5928   9.8020   9.9663   9.9663  13.2603  21.1202  24.0634
    24.0634  30.0120

          k = 0.8571-0.0000 0.8571 (   318 PWs)   bands (ev):

     6.5829   6.7821   9.5153   9.6409  10.0440  15.5104  19.6487  21.1750
    24.4035  29.9780

          k =-0.2857 0.5714 0.0000 (   318 PWs)   bands (ev):

     7.3410   7.3981   8.0472   9.1682   9.2335  11.2249  23.7632  23.9741
    27.8795  33.2016

          k = 0.5714-0.2857 0.8571 (   327 PWs)   bands (ev):

     7.2394   7.5503   8.1511   8.8728   9.7170  14.2518  18.7170  23.9761
    25.4969  32.5957

          k = 0.7143-0.1429 1.0000 (   320 PWs)   bands (ev):

     6.9049   6.9936   8.7633   9.4980   9.9702  14.9130  21.2810  21.8135
    22.3777  32.6957

          k = 0.5714 0.0000 0.8571 (   319 PWs)   bands (ev):

     7.1381   7.5259   8.1269   9.1356   9.9796  17.6742  18.3094  20.2562
    23.2863  33.3026

     the Fermi energy is    13.2400 ev

!    total energy              =     -84.18081664 Ry
     Harris-Foulkes estimate   =     -84.18081664 Ry
     estimated scf accuracy    <          4.0E-10 Ry

     The total energy is the sum of the following terms:

     one-electron contribution =      -4.52126187 Ry
     hartree contribution      =      14.52918557 Ry
     xc contribution           =     -22.32746360 Ry
     ewald contribution        =     -71.86118020 Ry
     smearing contrib. (-TS)   =      -0.00009653 Ry

     convergence has been achieved in   8 iterations

     Forces acting on atoms (cartesian axes, Ry/au):

     atom    1 type  1   force =     0.00000000    0.00000000    0.00000000

     Total force =     0.000000     Total SCF correction =     0.000000


     Computing stress (Cartesian axis) and pressure

          total   stress  (Ry/bohr**3)                   (kbar)     P= -798.70
  -0.00542946   0.00000000  -0.00000000       -798.70      0.00     -0.00
  -0.00000000  -0.00542946   0.00000000         -0.00   -798.70      0.00
  -0.00000000   0.00000000  -0.00542946         -0.00      0.00   -798.70


     Writing output data file Ag.save/

     init_run     :      0.13s CPU      0.14s WALL (       1 calls)
     electrons    :      0.76s CPU      0.83s WALL (       1 calls)
     forces       :      0.02s CPU      0.02s WALL (       1 calls)
     stress       :      0.04s CPU      0.04s WALL (       1 calls)

     Called by init_run:
     wfcinit      :      0.02s CPU      0.03s WALL (       1 calls)
     potinit      :      0.00s CPU      0.00s WALL (       1 calls)
     hinit0       :      0.10s CPU      0.10s WALL (       1 calls)

     Called by electrons:
     c_bands      :      0.59s CPU      0.65s WALL (       9 calls)
     sum_band     :      0.13s CPU      0.14s WALL (       9 calls)
     v_of_rho     :      0.01s CPU      0.02s WALL (       9 calls)
     newd         :      0.02s CPU      0.02s WALL (       9 calls)
     mix_rho      :      0.00s CPU      0.00s WALL (       9 calls)

     Called by c_bands:
     init_us_2    :      0.02s CPU      0.02s WALL (     420 calls)
     cegterg      :      0.57s CPU      0.62s WALL (     180 calls)

     Called by sum_band:
     sum_band:bec :      0.00s CPU      0.00s WALL (     180 calls)
     addusdens    :      0.02s CPU      0.02s WALL (       9 calls)

     Called by *egterg:
     h_psi        :      0.41s CPU      0.46s WALL (     574 calls)
     s_psi        :      0.01s CPU      0.01s WALL (     574 calls)
     g_psi        :      0.00s CPU      0.00s WALL (     374 calls)
     cdiaghg      :      0.09s CPU      0.10s WALL (     534 calls)

     Called by h_psi:
     h_psi:pot    :      0.41s CPU      0.45s WALL (     574 calls)
     h_psi:calbec :      0.02s CPU      0.02s WALL (     574 calls)
     vloc_psi     :      0.38s CPU      0.41s WALL (     574 calls)
     add_vuspsi   :      0.01s CPU      0.01s WALL (     574 calls)

     General routines
     calbec       :      0.03s CPU      0.04s WALL (     854 calls)
     fft          :      0.01s CPU      0.01s WALL (     126 calls)
     ffts         :      0.00s CPU      0.00s WALL (       9 calls)
     fftw         :      0.42s CPU      0.46s WALL (   10576 calls)

     Parallel routines
     fft_scatt_xy :      0.04s CPU      0.04s WALL (   10711 calls)
     fft_scatt_yz :      0.13s CPU      0.14s WALL (   10711 calls)

     PWSCF        :     1.77s CPU         1.89s WALL


   This run was terminated on:   0:13:23  27Mar2024            

=------------------------------------------------------------------------------=
   JOB DONE.
=------------------------------------------------------------------------------=
