
     Program PWSCF v.6.3MaX starts on 27Mar2024 at  0:24:35 

     This program is part of the open-source Quantum ESPRESSO suite
     for quantum simulation of materials; please cite
         "P. Giannozzi et al., J. Phys.:Condens. Matter 21 395502 (2009);
         "P. Giannozzi et al., J. Phys.:Condens. Matter 29 465901 (2017);
          URL http://www.quantum-espresso.org", 
     in publications or presentations arising from this work. More details at
     http://www.quantum-espresso.org/quote

     Parallel version (MPI), running on     5 processors

     MPI processes distributed on     1 nodes
     R & G space division:  proc/nbgrp/npool/nimage =       5
     Waiting for input...
     Reading input from standard input

     Current dimensions of program PWSCF are:
     Max number of different atomic species (ntypx) = 10
     Max number of k-points (npk) =  40000
     Max angular momentum in pseudopotentials (lmaxx) =  3
               file Ag.pbesol-n-kjpaw_psl.1.0.0.UPF: wavefunction(s)  5S 5P renormalized

     Subspace diagonalization in iterative solution of the eigenvalue problem:
     a serial algorithm will be used


     Parallelization info
     --------------------
     sticks:   dense  smooth     PW     G-vecs:    dense   smooth      PW
     Min          90      90     30                 1274     1274     241
     Max          91      91     31                 1276     1276     244
     Sum         451     451    151                 6375     6375    1211



     bravais-lattice index     =            2
     lattice parameter (alat)  =       7.7200  a.u.
     unit-cell volume          =     115.0249 (a.u.)^3
     number of atoms/cell      =            1
     number of atomic types    =            1
     number of electrons       =        11.00
     number of Kohn-Sham states=           10
     kinetic-energy cutoff     =      55.0000  Ry
     charge density cutoff     =     220.0000  Ry
     convergence threshold     =      1.0E-08
     mixing beta               =       0.7000
     number of iterations used =            8  plain     mixing
     Exchange-correlation      = SLA PW PSX PSC ( 1  4 10  8 0 0)

     celldm(1)=   7.720000  celldm(2)=   0.000000  celldm(3)=   0.000000
     celldm(4)=   0.000000  celldm(5)=   0.000000  celldm(6)=   0.000000

     crystal axes: (cart. coord. in units of alat)
               a(1) = (  -0.500000   0.000000   0.500000 )  
               a(2) = (   0.000000   0.500000   0.500000 )  
               a(3) = (  -0.500000   0.500000   0.000000 )  

     reciprocal axes: (cart. coord. in units 2 pi/alat)
               b(1) = ( -1.000000 -1.000000  1.000000 )  
               b(2) = (  1.000000  1.000000  1.000000 )  
               b(3) = ( -1.000000  1.000000 -1.000000 )  


     PseudoPot. # 1 for Ag read from file:
     /home/lorenzo/pseudos/Ag/Ag.pbesol-n-kjpaw_psl.1.0.0.UPF
     MD5 check sum: 3b245e14fa22881b2ac493bfd23f605f
     Pseudo is Projector augmented-wave + core cor, Zval = 11.0
     Generated using "atomic" code by A. Dal Corso v.6.2.2
     Shape of augmentation charge: PSQ
     Using radial grid of 1237 points,  6 beta functions with: 
                l(1) =   0
                l(2) =   0
                l(3) =   1
                l(4) =   1
                l(5) =   2
                l(6) =   2
     Q(r) pseudized with 0 coefficients 


     atomic species   valence    mass     pseudopotential
        Ag            11.00   107.86820     Ag( 1.00)

     48 Sym. Ops., with inversion, found



   Cartesian axes

     site n.     atom                  positions (alat units)
         1           Ag  tau(   1) = (   0.0000000   0.0000000   0.0000000  )

     number of k points=    29  gaussian smearing, width (Ry)=  0.0100
                       cart. coord. in units 2pi/alat
        k(    1) = (   0.0000000   0.0000000   0.0000000), wk =   0.0039062
        k(    2) = (  -0.1250000   0.1250000  -0.1250000), wk =   0.0312500
        k(    3) = (  -0.2500000   0.2500000  -0.2500000), wk =   0.0312500
        k(    4) = (  -0.3750000   0.3750000  -0.3750000), wk =   0.0312500
        k(    5) = (   0.5000000  -0.5000000   0.5000000), wk =   0.0156250
        k(    6) = (   0.0000000   0.2500000   0.0000000), wk =   0.0234375
        k(    7) = (  -0.1250000   0.3750000  -0.1250000), wk =   0.0937500
        k(    8) = (  -0.2500000   0.5000000  -0.2500000), wk =   0.0937500
        k(    9) = (   0.6250000  -0.3750000   0.6250000), wk =   0.0937500
        k(   10) = (   0.5000000  -0.2500000   0.5000000), wk =   0.0937500
        k(   11) = (   0.3750000  -0.1250000   0.3750000), wk =   0.0937500
        k(   12) = (   0.2500000   0.0000000   0.2500000), wk =   0.0468750
        k(   13) = (   0.0000000   0.5000000   0.0000000), wk =   0.0234375
        k(   14) = (  -0.1250000   0.6250000  -0.1250000), wk =   0.0937500
        k(   15) = (   0.7500000  -0.2500000   0.7500000), wk =   0.0937500
        k(   16) = (   0.6250000  -0.1250000   0.6250000), wk =   0.0937500
        k(   17) = (   0.5000000   0.0000000   0.5000000), wk =   0.0468750
        k(   18) = (   0.0000000   0.7500000   0.0000000), wk =   0.0234375
        k(   19) = (   0.8750000  -0.1250000   0.8750000), wk =   0.0937500
        k(   20) = (   0.7500000   0.0000000   0.7500000), wk =   0.0468750
        k(   21) = (   0.0000000  -1.0000000   0.0000000), wk =   0.0117188
        k(   22) = (  -0.2500000   0.5000000   0.0000000), wk =   0.0937500
        k(   23) = (   0.6250000  -0.3750000   0.8750000), wk =   0.1875000
        k(   24) = (   0.5000000  -0.2500000   0.7500000), wk =   0.0937500
        k(   25) = (   0.7500000  -0.2500000   1.0000000), wk =   0.0937500
        k(   26) = (   0.6250000  -0.1250000   0.8750000), wk =   0.1875000
        k(   27) = (   0.5000000   0.0000000   0.7500000), wk =   0.0937500
        k(   28) = (  -0.2500000  -1.0000000   0.0000000), wk =   0.0468750
        k(   29) = (  -0.5000000  -1.0000000   0.0000000), wk =   0.0234375

     Dense  grid:     6375 G-vectors     FFT dimensions: (  25,  25,  25)

     Estimated max dynamical RAM per process >       6.89 MB

     Estimated total dynamical RAM >      34.44 MB

     Initial potential from superposition of free atoms

     starting charge   10.99964, renormalised to   11.00000
     Starting wfcs are    9 randomized atomic wfcs +    1 random wfcs
     Checking if some PAW data can be deallocated... 

     total cpu time spent up to now is        1.2 secs

     Self-consistent Calculation

     iteration #  1     ecut=    55.00 Ry     beta= 0.70
     Davidson diagonalization with overlap
     ethr =  1.00E-02,  avg # of iterations =  4.7

     Threshold (ethr) on eigenvalues was too large:
     Diagonalizing with lowered threshold

     Davidson diagonalization with overlap
     ethr =  4.44E-05,  avg # of iterations =  2.5

     total cpu time spent up to now is        1.9 secs

     total energy              =    -350.23364361 Ry
     Harris-Foulkes estimate   =    -350.23710517 Ry
     estimated scf accuracy    <       0.00527417 Ry

     iteration #  2     ecut=    55.00 Ry     beta= 0.70
     Davidson diagonalization with overlap
     ethr =  4.79E-05,  avg # of iterations =  2.0

     total cpu time spent up to now is        2.2 secs

     total energy              =    -350.23514066 Ry
     Harris-Foulkes estimate   =    -350.23707195 Ry
     estimated scf accuracy    <       0.00401733 Ry

     iteration #  3     ecut=    55.00 Ry     beta= 0.70
     Davidson diagonalization with overlap
     ethr =  3.65E-05,  avg # of iterations =  1.7

     total cpu time spent up to now is        2.5 secs

     total energy              =    -350.23591220 Ry
     Harris-Foulkes estimate   =    -350.23589478 Ry
     estimated scf accuracy    <       0.00001445 Ry

     iteration #  4     ecut=    55.00 Ry     beta= 0.70
     Davidson diagonalization with overlap
     ethr =  1.31E-07,  avg # of iterations =  2.9

     total cpu time spent up to now is        2.9 secs

     total energy              =    -350.23592050 Ry
     Harris-Foulkes estimate   =    -350.23592031 Ry
     estimated scf accuracy    <       0.00000050 Ry

     iteration #  5     ecut=    55.00 Ry     beta= 0.70
     Davidson diagonalization with overlap
     ethr =  4.52E-09,  avg # of iterations =  1.1

     total cpu time spent up to now is        3.2 secs

     End of self-consistent calculation

          k = 0.0000 0.0000 0.0000 (   821 PWs)   bands (ev):

     4.8060   7.9234   7.9234   7.9234   8.9768   8.9768  29.5448  32.8304
    32.8304  37.1499

          k =-0.1250 0.1250-0.1250 (   797 PWs)   bands (ev):

     5.2777   7.8328   8.0442   8.0442   8.9431   8.9431  28.5841  30.4448
    32.7854  32.7854

          k =-0.2500 0.2500-0.2500 (   797 PWs)   bands (ev):

     6.2260   8.1150   8.1285   8.1285   9.1038   9.1038  23.8393  29.9535
    32.3612  32.3612

          k =-0.3750 0.3750-0.3750 (   790 PWs)   bands (ev):

     6.3607   7.9852   7.9852   9.5526   9.5526  10.1395  19.1310  29.0160
    31.3759  31.3759

          k = 0.5000-0.5000 0.5000 (   796 PWs)   bands (ev):

     6.2843   7.9024   7.9024   9.7815   9.7815  12.1902  16.2565  28.5900
    30.8294  30.8294

          k = 0.0000 0.2500 0.0000 (   797 PWs)   bands (ev):

     5.4367   7.6778   8.1614   8.1614   8.7492   9.0858  29.5666  30.8652
    30.8652  30.9693

          k =-0.1250 0.3750-0.1250 (   800 PWs)   bands (ev):

     6.3065   7.5185   8.2167   8.3544   8.9639   9.2582  25.8050  29.5105
    29.6827  32.1519

          k =-0.2500 0.5000-0.2500 (   788 PWs)   bands (ev):

     6.6435   7.9166   8.2034   8.2813   9.6332  10.4275  20.9074  28.7243
    28.8002  30.5022

          k = 0.6250-0.3750 0.6250 (   795 PWs)   bands (ev):

     6.5472   7.7490   8.1431   8.9399   9.7974  12.9296  16.8642  27.4556
    29.0710  29.4893

          k = 0.5000-0.2500 0.5000 (   790 PWs)   bands (ev):

     6.6053   7.8032   8.1383   8.9441   9.4928  12.1571  18.0452  26.6962
    29.7063  30.6440

          k = 0.3750-0.1250 0.3750 (   796 PWs)   bands (ev):

     6.7163   7.8582   8.1993   8.2891   8.9195  10.1677  22.5331  26.7738
    31.1094  33.4207

          k = 0.2500 0.0000 0.2500 (   799 PWs)   bands (ev):

     5.9828   7.6442   8.1978   8.2388   8.7178   9.2524  27.3838  27.5402
    32.3785  33.8416

          k = 0.0000 0.5000 0.0000 (   817 PWs)   bands (ev):

     6.6464   7.1189   8.8077   8.8077   8.8801   9.3540  27.3846  27.3846
    28.4723  29.6335

          k =-0.1250 0.6250-0.1250 (   796 PWs)   bands (ev):

     6.7831   7.0447   8.5948   8.9251   9.6701  10.7450  23.2320  26.0804
    26.2397  29.7607

          k = 0.7500-0.2500 0.7500 (   788 PWs)   bands (ev):

     6.7730   7.3464   8.3906   8.7738   9.8397  13.6559  18.7769  23.8982
    26.3782  29.5172

          k = 0.6250-0.1250 0.6250 (   789 PWs)   bands (ev):

     7.0009   7.5726   8.1969   8.6496   9.5198  14.8291  17.6496  22.4529
    27.9081  29.5879

          k = 0.5000 0.0000 0.5000 (   792 PWs)   bands (ev):

     7.3345   7.5778   7.9575   8.5914   8.9868  12.1239  21.9359  22.0483
    30.2426  30.4975

          k = 0.0000 0.7500 0.0000 (   789 PWs)   bands (ev):

     6.4934   6.6045   9.6005   9.6005   9.6328  11.5410  23.0626  24.5580
    24.5580  29.7126

          k = 0.8750-0.1250 0.8750 (   782 PWs)   bands (ev):

     6.4616   6.6349   9.3736   9.4827   9.9015  14.0285  20.6376  21.6808
    24.2673  29.7106

          k = 0.7500 0.0000 0.7500 (   786 PWs)   bands (ev):

     6.6981   7.1188   8.6344   9.2002   9.7058  16.9303  17.9231  19.7978
    25.5254  29.6064

          k = 0.0000-1.0000 0.0000 (   790 PWs)   bands (ev):

     6.2540   6.4023   9.7512   9.9908   9.9908  14.2127  19.3798  23.4495
    23.4495  29.7476

          k =-0.2500 0.5000 0.0000 (   800 PWs)   bands (ev):

     7.0389   7.2811   8.0017   8.8055   8.9926  10.2513  24.6094  24.9014
    29.1130  32.5048

          k = 0.6250-0.3750 0.8750 (   791 PWs)   bands (ev):

     7.0153   7.6101   7.9333   8.7109   9.4882  12.3887  20.0269  24.4918
    26.8778  32.1501

          k = 0.5000-0.2500 0.7500 (   802 PWs)   bands (ev):

     6.9590   7.4644   8.3416   8.5356   9.7053  14.9256  16.6051  25.1269
    25.3434  31.6137

          k = 0.7500-0.2500 1.0000 (   793 PWs)   bands (ev):

     6.8439   6.8791   8.5190   9.4472   9.5927  12.8659  22.4717  22.6239
    23.6078  32.0011

          k = 0.6250-0.1250 0.8750 (   786 PWs)   bands (ev):

     6.9296   7.2251   8.1822   9.0758   9.8226  15.9898  18.4973  21.4610
    23.2647  32.3189

          k = 0.5000 0.0000 0.7500 (   788 PWs)   bands (ev):

     7.2364   7.5850   7.6543   8.9309   9.5901  15.0891  19.5812  20.6132
    24.7917  32.8096

          k =-0.2500-1.0000 0.0000 (   778 PWs)   bands (ev):

     6.5787   6.7162   9.0161   9.4269   9.9918  15.7172  19.4697  21.6750
    21.9846  31.8201

          k =-0.5000-1.0000 0.0000 (   772 PWs)   bands (ev):

     7.0165   7.6350   7.6350   8.9843   9.9923  18.6036  18.6036  19.6813
    20.8520  36.0157

     the Fermi energy is    12.4902 ev

!    total energy              =    -350.23592053 Ry
     Harris-Foulkes estimate   =    -350.23592053 Ry
     estimated scf accuracy    <          5.0E-09 Ry

     total all-electron energy =    -10627.246329 Ry

     The total energy is the sum of the following terms:

     one-electron contribution =       1.61056755 Ry
     hartree contribution      =      14.57312780 Ry
     xc contribution           =     -22.14428174 Ry
     ewald contribution        =     -71.86118025 Ry
     one-center paw contrib.   =    -272.41384958 Ry
     smearing contrib. (-TS)   =      -0.00030430 Ry

     convergence has been achieved in   5 iterations

     Forces acting on atoms (cartesian axes, Ry/au):

     atom    1 type  1   force =     0.00000000    0.00000000    0.00000000

     Total force =     0.000000     Total SCF correction =     0.000000


     Computing stress (Cartesian axis) and pressure

          total   stress  (Ry/bohr**3)                   (kbar)     P=  -33.98
  -0.00023098   0.00000000   0.00000000        -33.98      0.00      0.00
   0.00000000  -0.00023098  -0.00000000          0.00    -33.98     -0.00
   0.00000000  -0.00000000  -0.00023098          0.00     -0.00    -33.98


     Writing output data file Ag.save/

     init_run     :      0.34s CPU      0.37s WALL (       1 calls)
     electrons    :      1.90s CPU      2.04s WALL (       1 calls)
     forces       :      0.03s CPU      0.03s WALL (       1 calls)
     stress       :      0.11s CPU      0.11s WALL (       1 calls)

     Called by init_run:
     wfcinit      :      0.07s CPU      0.07s WALL (       1 calls)
     potinit      :      0.10s CPU      0.11s WALL (       1 calls)
     hinit0       :      0.16s CPU      0.16s WALL (       1 calls)

     Called by electrons:
     c_bands      :      1.16s CPU      1.22s WALL (       6 calls)
     sum_band     :      0.23s CPU      0.24s WALL (       6 calls)
     v_of_rho     :      0.02s CPU      0.02s WALL (       6 calls)
     newd         :      0.04s CPU      0.05s WALL (       6 calls)
     PAW_pot      :      0.54s CPU      0.62s WALL (       6 calls)
     mix_rho      :      0.00s CPU      0.00s WALL (       6 calls)

     Called by c_bands:
     init_us_2    :      0.04s CPU      0.05s WALL (     435 calls)
     cegterg      :      1.10s CPU      1.17s WALL (     174 calls)

     Called by sum_band:
     sum_band:bec :      0.00s CPU      0.00s WALL (     174 calls)
     addusdens    :      0.04s CPU      0.04s WALL (       6 calls)

     Called by *egterg:
     h_psi        :      0.86s CPU      0.91s WALL (     636 calls)
     s_psi        :      0.03s CPU      0.03s WALL (     636 calls)
     g_psi        :      0.00s CPU      0.00s WALL (     433 calls)
     cdiaghg      :      0.12s CPU      0.13s WALL (     578 calls)

     Called by h_psi:
     h_psi:pot    :      0.86s CPU      0.91s WALL (     636 calls)
     h_psi:calbec :      0.04s CPU      0.04s WALL (     636 calls)
     vloc_psi     :      0.78s CPU      0.83s WALL (     636 calls)
     add_vuspsi   :      0.03s CPU      0.03s WALL (     636 calls)

     General routines
     calbec       :      0.07s CPU      0.07s WALL (     955 calls)
     fft          :      0.02s CPU      0.02s WALL (      93 calls)
     ffts         :      0.00s CPU      0.00s WALL (       6 calls)
     fftw         :      0.88s CPU      0.92s WALL (   10766 calls)

     Parallel routines
     fft_scatt_xy :      0.07s CPU      0.07s WALL (   10865 calls)
     fft_scatt_yz :      0.24s CPU      0.25s WALL (   10865 calls)

     PWSCF        :     3.24s CPU         3.47s WALL


   This run was terminated on:   0:24:38  27Mar2024            

=------------------------------------------------------------------------------=
   JOB DONE.
=------------------------------------------------------------------------------=
