
     Program PWSCF v.6.3MaX starts on 27Mar2024 at  0:37:33 

     This program is part of the open-source Quantum ESPRESSO suite
     for quantum simulation of materials; please cite
         "P. Giannozzi et al., J. Phys.:Condens. Matter 21 395502 (2009);
         "P. Giannozzi et al., J. Phys.:Condens. Matter 29 465901 (2017);
          URL http://www.quantum-espresso.org", 
     in publications or presentations arising from this work. More details at
     http://www.quantum-espresso.org/quote

     Parallel version (MPI), running on     5 processors

     MPI processes distributed on     1 nodes
     R & G space division:  proc/nbgrp/npool/nimage =       5
     Waiting for input...
     Reading input from standard input

     Current dimensions of program PWSCF are:
     Max number of different atomic species (ntypx) = 10
     Max number of k-points (npk) =  40000
     Max angular momentum in pseudopotentials (lmaxx) =  3

     Subspace diagonalization in iterative solution of the eigenvalue problem:
     a serial algorithm will be used


     Parallelization info
     --------------------
     sticks:   dense  smooth     PW     G-vecs:    dense   smooth      PW
     Min         131     131     39                 2222     2222     381
     Max         134     134     40                 2223     2223     384
     Sum         661     661    199                11113    11113    1917



     bravais-lattice index     =            2
     lattice parameter (alat)  =       7.7200  a.u.
     unit-cell volume          =     115.0249 (a.u.)^3
     number of atoms/cell      =            1
     number of atomic types    =            1
     number of electrons       =        11.00
     number of Kohn-Sham states=           10
     kinetic-energy cutoff     =      80.0000  Ry
     charge density cutoff     =     320.0000  Ry
     convergence threshold     =      1.0E-08
     mixing beta               =       0.7000
     number of iterations used =            8  plain     mixing
     Exchange-correlation      = PBESOL ( 1  4 10  8 0 0)

     celldm(1)=   7.720000  celldm(2)=   0.000000  celldm(3)=   0.000000
     celldm(4)=   0.000000  celldm(5)=   0.000000  celldm(6)=   0.000000

     crystal axes: (cart. coord. in units of alat)
               a(1) = (  -0.500000   0.000000   0.500000 )  
               a(2) = (   0.000000   0.500000   0.500000 )  
               a(3) = (  -0.500000   0.500000   0.000000 )  

     reciprocal axes: (cart. coord. in units 2 pi/alat)
               b(1) = ( -1.000000 -1.000000  1.000000 )  
               b(2) = (  1.000000  1.000000  1.000000 )  
               b(3) = ( -1.000000  1.000000 -1.000000 )  


     PseudoPot. # 1 for Ag read from file:
     /home/lorenzo/pseudos/Ag/Ag.pbesol-n-rrkjus_psl.1.0.0.UPF
     MD5 check sum: 3b43e8aa747a56f565f44d11355b8b45
     Pseudo is Ultrasoft + core correction, Zval = 11.0
     Generated using "atomic" code by A. Dal Corso v.6.2.2
     Using radial grid of 1237 points,  6 beta functions with: 
                l(1) =   0
                l(2) =   0
                l(3) =   1
                l(4) =   1
                l(5) =   2
                l(6) =   2
     Q(r) pseudized with 0 coefficients 


     atomic species   valence    mass     pseudopotential
        Ag            11.00   107.86820     Ag( 1.00)

     48 Sym. Ops., with inversion, found



   Cartesian axes

     site n.     atom                  positions (alat units)
         1           Ag  tau(   1) = (   0.0000000   0.0000000   0.0000000  )

     number of k points=    10  gaussian smearing, width (Ry)=  0.0100
                       cart. coord. in units 2pi/alat
        k(    1) = (   0.0000000   0.0000000   0.0000000), wk =   0.0160000
        k(    2) = (  -0.2000000   0.2000000  -0.2000000), wk =   0.1280000
        k(    3) = (  -0.4000000   0.4000000  -0.4000000), wk =   0.1280000
        k(    4) = (   0.0000000   0.4000000   0.0000000), wk =   0.0960000
        k(    5) = (  -0.2000000   0.6000000  -0.2000000), wk =   0.3840000
        k(    6) = (   0.6000000  -0.2000000   0.6000000), wk =   0.3840000
        k(    7) = (   0.4000000   0.0000000   0.4000000), wk =   0.1920000
        k(    8) = (   0.0000000   0.8000000   0.0000000), wk =   0.0960000
        k(    9) = (   0.8000000   0.0000000   0.8000000), wk =   0.1920000
        k(   10) = (   0.6000000  -0.2000000   1.0000000), wk =   0.3840000

     Dense  grid:    11113 G-vectors     FFT dimensions: (  32,  32,  32)

     Estimated max dynamical RAM per process >      10.54 MB

     Estimated total dynamical RAM >      52.69 MB

     Initial potential from superposition of free atoms

     starting charge   10.99964, renormalised to   11.00000
     Starting wfcs are    9 randomized atomic wfcs +    1 random wfcs

     total cpu time spent up to now is        1.1 secs

     Self-consistent Calculation

     iteration #  1     ecut=    80.00 Ry     beta= 0.70
     Davidson diagonalization with overlap
     ethr =  1.00E-02,  avg # of iterations =  4.7

     Threshold (ethr) on eigenvalues was too large:
     Diagonalizing with lowered threshold

     Davidson diagonalization with overlap
     ethr =  3.88E-05,  avg # of iterations =  2.6

     total cpu time spent up to now is        1.4 secs

     total energy              =     -84.18921515 Ry
     Harris-Foulkes estimate   =     -84.19225608 Ry
     estimated scf accuracy    <       0.00472691 Ry

     iteration #  2     ecut=    80.00 Ry     beta= 0.70
     Davidson diagonalization with overlap
     ethr =  4.30E-05,  avg # of iterations =  2.0

     total cpu time spent up to now is        1.5 secs

     total energy              =     -84.19031750 Ry
     Harris-Foulkes estimate   =     -84.19205004 Ry
     estimated scf accuracy    <       0.00321168 Ry

     iteration #  3     ecut=    80.00 Ry     beta= 0.70
     Davidson diagonalization with overlap
     ethr =  2.92E-05,  avg # of iterations =  2.0

     total cpu time spent up to now is        1.7 secs

     total energy              =     -84.19103194 Ry
     Harris-Foulkes estimate   =     -84.19103409 Ry
     estimated scf accuracy    <       0.00002551 Ry

     iteration #  4     ecut=    80.00 Ry     beta= 0.70
     Davidson diagonalization with overlap
     ethr =  2.32E-07,  avg # of iterations =  3.0

     total cpu time spent up to now is        1.8 secs

     total energy              =     -84.19103873 Ry
     Harris-Foulkes estimate   =     -84.19103869 Ry
     estimated scf accuracy    <       0.00000031 Ry

     iteration #  5     ecut=    80.00 Ry     beta= 0.70
     Davidson diagonalization with overlap
     ethr =  2.81E-09,  avg # of iterations =  2.1

     total cpu time spent up to now is        2.0 secs

     total energy              =     -84.19103881 Ry
     Harris-Foulkes estimate   =     -84.19103883 Ry
     estimated scf accuracy    <       0.00000004 Ry

     iteration #  6     ecut=    80.00 Ry     beta= 0.70
     Davidson diagonalization with overlap
     ethr =  3.31E-10,  avg # of iterations =  2.3

     total cpu time spent up to now is        2.1 secs

     End of self-consistent calculation

          k = 0.0000 0.0000 0.0000 (  1411 PWs)   bands (ev):

     4.8091   7.9302   7.9302   7.9302   8.9795   8.9795  29.5471  32.8319
    32.8319  32.8319

          k =-0.2000 0.2000-0.2000 (  1387 PWs)   bands (ev):

     5.8881   7.8583   8.1372   8.1372   8.9897   8.9897  25.8252  30.2150
    32.6140  32.6140

          k =-0.4000 0.4000-0.4000 (  1392 PWs)   bands (ev):

     6.3430   7.9613   7.9613   9.6344   9.6344  10.6786  18.3020  28.8691
    31.1979  31.1979

          k = 0.0000 0.4000 0.0000 (  1375 PWs)   bands (ev):

     6.2481   7.3636   8.5178   8.5178   8.6175   9.2379  28.7791  28.7791
    29.6059  29.6751

          k =-0.2000 0.6000-0.2000 (  1403 PWs)   bands (ev):

     6.8010   7.4818   8.2047   8.6168   9.7321  11.1289  21.3250  26.9058
    27.1390  29.7277

          k = 0.6000-0.2000 0.6000 (  1389 PWs)   bands (ev):

     6.8739   7.6011   8.4227   8.4871   9.5986  14.2345  17.0416  24.2896
    28.6038  29.5204

          k = 0.4000 0.0000 0.4000 (  1384 PWs)   bands (ev):

     7.1047   7.5066   8.0827   8.5651   8.6691  10.5333  23.8951  24.1917
    31.2710  32.9246

          k = 0.0000 0.8000 0.0000 (  1391 PWs)   bands (ev):

     6.4164   6.5400   9.6757   9.7373   9.7373  12.2437  22.0045  24.1748
    24.1748  29.7296

          k = 0.8000 0.0000 0.8000 (  1384 PWs)   bands (ev):

     6.5700   6.8797   8.9797   9.3681   9.8125  16.1074  19.1236  19.8041
    24.8185  29.6521

          k = 0.6000-0.2000 1.0000 (  1382 PWs)   bands (ev):

     7.1168   7.2668   7.9264   9.1138   9.7261  14.8805  20.4768  20.9982
    23.1677  34.3702

     the Fermi energy is    12.2639 ev

!    total energy              =     -84.19103882 Ry
     Harris-Foulkes estimate   =     -84.19103882 Ry
     estimated scf accuracy    <          6.1E-10 Ry

     The total energy is the sum of the following terms:

     one-electron contribution =      -4.75331696 Ry
     hartree contribution      =      14.56581974 Ry
     xc contribution           =     -22.14209655 Ry
     ewald contribution        =     -71.86118018 Ry
     smearing contrib. (-TS)   =      -0.00026488 Ry

     convergence has been achieved in   6 iterations

     Forces acting on atoms (cartesian axes, Ry/au):

     atom    1 type  1   force =     0.00000000    0.00000000    0.00000000

     Total force =     0.000000     Total SCF correction =     0.000000


     Computing stress (Cartesian axis) and pressure

          total   stress  (Ry/bohr**3)                   (kbar)     P=  -30.85
  -0.00020973  -0.00000000  -0.00000000        -30.85     -0.00     -0.00
  -0.00000000  -0.00020973   0.00000000         -0.00    -30.85      0.00
  -0.00000000   0.00000000  -0.00020973         -0.00      0.00    -30.85


     Writing output data file Ag.save/

     init_run     :      0.25s CPU      0.26s WALL (       1 calls)
     electrons    :      0.97s CPU      1.06s WALL (       1 calls)
     forces       :      0.04s CPU      0.04s WALL (       1 calls)
     stress       :      0.12s CPU      0.12s WALL (       1 calls)

     Called by init_run:
     wfcinit      :      0.03s CPU      0.04s WALL (       1 calls)
     potinit      :      0.01s CPU      0.01s WALL (       1 calls)
     hinit0       :      0.18s CPU      0.18s WALL (       1 calls)

     Called by electrons:
     c_bands      :      0.66s CPU      0.74s WALL (       7 calls)
     sum_band     :      0.20s CPU      0.21s WALL (       7 calls)
     v_of_rho     :      0.04s CPU      0.04s WALL (       7 calls)
     newd         :      0.08s CPU      0.08s WALL (       7 calls)
     mix_rho      :      0.00s CPU      0.00s WALL (       7 calls)

     Called by c_bands:
     init_us_2    :      0.03s CPU      0.03s WALL (     170 calls)
     cegterg      :      0.62s CPU      0.70s WALL (      70 calls)

     Called by sum_band:
     sum_band:bec :      0.00s CPU      0.00s WALL (      70 calls)
     addusdens    :      0.07s CPU      0.07s WALL (       7 calls)

     Called by *egterg:
     h_psi        :      0.49s CPU      0.56s WALL (     267 calls)
     s_psi        :      0.02s CPU      0.02s WALL (     267 calls)
     g_psi        :      0.00s CPU      0.00s WALL (     187 calls)
     cdiaghg      :      0.05s CPU      0.05s WALL (     247 calls)

     Called by h_psi:
     h_psi:pot    :      0.48s CPU      0.56s WALL (     267 calls)
     h_psi:calbec :      0.03s CPU      0.03s WALL (     267 calls)
     vloc_psi     :      0.44s CPU      0.50s WALL (     267 calls)
     add_vuspsi   :      0.02s CPU      0.02s WALL (     267 calls)

     General routines
     calbec       :      0.05s CPU      0.05s WALL (     387 calls)
     fft          :      0.03s CPU      0.03s WALL (     104 calls)
     ffts         :      0.00s CPU      0.00s WALL (       7 calls)
     fftw         :      0.49s CPU      0.56s WALL (    4374 calls)

     Parallel routines
     fft_scatt_xy :      0.05s CPU      0.06s WALL (    4485 calls)
     fft_scatt_yz :      0.16s CPU      0.19s WALL (    4485 calls)

     PWSCF        :     2.17s CPU         2.33s WALL


   This run was terminated on:   0:37:35  27Mar2024            

=------------------------------------------------------------------------------=
   JOB DONE.
=------------------------------------------------------------------------------=
