
     Program PWSCF v.6.3MaX starts on 27Mar2024 at  0:11:26 

     This program is part of the open-source Quantum ESPRESSO suite
     for quantum simulation of materials; please cite
         "P. Giannozzi et al., J. Phys.:Condens. Matter 21 395502 (2009);
         "P. Giannozzi et al., J. Phys.:Condens. Matter 29 465901 (2017);
          URL http://www.quantum-espresso.org", 
     in publications or presentations arising from this work. More details at
     http://www.quantum-espresso.org/quote

     Parallel version (MPI), running on     5 processors

     MPI processes distributed on     1 nodes
     R & G space division:  proc/nbgrp/npool/nimage =       5
     Waiting for input...
     Reading input from standard input

     Current dimensions of program PWSCF are:
     Max number of different atomic species (ntypx) = 10
     Max number of k-points (npk) =  40000
     Max angular momentum in pseudopotentials (lmaxx) =  3
               file Ag.pbesol-n-kjpaw_psl.1.0.0.UPF: wavefunction(s)  5S 5P renormalized

     Subspace diagonalization in iterative solution of the eigenvalue problem:
     a serial algorithm will be used


     Parallelization info
     --------------------
     sticks:   dense  smooth     PW     G-vecs:    dense   smooth      PW
     Min          39      39     14                  381      381      82
     Max          40      40     15                  384      384      83
     Sum         199     199     73                 1917     1917     411



     bravais-lattice index     =            2
     lattice parameter (alat)  =       7.7200  a.u.
     unit-cell volume          =     115.0249 (a.u.)^3
     number of atoms/cell      =            1
     number of atomic types    =            1
     number of electrons       =        11.00
     number of Kohn-Sham states=           10
     kinetic-energy cutoff     =      25.0000  Ry
     charge density cutoff     =     100.0000  Ry
     convergence threshold     =      1.0E-08
     mixing beta               =       0.7000
     number of iterations used =            8  plain     mixing
     Exchange-correlation      = SLA PW PSX PSC ( 1  4 10  8 0 0)

     celldm(1)=   7.720000  celldm(2)=   0.000000  celldm(3)=   0.000000
     celldm(4)=   0.000000  celldm(5)=   0.000000  celldm(6)=   0.000000

     crystal axes: (cart. coord. in units of alat)
               a(1) = (  -0.500000   0.000000   0.500000 )  
               a(2) = (   0.000000   0.500000   0.500000 )  
               a(3) = (  -0.500000   0.500000   0.000000 )  

     reciprocal axes: (cart. coord. in units 2 pi/alat)
               b(1) = ( -1.000000 -1.000000  1.000000 )  
               b(2) = (  1.000000  1.000000  1.000000 )  
               b(3) = ( -1.000000  1.000000 -1.000000 )  


     PseudoPot. # 1 for Ag read from file:
     /home/lorenzo/pseudos/Ag/Ag.pbesol-n-kjpaw_psl.1.0.0.UPF
     MD5 check sum: 3b245e14fa22881b2ac493bfd23f605f
     Pseudo is Projector augmented-wave + core cor, Zval = 11.0
     Generated using "atomic" code by A. Dal Corso v.6.2.2
     Shape of augmentation charge: PSQ
     Using radial grid of 1237 points,  6 beta functions with: 
                l(1) =   0
                l(2) =   0
                l(3) =   1
                l(4) =   1
                l(5) =   2
                l(6) =   2
     Q(r) pseudized with 0 coefficients 


     atomic species   valence    mass     pseudopotential
        Ag            11.00   107.86820     Ag( 1.00)

     48 Sym. Ops., with inversion, found



   Cartesian axes

     site n.     atom                  positions (alat units)
         1           Ag  tau(   1) = (   0.0000000   0.0000000   0.0000000  )

     number of k points=    29  gaussian smearing, width (Ry)=  0.0100
                       cart. coord. in units 2pi/alat
        k(    1) = (   0.0000000   0.0000000   0.0000000), wk =   0.0039062
        k(    2) = (  -0.1250000   0.1250000  -0.1250000), wk =   0.0312500
        k(    3) = (  -0.2500000   0.2500000  -0.2500000), wk =   0.0312500
        k(    4) = (  -0.3750000   0.3750000  -0.3750000), wk =   0.0312500
        k(    5) = (   0.5000000  -0.5000000   0.5000000), wk =   0.0156250
        k(    6) = (   0.0000000   0.2500000   0.0000000), wk =   0.0234375
        k(    7) = (  -0.1250000   0.3750000  -0.1250000), wk =   0.0937500
        k(    8) = (  -0.2500000   0.5000000  -0.2500000), wk =   0.0937500
        k(    9) = (   0.6250000  -0.3750000   0.6250000), wk =   0.0937500
        k(   10) = (   0.5000000  -0.2500000   0.5000000), wk =   0.0937500
        k(   11) = (   0.3750000  -0.1250000   0.3750000), wk =   0.0937500
        k(   12) = (   0.2500000   0.0000000   0.2500000), wk =   0.0468750
        k(   13) = (   0.0000000   0.5000000   0.0000000), wk =   0.0234375
        k(   14) = (  -0.1250000   0.6250000  -0.1250000), wk =   0.0937500
        k(   15) = (   0.7500000  -0.2500000   0.7500000), wk =   0.0937500
        k(   16) = (   0.6250000  -0.1250000   0.6250000), wk =   0.0937500
        k(   17) = (   0.5000000   0.0000000   0.5000000), wk =   0.0468750
        k(   18) = (   0.0000000   0.7500000   0.0000000), wk =   0.0234375
        k(   19) = (   0.8750000  -0.1250000   0.8750000), wk =   0.0937500
        k(   20) = (   0.7500000   0.0000000   0.7500000), wk =   0.0468750
        k(   21) = (   0.0000000  -1.0000000   0.0000000), wk =   0.0117188
        k(   22) = (  -0.2500000   0.5000000   0.0000000), wk =   0.0937500
        k(   23) = (   0.6250000  -0.3750000   0.8750000), wk =   0.1875000
        k(   24) = (   0.5000000  -0.2500000   0.7500000), wk =   0.0937500
        k(   25) = (   0.7500000  -0.2500000   1.0000000), wk =   0.0937500
        k(   26) = (   0.6250000  -0.1250000   0.8750000), wk =   0.1875000
        k(   27) = (   0.5000000   0.0000000   0.7500000), wk =   0.0937500
        k(   28) = (  -0.2500000  -1.0000000   0.0000000), wk =   0.0468750
        k(   29) = (  -0.5000000  -1.0000000   0.0000000), wk =   0.0234375

     Dense  grid:     1917 G-vectors     FFT dimensions: (  18,  18,  18)

     Estimated max dynamical RAM per process >       2.64 MB

     Estimated total dynamical RAM >      13.18 MB

     Initial potential from superposition of free atoms

     starting charge   10.99964, renormalised to   11.00000
     Starting wfcs are    9 randomized atomic wfcs +    1 random wfcs
     Checking if some PAW data can be deallocated... 

     total cpu time spent up to now is        1.1 secs

     Self-consistent Calculation

     iteration #  1     ecut=    25.00 Ry     beta= 0.70
     Davidson diagonalization with overlap
     ethr =  1.00E-02,  avg # of iterations =  4.7

     Threshold (ethr) on eigenvalues was too large:
     Diagonalizing with lowered threshold

     Davidson diagonalization with overlap
     ethr =  8.22E-04,  avg # of iterations =  1.2

     total cpu time spent up to now is        1.5 secs

     total energy              =    -349.72330462 Ry
     Harris-Foulkes estimate   =    -349.79662021 Ry
     estimated scf accuracy    <       0.09259350 Ry

     iteration #  2     ecut=    25.00 Ry     beta= 0.70
     Davidson diagonalization with overlap
     ethr =  8.42E-04,  avg # of iterations =  2.0

     total cpu time spent up to now is        1.8 secs

     total energy              =    -349.75603702 Ry
     Harris-Foulkes estimate   =    -349.78686648 Ry
     estimated scf accuracy    <       0.06584540 Ry

     iteration #  3     ecut=    25.00 Ry     beta= 0.70
     Davidson diagonalization with overlap
     ethr =  5.99E-04,  avg # of iterations =  1.3

     total cpu time spent up to now is        2.0 secs

     total energy              =    -349.76673827 Ry
     Harris-Foulkes estimate   =    -349.76673865 Ry
     estimated scf accuracy    <       0.00061507 Ry

     iteration #  4     ecut=    25.00 Ry     beta= 0.70
     Davidson diagonalization with overlap
     ethr =  5.59E-06,  avg # of iterations =  3.2

     total cpu time spent up to now is        2.3 secs

     total energy              =    -349.76702543 Ry
     Harris-Foulkes estimate   =    -349.76702468 Ry
     estimated scf accuracy    <       0.00003462 Ry

     iteration #  5     ecut=    25.00 Ry     beta= 0.70
     Davidson diagonalization with overlap
     ethr =  3.15E-07,  avg # of iterations =  1.0

     total cpu time spent up to now is        2.5 secs

     total energy              =    -349.76703591 Ry
     Harris-Foulkes estimate   =    -349.76702576 Ry
     estimated scf accuracy    <       0.00003830 Ry

     iteration #  6     ecut=    25.00 Ry     beta= 0.70
     Davidson diagonalization with overlap
     ethr =  3.15E-07,  avg # of iterations =  1.1

     total cpu time spent up to now is        2.7 secs

     total energy              =    -349.76701420 Ry
     Harris-Foulkes estimate   =    -349.76703870 Ry
     estimated scf accuracy    <       0.00006378 Ry

     iteration #  7     ecut=    25.00 Ry     beta= 0.70
     Davidson diagonalization with overlap
     ethr =  3.15E-07,  avg # of iterations =  1.2

     total cpu time spent up to now is        2.9 secs

     total energy              =    -349.76701779 Ry
     Harris-Foulkes estimate   =    -349.76701969 Ry
     estimated scf accuracy    <       0.00000765 Ry

     iteration #  8     ecut=    25.00 Ry     beta= 0.70
     Davidson diagonalization with overlap
     ethr =  6.95E-08,  avg # of iterations =  1.0

     total cpu time spent up to now is        3.1 secs

     total energy              =    -349.76701658 Ry
     Harris-Foulkes estimate   =    -349.76701812 Ry
     estimated scf accuracy    <       0.00000250 Ry

     iteration #  9     ecut=    25.00 Ry     beta= 0.70
     Davidson diagonalization with overlap
     ethr =  2.27E-08,  avg # of iterations =  2.0

     total cpu time spent up to now is        3.5 secs

     total energy              =    -349.76701734 Ry
     Harris-Foulkes estimate   =    -349.76701737 Ry
     estimated scf accuracy    <       0.00000017 Ry

     iteration # 10     ecut=    25.00 Ry     beta= 0.70
     Davidson diagonalization with overlap
     ethr =  1.56E-09,  avg # of iterations =  1.5

     total cpu time spent up to now is        3.7 secs

     total energy              =    -349.76701729 Ry
     Harris-Foulkes estimate   =    -349.76701735 Ry
     estimated scf accuracy    <       0.00000010 Ry

     iteration # 11     ecut=    25.00 Ry     beta= 0.70
     Davidson diagonalization with overlap
     ethr =  9.29E-10,  avg # of iterations =  2.0

     total cpu time spent up to now is        3.9 secs

     End of self-consistent calculation

          k = 0.0000 0.0000 0.0000 (   259 PWs)   bands (ev):

     4.8106   7.5981   7.5981   7.5981   8.8450   8.8450  29.6219  32.8116
    32.8116  32.8116

          k =-0.1250 0.1250-0.1250 (   256 PWs)   bands (ev):

     5.2779   7.6737   7.7381   7.7381   8.8456   8.8456  28.6244  30.4885
    32.7626  32.7626

          k =-0.2500 0.2500-0.2500 (   247 PWs)   bands (ev):

     6.1811   7.9450   7.9450   8.0174   9.1071   9.1071  23.8253  30.0415
    32.3345  32.3345

          k =-0.3750 0.3750-0.3750 (   247 PWs)   bands (ev):

     6.2493   7.7651   7.7651   9.5425   9.5425  10.0898  19.0786  29.0955
    31.3118  31.3118

          k = 0.5000-0.5000 0.5000 (   242 PWs)   bands (ev):

     6.1320   7.7598   7.7598   9.8382   9.8382  12.1625  16.1529  28.6667
    30.7402  30.7402

          k = 0.0000 0.2500 0.0000 (   254 PWs)   bands (ev):

     5.4361   7.4375   8.0039   8.0039   8.5385   9.0020  29.6485  30.8533
    30.8533  31.0079

          k =-0.1250 0.3750-0.1250 (   243 PWs)   bands (ev):

     6.2963   7.4306   8.1607   8.3093   8.9202   9.2548  25.8647  29.5193
    29.7890  32.2432

          k =-0.2500 0.5000-0.2500 (   240 PWs)   bands (ev):

     6.5703   7.8394   8.1781   8.2251   9.7270  10.3622  20.8983  28.7860
    28.8321  30.5019

          k = 0.6250-0.3750 0.6250 (   246 PWs)   bands (ev):

     6.3975   7.6132   7.9301   8.8494   9.7672  12.8739  16.7817  27.4900
    29.0110  29.4907

          k = 0.5000-0.2500 0.5000 (   247 PWs)   bands (ev):

     6.4849   7.6374   7.9200   8.8460   9.4304  12.0927  17.9916  26.7003
    29.7254  30.5947

          k = 0.3750-0.1250 0.3750 (   246 PWs)   bands (ev):

     6.6365   7.7757   8.0648   8.1067   8.8705  10.1924  22.5106  26.8068
    31.1369  33.4176

          k = 0.2500 0.0000 0.2500 (   249 PWs)   bands (ev):

     5.9767   7.6067   7.9353   8.0533   8.6205   9.2443  27.3762  27.6331
    32.4003  33.8912

          k = 0.0000 0.5000 0.0000 (   234 PWs)   bands (ev):

     6.6292   7.0478   8.8563   8.9584   8.9584   9.4508  27.4069  27.4069
    28.6262  29.8274

          k =-0.1250 0.6250-0.1250 (   241 PWs)   bands (ev):

     6.6908   6.9354   8.5665   8.8916   9.7294  10.6809  23.2136  26.1183
    26.2082  29.8463

          k = 0.7500-0.2500 0.7500 (   242 PWs)   bands (ev):

     6.7197   7.2058   8.2989   8.6774   9.8334  13.5970  18.7369  23.8931
    26.3362  29.6331

          k = 0.6250-0.1250 0.6250 (   241 PWs)   bands (ev):

     6.9436   7.4796   8.1344   8.5322   9.4700  14.7935  17.6379  22.4387
    27.8766  29.6822

          k = 0.5000 0.0000 0.5000 (   248 PWs)   bands (ev):

     7.1557   7.4524   7.8885   8.3853   8.8709  12.0576  21.9195  21.9996
    30.2916  30.4656

          k = 0.0000 0.7500 0.0000 (   242 PWs)   bands (ev):

     6.3654   6.4919   9.5382   9.5870   9.5870  11.4861  23.0271  24.5123
    24.5123  29.8521

          k = 0.8750-0.1250 0.8750 (   236 PWs)   bands (ev):

     6.4138   6.5551   9.3397   9.5569   9.9503  13.9910  20.6075  21.6715
    24.2196  29.8820

          k = 0.7500 0.0000 0.7500 (   240 PWs)   bands (ev):

     6.6256   7.0369   8.5341   9.1561   9.7117  16.8904  17.8685  19.8282
    25.4854  29.7223

          k = 0.0000-1.0000 0.0000 (   230 PWs)   bands (ev):

     6.3592   6.4976   9.7226  10.0497  10.0497  14.1673  19.4833  23.3885
    23.3885  29.9735

          k =-0.2500 0.5000 0.0000 (   239 PWs)   bands (ev):

     6.9682   7.2482   8.0569   8.8037   8.9397  10.2545  24.6136  24.9807
    29.1759  32.6154

          k = 0.6250-0.3750 0.8750 (   241 PWs)   bands (ev):

     6.9084   7.5870   7.8783   8.6006   9.4758  12.3351  20.0109  24.4978
    26.9245  32.1635

          k = 0.5000-0.2500 0.7500 (   242 PWs)   bands (ev):

     6.8508   7.3996   8.2658   8.4018   9.6579  14.8895  16.5499  25.0737
    25.4097  31.6220

          k = 0.7500-0.2500 1.0000 (   247 PWs)   bands (ev):

     6.7010   6.7033   8.3363   9.3772   9.5069  12.7869  22.3972  22.5934
    23.6127  32.1060

          k = 0.6250-0.1250 0.8750 (   244 PWs)   bands (ev):

     6.8007   7.1019   8.0509   8.9862   9.7755  15.9481  18.4457  21.4281
    23.2639  32.3785

          k = 0.5000 0.0000 0.7500 (   239 PWs)   bands (ev):

     7.2323   7.5081   7.5502   8.8424   9.6280  15.0620  19.5566  20.6023
    24.8274  32.8616

          k =-0.2500-1.0000 0.0000 (   240 PWs)   bands (ev):

     6.4931   6.6027   8.9975   9.4136   9.9309  15.6900  19.4367  21.6354
    21.9663  31.9965

          k =-0.5000-1.0000 0.0000 (   252 PWs)   bands (ev):

     6.8675   7.3875   7.3875   8.8075   9.8373  18.5158  18.5158  19.6021
    20.8443  36.1085

     the Fermi energy is    12.4367 ev

!    total energy              =    -349.76701732 Ry
     Harris-Foulkes estimate   =    -349.76701732 Ry
     estimated scf accuracy    <          2.2E-10 Ry

     total all-electron energy =    -10626.777426 Ry

     The total energy is the sum of the following terms:

     one-electron contribution =       2.24571718 Ry
     hartree contribution      =      14.07565014 Ry
     xc contribution           =     -22.04358233 Ry
     ewald contribution        =     -71.86118028 Ry
     one-center paw contrib.   =    -272.18331734 Ry
     smearing contrib. (-TS)   =      -0.00030468 Ry

     convergence has been achieved in  11 iterations

     Forces acting on atoms (cartesian axes, Ry/au):

     atom    1 type  1   force =     0.00000000    0.00000000    0.00000000

     Total force =     0.000000     Total SCF correction =     0.000000


     Computing stress (Cartesian axis) and pressure

          total   stress  (Ry/bohr**3)                   (kbar)     P=-2901.76
  -0.01972580   0.00000000   0.00000000      -2901.76      0.00      0.00
   0.00000000  -0.01972580  -0.00000000          0.00  -2901.76     -0.00
   0.00000000  -0.00000000  -0.01972580          0.00     -0.00  -2901.76


     Writing output data file Ag.save/

     init_run     :      0.26s CPU      0.28s WALL (       1 calls)
     electrons    :      2.55s CPU      2.84s WALL (       1 calls)
     forces       :      0.01s CPU      0.01s WALL (       1 calls)
     stress       :      0.04s CPU      0.04s WALL (       1 calls)

     Called by init_run:
     wfcinit      :      0.03s CPU      0.04s WALL (       1 calls)
     potinit      :      0.11s CPU      0.12s WALL (       1 calls)
     hinit0       :      0.10s CPU      0.10s WALL (       1 calls)

     Called by electrons:
     c_bands      :      1.18s CPU      1.29s WALL (      12 calls)
     sum_band     :      0.23s CPU      0.25s WALL (      12 calls)
     v_of_rho     :      0.02s CPU      0.02s WALL (      12 calls)
     newd         :      0.02s CPU      0.02s WALL (      12 calls)
     PAW_pot      :      1.19s CPU      1.36s WALL (      12 calls)
     mix_rho      :      0.00s CPU      0.00s WALL (      12 calls)

     Called by c_bands:
     init_us_2    :      0.03s CPU      0.03s WALL (     783 calls)
     cegterg      :      1.13s CPU      1.24s WALL (     348 calls)

     Called by sum_band:
     sum_band:bec :      0.00s CPU      0.00s WALL (     348 calls)
     addusdens    :      0.02s CPU      0.02s WALL (      12 calls)

     Called by *egterg:
     h_psi        :      0.83s CPU      0.91s WALL (    1022 calls)
     s_psi        :      0.02s CPU      0.02s WALL (    1022 calls)
     g_psi        :      0.00s CPU      0.00s WALL (     645 calls)
     cdiaghg      :      0.17s CPU      0.18s WALL (     964 calls)

     Called by h_psi:
     h_psi:pot    :      0.83s CPU      0.91s WALL (    1022 calls)
     h_psi:calbec :      0.04s CPU      0.05s WALL (    1022 calls)
     vloc_psi     :      0.76s CPU      0.83s WALL (    1022 calls)
     add_vuspsi   :      0.02s CPU      0.02s WALL (    1022 calls)

     General routines
     calbec       :      0.06s CPU      0.07s WALL (    1515 calls)
     fft          :      0.01s CPU      0.01s WALL (     159 calls)
     ffts         :      0.00s CPU      0.00s WALL (      12 calls)
     fftw         :      0.86s CPU      0.94s WALL (   19964 calls)

     Parallel routines
     fft_scatt_xy :      0.07s CPU      0.08s WALL (   20135 calls)
     fft_scatt_yz :      0.36s CPU      0.39s WALL (   20135 calls)

     PWSCF        :     3.68s CPU         4.05s WALL


   This run was terminated on:   0:11:31  27Mar2024            

=------------------------------------------------------------------------------=
   JOB DONE.
=------------------------------------------------------------------------------=
