
     Program PWSCF v.6.3MaX starts on 27Mar2024 at  0:32:12 

     This program is part of the open-source Quantum ESPRESSO suite
     for quantum simulation of materials; please cite
         "P. Giannozzi et al., J. Phys.:Condens. Matter 21 395502 (2009);
         "P. Giannozzi et al., J. Phys.:Condens. Matter 29 465901 (2017);
          URL http://www.quantum-espresso.org", 
     in publications or presentations arising from this work. More details at
     http://www.quantum-espresso.org/quote

     Parallel version (MPI), running on     5 processors

     MPI processes distributed on     1 nodes
     R & G space division:  proc/nbgrp/npool/nimage =       5
     Waiting for input...
     Reading input from standard input

     Current dimensions of program PWSCF are:
     Max number of different atomic species (ntypx) = 10
     Max number of k-points (npk) =  40000
     Max angular momentum in pseudopotentials (lmaxx) =  3

     Subspace diagonalization in iterative solution of the eigenvalue problem:
     a serial algorithm will be used


     Parallelization info
     --------------------
     sticks:   dense  smooth     PW     G-vecs:    dense   smooth      PW
     Min         116     116     37                 1836     1836     327
     Max         117     117     38                 1838     1838     329
     Sum         583     583    187                 9185     9185    1639



     bravais-lattice index     =            2
     lattice parameter (alat)  =       7.7200  a.u.
     unit-cell volume          =     115.0249 (a.u.)^3
     number of atoms/cell      =            1
     number of atomic types    =            1
     number of electrons       =        11.00
     number of Kohn-Sham states=           10
     kinetic-energy cutoff     =      70.0000  Ry
     charge density cutoff     =     280.0000  Ry
     convergence threshold     =      1.0E-08
     mixing beta               =       0.7000
     number of iterations used =            8  plain     mixing
     Exchange-correlation      = PBE ( 1  4  3  4 0 0)

     celldm(1)=   7.720000  celldm(2)=   0.000000  celldm(3)=   0.000000
     celldm(4)=   0.000000  celldm(5)=   0.000000  celldm(6)=   0.000000

     crystal axes: (cart. coord. in units of alat)
               a(1) = (  -0.500000   0.000000   0.500000 )  
               a(2) = (   0.000000   0.500000   0.500000 )  
               a(3) = (  -0.500000   0.500000   0.000000 )  

     reciprocal axes: (cart. coord. in units 2 pi/alat)
               b(1) = ( -1.000000 -1.000000  1.000000 )  
               b(2) = (  1.000000  1.000000  1.000000 )  
               b(3) = ( -1.000000  1.000000 -1.000000 )  


     PseudoPot. # 1 for Ag read from file:
     /home/lorenzo/pseudos/Ag/Ag.pbe-n-rrkjus_psl.1.0.0.UPF
     MD5 check sum: d841cbfac2b0861aec33b46768a516bf
     Pseudo is Ultrasoft + core correction, Zval = 11.0
     Generated using "atomic" code by A. Dal Corso v.6.2.2
     Using radial grid of 1237 points,  6 beta functions with: 
                l(1) =   0
                l(2) =   0
                l(3) =   1
                l(4) =   1
                l(5) =   2
                l(6) =   2
     Q(r) pseudized with 0 coefficients 


     atomic species   valence    mass     pseudopotential
        Ag            11.00   107.86820     Ag( 1.00)

     48 Sym. Ops., with inversion, found



   Cartesian axes

     site n.     atom                  positions (alat units)
         1           Ag  tau(   1) = (   0.0000000   0.0000000   0.0000000  )

     number of k points=    20  gaussian smearing, width (Ry)=  0.0100
                       cart. coord. in units 2pi/alat
        k(    1) = (   0.0000000   0.0000000   0.0000000), wk =   0.0058309
        k(    2) = (  -0.1428571   0.1428571  -0.1428571), wk =   0.0466472
        k(    3) = (  -0.2857143   0.2857143  -0.2857143), wk =   0.0466472
        k(    4) = (  -0.4285714   0.4285714  -0.4285714), wk =   0.0466472
        k(    5) = (   0.0000000   0.2857143   0.0000000), wk =   0.0349854
        k(    6) = (  -0.1428571   0.4285714  -0.1428571), wk =   0.1399417
        k(    7) = (  -0.2857143   0.5714286  -0.2857143), wk =   0.1399417
        k(    8) = (   0.5714286  -0.2857143   0.5714286), wk =   0.1399417
        k(    9) = (   0.4285714  -0.1428571   0.4285714), wk =   0.1399417
        k(   10) = (   0.2857143  -0.0000000   0.2857143), wk =   0.0699708
        k(   11) = (   0.0000000   0.5714286   0.0000000), wk =   0.0349854
        k(   12) = (  -0.1428571   0.7142857  -0.1428571), wk =   0.1399417
        k(   13) = (   0.7142857  -0.1428571   0.7142857), wk =   0.1399417
        k(   14) = (   0.5714286   0.0000000   0.5714286), wk =   0.0699708
        k(   15) = (   0.0000000   0.8571429   0.0000000), wk =   0.0349854
        k(   16) = (   0.8571429  -0.0000000   0.8571429), wk =   0.0699708
        k(   17) = (  -0.2857143   0.5714286   0.0000000), wk =   0.1399417
        k(   18) = (   0.5714286  -0.2857143   0.8571429), wk =   0.2798834
        k(   19) = (   0.7142857  -0.1428571   1.0000000), wk =   0.1399417
        k(   20) = (   0.5714286   0.0000000   0.8571429), wk =   0.1399417

     Dense  grid:     9185 G-vectors     FFT dimensions: (  30,  30,  30)

     Estimated max dynamical RAM per process >       9.21 MB

     Estimated total dynamical RAM >      46.06 MB

     Initial potential from superposition of free atoms

     starting charge   10.99960, renormalised to   11.00000
     Starting wfcs are    9 randomized atomic wfcs +    1 random wfcs

     total cpu time spent up to now is        1.0 secs

     Self-consistent Calculation

     iteration #  1     ecut=    70.00 Ry     beta= 0.70
     Davidson diagonalization with overlap
     ethr =  1.00E-02,  avg # of iterations =  4.5

     Threshold (ethr) on eigenvalues was too large:
     Diagonalizing with lowered threshold

     Davidson diagonalization with overlap
     ethr =  2.35E-05,  avg # of iterations =  3.2

     total cpu time spent up to now is        1.6 secs

     total energy              =     -84.27606134 Ry
     Harris-Foulkes estimate   =     -84.27764656 Ry
     estimated scf accuracy    <       0.00287964 Ry

     iteration #  2     ecut=    70.00 Ry     beta= 0.70
     Davidson diagonalization with overlap
     ethr =  2.62E-05,  avg # of iterations =  2.0

     total cpu time spent up to now is        1.8 secs

     total energy              =     -84.27667211 Ry
     Harris-Foulkes estimate   =     -84.27762254 Ry
     estimated scf accuracy    <       0.00174510 Ry

     iteration #  3     ecut=    70.00 Ry     beta= 0.70
     Davidson diagonalization with overlap
     ethr =  1.59E-05,  avg # of iterations =  2.0

     total cpu time spent up to now is        2.0 secs

     total energy              =     -84.27708177 Ry
     Harris-Foulkes estimate   =     -84.27708134 Ry
     estimated scf accuracy    <       0.00002824 Ry

     iteration #  4     ecut=    70.00 Ry     beta= 0.70
     Davidson diagonalization with overlap
     ethr =  2.57E-07,  avg # of iterations =  2.2

     total cpu time spent up to now is        2.2 secs

     total energy              =     -84.27708749 Ry
     Harris-Foulkes estimate   =     -84.27708738 Ry
     estimated scf accuracy    <       0.00000019 Ry

     iteration #  5     ecut=    70.00 Ry     beta= 0.70
     Davidson diagonalization with overlap
     ethr =  1.70E-09,  avg # of iterations =  2.6

     total cpu time spent up to now is        2.5 secs

     total energy              =     -84.27708758 Ry
     Harris-Foulkes estimate   =     -84.27708761 Ry
     estimated scf accuracy    <       0.00000005 Ry

     iteration #  6     ecut=    70.00 Ry     beta= 0.70
     Davidson diagonalization with overlap
     ethr =  4.56E-10,  avg # of iterations =  2.0

     total cpu time spent up to now is        2.7 secs

     End of self-consistent calculation

          k = 0.0000 0.0000 0.0000 (  1139 PWs)   bands (ev):

     5.0698   8.0921   8.0921   8.0921   9.1280   9.1280  29.8018  33.0923
    33.0923  37.3884

          k =-0.1429 0.1429-0.1429 (  1149 PWs)   bands (ev):

     5.6739   7.9910   8.2378   8.2378   9.0939   9.0939  28.2444  30.6167
    33.0193  33.0193

          k =-0.2857 0.2857-0.2857 (  1146 PWs)   bands (ev):

     6.5735   8.2614   8.2614   8.7343   9.3766   9.3766  22.6816  29.9427
    32.3753  32.3753

          k =-0.4286 0.4286-0.4286 (  1149 PWs)   bands (ev):

     6.5126   8.0952   8.0952   9.8515   9.8515  11.5313  17.6684  28.9875
    31.2954  31.2954

          k = 0.0000 0.2857 0.0000 (  1154 PWs)   bands (ev):

     5.8784   7.7803   8.3986   8.3986   8.8533   9.2666  29.8211  30.6439
    30.6439  30.9013

          k =-0.1429 0.4286-0.1429 (  1136 PWs)   bands (ev):

     6.8099   7.6687   8.3247   8.5886   9.4401   9.5177  24.9470  29.1176
    29.6477  31.5865

          k =-0.2857 0.5714-0.2857 (  1133 PWs)   bands (ev):

     6.8506   7.9563   8.4512   8.6015   9.9117  11.7406  19.5095  28.0837
    28.6391  30.0264

          k = 0.5714-0.2857 0.5714 (  1138 PWs)   bands (ev):

     6.8193   7.8779   8.3433   9.0810   9.8281  13.7250  16.8201  26.6190
    29.6976  29.6993

          k = 0.4286-0.1429 0.4286 (  1141 PWs)   bands (ev):

     7.0041   8.0292   8.4454   8.5270   9.2294  11.0799  21.2930  26.2539
    30.7843  32.4180

          k = 0.2857-0.0000 0.2857 (  1141 PWs)   bands (ev):

     6.5330   7.7655   8.3681   8.4933   8.8211   9.5977  26.7493  27.0213
    33.0213  33.3923

          k = 0.0000 0.5714 0.0000 (  1130 PWs)   bands (ev):

     6.9279   7.1304   9.1993   9.1993   9.5875   9.6208  26.7186  26.7186
    27.3383  29.8907

          k =-0.1429 0.7143-0.1429 (  1133 PWs)   bands (ev):

     6.8690   7.1130   8.9870   9.2403   9.9514  12.2257  22.2158  24.3836
    25.7462  29.9166

          k = 0.7143-0.1429 0.7143 (  1139 PWs)   bands (ev):

     6.9962   7.5261   8.5510   9.0459   9.8839  15.9928  17.5921  22.1691
    26.6246  29.7795

          k = 0.5714 0.0000 0.5714 (  1135 PWs)   bands (ev):

     7.3989   7.9284   8.0295   8.8501   9.3750  13.7961  20.6355  21.3108
    29.1491  30.0820

          k = 0.0000 0.8571 0.0000 (  1138 PWs)   bands (ev):

     6.5225   6.6516   9.8552  10.0058  10.0058  13.2833  21.1352  24.0927
    24.0927  29.9615

          k = 0.8571-0.0000 0.8571 (  1136 PWs)   bands (ev):

     6.6181   6.8207   9.5386   9.6848  10.0471  15.5293  19.6588  21.1848
    24.4328  29.9400

          k =-0.2857 0.5714 0.0000 (  1137 PWs)   bands (ev):

     7.3896   7.4288   8.0938   9.1923   9.2569  11.2601  23.7806  23.9810
    27.8699  33.1666

          k = 0.5714-0.2857 0.8571 (  1134 PWs)   bands (ev):

     7.2850   7.6029   8.1948   8.9309   9.7845  14.2762  18.7400  23.9934
    25.5001  32.5992

          k = 0.7143-0.1429 1.0000 (  1142 PWs)   bands (ev):

     6.9370   7.0426   8.7876   9.5348  10.0021  14.9233  21.3108  21.8323
    22.3733  32.6491

          k = 0.5714 0.0000 0.8571 (  1137 PWs)   bands (ev):

     7.1822   7.5513   8.1579   9.1606   9.9958  17.6873  18.3235  20.2698
    23.2945  33.2788

     the Fermi energy is    13.2631 ev

!    total energy              =     -84.27708759 Ry
     Harris-Foulkes estimate   =     -84.27708759 Ry
     estimated scf accuracy    <          3.2E-10 Ry

     The total energy is the sum of the following terms:

     one-electron contribution =      -4.72139261 Ry
     hartree contribution      =      14.65663659 Ry
     xc contribution           =     -22.35105485 Ry
     ewald contribution        =     -71.86118018 Ry
     smearing contrib. (-TS)   =      -0.00009653 Ry

     convergence has been achieved in   6 iterations

     Forces acting on atoms (cartesian axes, Ry/au):

     atom    1 type  1   force =     0.00000000    0.00000000    0.00000000

     Total force =     0.000000     Total SCF correction =     0.000000


     Computing stress (Cartesian axis) and pressure

          total   stress  (Ry/bohr**3)                   (kbar)     P=   49.21
   0.00033450  -0.00000000  -0.00000000         49.21     -0.00     -0.00
  -0.00000000   0.00033450   0.00000000         -0.00     49.21      0.00
  -0.00000000   0.00000000   0.00033450         -0.00      0.00     49.21


     Writing output data file Ag.save/

     init_run     :      0.26s CPU      0.27s WALL (       1 calls)
     electrons    :      1.68s CPU      1.75s WALL (       1 calls)
     forces       :      0.04s CPU      0.04s WALL (       1 calls)
     stress       :      0.15s CPU      0.15s WALL (       1 calls)

     Called by init_run:
     wfcinit      :      0.07s CPU      0.07s WALL (       1 calls)
     potinit      :      0.01s CPU      0.01s WALL (       1 calls)
     hinit0       :      0.17s CPU      0.17s WALL (       1 calls)

     Called by electrons:
     c_bands      :      1.30s CPU      1.35s WALL (       7 calls)
     sum_band     :      0.29s CPU      0.30s WALL (       7 calls)
     v_of_rho     :      0.04s CPU      0.04s WALL (       7 calls)
     newd         :      0.06s CPU      0.06s WALL (       7 calls)
     mix_rho      :      0.00s CPU      0.00s WALL (       7 calls)

     Called by c_bands:
     init_us_2    :      0.05s CPU      0.05s WALL (     340 calls)
     cegterg      :      1.24s CPU      1.29s WALL (     140 calls)

     Called by sum_band:
     sum_band:bec :      0.00s CPU      0.00s WALL (     140 calls)
     addusdens    :      0.06s CPU      0.06s WALL (       7 calls)

     Called by *egterg:
     h_psi        :      1.00s CPU      1.04s WALL (     532 calls)
     s_psi        :      0.03s CPU      0.03s WALL (     532 calls)
     g_psi        :      0.00s CPU      0.00s WALL (     372 calls)
     cdiaghg      :      0.10s CPU      0.11s WALL (     492 calls)

     Called by h_psi:
     h_psi:pot    :      1.00s CPU      1.04s WALL (     532 calls)
     h_psi:calbec :      0.05s CPU      0.05s WALL (     532 calls)
     vloc_psi     :      0.92s CPU      0.95s WALL (     532 calls)
     add_vuspsi   :      0.03s CPU      0.03s WALL (     532 calls)

     General routines
     calbec       :      0.08s CPU      0.08s WALL (     772 calls)
     fft          :      0.02s CPU      0.02s WALL (     104 calls)
     ffts         :      0.00s CPU      0.00s WALL (       7 calls)
     fftw         :      1.02s CPU      1.06s WALL (    8830 calls)

     Parallel routines
     fft_scatt_xy :      0.09s CPU      0.09s WALL (    8941 calls)
     fft_scatt_yz :      0.26s CPU      0.27s WALL (    8941 calls)

     PWSCF        :     2.87s CPU         3.00s WALL


   This run was terminated on:   0:32:15  27Mar2024            

=------------------------------------------------------------------------------=
   JOB DONE.
=------------------------------------------------------------------------------=
