
     Program PWSCF v.6.3MaX starts on 27Mar2024 at  0:28:29 

     This program is part of the open-source Quantum ESPRESSO suite
     for quantum simulation of materials; please cite
         "P. Giannozzi et al., J. Phys.:Condens. Matter 21 395502 (2009);
         "P. Giannozzi et al., J. Phys.:Condens. Matter 29 465901 (2017);
          URL http://www.quantum-espresso.org", 
     in publications or presentations arising from this work. More details at
     http://www.quantum-espresso.org/quote

     Parallel version (MPI), running on     5 processors

     MPI processes distributed on     1 nodes
     R & G space division:  proc/nbgrp/npool/nimage =       5
     Waiting for input...
     Reading input from standard input

     Current dimensions of program PWSCF are:
     Max number of different atomic species (ntypx) = 10
     Max number of k-points (npk) =  40000
     Max angular momentum in pseudopotentials (lmaxx) =  3
               file Ag.pbe-n-kjpaw_psl.1.0.0.UPF: wavefunction(s)  5S 5P renormalized

     Subspace diagonalization in iterative solution of the eigenvalue problem:
     a serial algorithm will be used


     Parallelization info
     --------------------
     sticks:   dense  smooth     PW     G-vecs:    dense   smooth      PW
     Min         106     106     32                 1619     1619     272
     Max         108     108     33                 1620     1620     273
     Sum         535     535    163                 8099     8099    1363



     bravais-lattice index     =            2
     lattice parameter (alat)  =       7.7200  a.u.
     unit-cell volume          =     115.0249 (a.u.)^3
     number of atoms/cell      =            1
     number of atomic types    =            1
     number of electrons       =        11.00
     number of Kohn-Sham states=           10
     kinetic-energy cutoff     =      65.0000  Ry
     charge density cutoff     =     260.0000  Ry
     convergence threshold     =      1.0E-08
     mixing beta               =       0.7000
     number of iterations used =            8  plain     mixing
     Exchange-correlation      = SLA PW PBX PBC ( 1  4  3  4 0 0)

     celldm(1)=   7.720000  celldm(2)=   0.000000  celldm(3)=   0.000000
     celldm(4)=   0.000000  celldm(5)=   0.000000  celldm(6)=   0.000000

     crystal axes: (cart. coord. in units of alat)
               a(1) = (  -0.500000   0.000000   0.500000 )  
               a(2) = (   0.000000   0.500000   0.500000 )  
               a(3) = (  -0.500000   0.500000   0.000000 )  

     reciprocal axes: (cart. coord. in units 2 pi/alat)
               b(1) = ( -1.000000 -1.000000  1.000000 )  
               b(2) = (  1.000000  1.000000  1.000000 )  
               b(3) = ( -1.000000  1.000000 -1.000000 )  


     PseudoPot. # 1 for Ag read from file:
     /home/lorenzo/pseudos/Ag/Ag.pbe-n-kjpaw_psl.1.0.0.UPF
     MD5 check sum: 51099775af2a3182a6a1caffb86952a3
     Pseudo is Projector augmented-wave + core cor, Zval = 11.0
     Generated using "atomic" code by A. Dal Corso v.6.2.2
     Shape of augmentation charge: PSQ
     Using radial grid of 1237 points,  6 beta functions with: 
                l(1) =   0
                l(2) =   0
                l(3) =   1
                l(4) =   1
                l(5) =   2
                l(6) =   2
     Q(r) pseudized with 0 coefficients 


     atomic species   valence    mass     pseudopotential
        Ag            11.00   107.86820     Ag( 1.00)

     48 Sym. Ops., with inversion, found



   Cartesian axes

     site n.     atom                  positions (alat units)
         1           Ag  tau(   1) = (   0.0000000   0.0000000   0.0000000  )

     number of k points=     3  gaussian smearing, width (Ry)=  0.0100
                       cart. coord. in units 2pi/alat
        k(    1) = (   0.0000000   0.0000000   0.0000000), wk =   0.2500000
        k(    2) = (   0.5000000  -0.5000000   0.5000000), wk =   1.0000000
        k(    3) = (   0.0000000  -1.0000000   0.0000000), wk =   0.7500000

     Dense  grid:     8099 G-vectors     FFT dimensions: (  30,  30,  30)

     Estimated max dynamical RAM per process >       7.78 MB

     Estimated total dynamical RAM >      38.91 MB

     Initial potential from superposition of free atoms

     starting charge   10.99960, renormalised to   11.00000
     Starting wfcs are    9 randomized atomic wfcs +    1 random wfcs
     Checking if some PAW data can be deallocated... 

     total cpu time spent up to now is        1.5 secs

     Self-consistent Calculation

     iteration #  1     ecut=    65.00 Ry     beta= 0.70
     Davidson diagonalization with overlap
     ethr =  1.00E-02,  avg # of iterations =  7.0

     Threshold (ethr) on eigenvalues was too large:
     Diagonalizing with lowered threshold

     Davidson diagonalization with overlap
     ethr =  2.11E-05,  avg # of iterations =  4.0

     total cpu time spent up to now is        1.8 secs

     total energy              =    -355.15936320 Ry
     Harris-Foulkes estimate   =    -355.15926035 Ry
     estimated scf accuracy    <       0.00214178 Ry

     iteration #  2     ecut=    65.00 Ry     beta= 0.70
     Davidson diagonalization with overlap
     ethr =  1.95E-05,  avg # of iterations =  1.7

     total cpu time spent up to now is        2.0 secs

     total energy              =    -355.15956234 Ry
     Harris-Foulkes estimate   =    -355.15966991 Ry
     estimated scf accuracy    <       0.00028062 Ry

     iteration #  3     ecut=    65.00 Ry     beta= 0.70
     Davidson diagonalization with overlap
     ethr =  2.55E-06,  avg # of iterations =  2.0

     total cpu time spent up to now is        2.1 secs

     total energy              =    -355.15964133 Ry
     Harris-Foulkes estimate   =    -355.15965614 Ry
     estimated scf accuracy    <       0.00006797 Ry

     iteration #  4     ecut=    65.00 Ry     beta= 0.70
     Davidson diagonalization with overlap
     ethr =  6.18E-07,  avg # of iterations =  1.7

     total cpu time spent up to now is        2.3 secs

     total energy              =    -355.15964950 Ry
     Harris-Foulkes estimate   =    -355.15964952 Ry
     estimated scf accuracy    <       0.00000012 Ry

     iteration #  5     ecut=    65.00 Ry     beta= 0.70
     Davidson diagonalization with overlap
     ethr =  1.10E-09,  avg # of iterations =  5.7

     total cpu time spent up to now is        2.5 secs

     total energy              =    -355.15964999 Ry
     Harris-Foulkes estimate   =    -355.15965000 Ry
     estimated scf accuracy    <       0.00000009 Ry

     iteration #  6     ecut=    65.00 Ry     beta= 0.70
     Davidson diagonalization with overlap
     ethr =  8.47E-10,  avg # of iterations =  1.0

     total cpu time spent up to now is        2.7 secs

     total energy              =    -355.15964996 Ry
     Harris-Foulkes estimate   =    -355.15964999 Ry
     estimated scf accuracy    <       0.00000006 Ry

     iteration #  7     ecut=    65.00 Ry     beta= 0.70
     Davidson diagonalization with overlap
     ethr =  5.11E-10,  avg # of iterations =  2.0

     total cpu time spent up to now is        2.9 secs

     End of self-consistent calculation

          k = 0.0000 0.0000 0.0000 (   965 PWs)   bands (ev):

     5.0737   8.3567   8.3567   8.3567   9.4435   9.4435  29.7677  33.1042
    33.1042  33.1042

          k = 0.5000-0.5000 0.5000 (  1008 PWs)   bands (ev):

     6.6613   8.3413   8.3413  10.2493  10.2493  12.4468  16.6327  28.7902
    31.1551  31.1551

          k = 0.0000-1.0000 0.0000 (  1034 PWs)   bands (ev):

     6.6441   6.8041  10.2286  10.4549  10.4549  14.4922  19.7369  23.7485
    23.7485  30.0926

     the Fermi energy is    12.5117 ev

!    total energy              =    -355.15964997 Ry
     Harris-Foulkes estimate   =    -355.15964997 Ry
     estimated scf accuracy    <          4.7E-10 Ry

     total all-electron energy =    -10632.125704 Ry

     The total energy is the sum of the following terms:

     one-electron contribution =       1.58856908 Ry
     hartree contribution      =      14.89253496 Ry
     xc contribution           =     -22.42123090 Ry
     ewald contribution        =     -71.86118018 Ry
     one-center paw contrib.   =    -277.35609592 Ry
     smearing contrib. (-TS)   =      -0.00224702 Ry

     convergence has been achieved in   7 iterations

     Forces acting on atoms (cartesian axes, Ry/au):

     atom    1 type  1   force =     0.00000000    0.00000000    0.00000000

     Total force =     0.000000     Total SCF correction =     0.000000


     Computing stress (Cartesian axis) and pressure

          total   stress  (Ry/bohr**3)                   (kbar)     P=  283.54
   0.00192750  -0.00000000   0.00000000        283.54     -0.00      0.00
  -0.00000000   0.00192750   0.00000000         -0.00    283.54      0.00
   0.00000000   0.00000000   0.00192750          0.00      0.00    283.54


     Writing output data file Ag.save/

     init_run     :      0.35s CPU      0.38s WALL (       1 calls)
     electrons    :      1.23s CPU      1.35s WALL (       1 calls)
     forces       :      0.03s CPU      0.03s WALL (       1 calls)
     stress       :      0.09s CPU      0.09s WALL (       1 calls)

     Called by init_run:
     wfcinit      :      0.02s CPU      0.02s WALL (       1 calls)
     potinit      :      0.13s CPU      0.15s WALL (       1 calls)
     hinit0       :      0.18s CPU      0.18s WALL (       1 calls)

     Called by electrons:
     c_bands      :      0.26s CPU      0.27s WALL (       8 calls)
     sum_band     :      0.12s CPU      0.13s WALL (       8 calls)
     v_of_rho     :      0.04s CPU      0.04s WALL (       8 calls)
     newd         :      0.07s CPU      0.08s WALL (       8 calls)
     PAW_pot      :      0.86s CPU      0.97s WALL (       8 calls)
     mix_rho      :      0.00s CPU      0.00s WALL (       8 calls)

     Called by c_bands:
     init_us_2    :      0.01s CPU      0.01s WALL (      57 calls)
     cegterg      :      0.25s CPU      0.26s WALL (      24 calls)

     Called by sum_band:
     sum_band:bec :      0.00s CPU      0.00s WALL (      24 calls)
     addusdens    :      0.06s CPU      0.06s WALL (       8 calls)

     Called by *egterg:
     h_psi        :      0.21s CPU      0.21s WALL (     102 calls)
     s_psi        :      0.00s CPU      0.01s WALL (     102 calls)
     g_psi        :      0.00s CPU      0.00s WALL (      75 calls)
     cdiaghg      :      0.02s CPU      0.02s WALL (      96 calls)

     Called by h_psi:
     h_psi:pot    :      0.20s CPU      0.21s WALL (     102 calls)
     h_psi:calbec :      0.01s CPU      0.01s WALL (     102 calls)
     vloc_psi     :      0.19s CPU      0.19s WALL (     102 calls)
     add_vuspsi   :      0.01s CPU      0.01s WALL (     102 calls)

     General routines
     calbec       :      0.02s CPU      0.02s WALL (     141 calls)
     fft          :      0.03s CPU      0.03s WALL (     115 calls)
     ffts         :      0.00s CPU      0.00s WALL (       8 calls)
     fftw         :      0.20s CPU      0.21s WALL (    1506 calls)

     Parallel routines
     fft_scatt_xy :      0.02s CPU      0.02s WALL (    1629 calls)
     fft_scatt_yz :      0.09s CPU      0.09s WALL (    1629 calls)

     PWSCF        :     2.84s CPU         3.02s WALL


   This run was terminated on:   0:28:32  27Mar2024            

=------------------------------------------------------------------------------=
   JOB DONE.
=------------------------------------------------------------------------------=
