
     Program PWSCF v.6.3MaX starts on 27Mar2024 at  0:41:36 

     This program is part of the open-source Quantum ESPRESSO suite
     for quantum simulation of materials; please cite
         "P. Giannozzi et al., J. Phys.:Condens. Matter 21 395502 (2009);
         "P. Giannozzi et al., J. Phys.:Condens. Matter 29 465901 (2017);
          URL http://www.quantum-espresso.org", 
     in publications or presentations arising from this work. More details at
     http://www.quantum-espresso.org/quote

     Parallel version (MPI), running on     5 processors

     MPI processes distributed on     1 nodes
     R & G space division:  proc/nbgrp/npool/nimage =       5
     Waiting for input...
     Reading input from standard input

     Current dimensions of program PWSCF are:
     Max number of different atomic species (ntypx) = 10
     Max number of k-points (npk) =  40000
     Max angular momentum in pseudopotentials (lmaxx) =  3
               file Ag.pbesol-n-kjpaw_psl.1.0.0.UPF: wavefunction(s)  5S 5P renormalized

     Subspace diagonalization in iterative solution of the eigenvalue problem:
     a serial algorithm will be used


     Parallelization info
     --------------------
     sticks:   dense  smooth     PW     G-vecs:    dense   smooth      PW
     Min         137     137     42                 2410     2410     416
     Max         139     139     43                 2411     2411     418
     Sum         691     691    211                12051    12051    2085



     bravais-lattice index     =            2
     lattice parameter (alat)  =       7.7200  a.u.
     unit-cell volume          =     115.0249 (a.u.)^3
     number of atoms/cell      =            1
     number of atomic types    =            1
     number of electrons       =        11.00
     number of Kohn-Sham states=           10
     kinetic-energy cutoff     =      85.0000  Ry
     charge density cutoff     =     340.0000  Ry
     convergence threshold     =      1.0E-08
     mixing beta               =       0.7000
     number of iterations used =            8  plain     mixing
     Exchange-correlation      = SLA PW PSX PSC ( 1  4 10  8 0 0)

     celldm(1)=   7.720000  celldm(2)=   0.000000  celldm(3)=   0.000000
     celldm(4)=   0.000000  celldm(5)=   0.000000  celldm(6)=   0.000000

     crystal axes: (cart. coord. in units of alat)
               a(1) = (  -0.500000   0.000000   0.500000 )  
               a(2) = (   0.000000   0.500000   0.500000 )  
               a(3) = (  -0.500000   0.500000   0.000000 )  

     reciprocal axes: (cart. coord. in units 2 pi/alat)
               b(1) = ( -1.000000 -1.000000  1.000000 )  
               b(2) = (  1.000000  1.000000  1.000000 )  
               b(3) = ( -1.000000  1.000000 -1.000000 )  


     PseudoPot. # 1 for Ag read from file:
     /home/lorenzo/pseudos/Ag/Ag.pbesol-n-kjpaw_psl.1.0.0.UPF
     MD5 check sum: 3b245e14fa22881b2ac493bfd23f605f
     Pseudo is Projector augmented-wave + core cor, Zval = 11.0
     Generated using "atomic" code by A. Dal Corso v.6.2.2
     Shape of augmentation charge: PSQ
     Using radial grid of 1237 points,  6 beta functions with: 
                l(1) =   0
                l(2) =   0
                l(3) =   1
                l(4) =   1
                l(5) =   2
                l(6) =   2
     Q(r) pseudized with 0 coefficients 


     atomic species   valence    mass     pseudopotential
        Ag            11.00   107.86820     Ag( 1.00)

     48 Sym. Ops., with inversion, found



   Cartesian axes

     site n.     atom                  positions (alat units)
         1           Ag  tau(   1) = (   0.0000000   0.0000000   0.0000000  )

     number of k points=    29  gaussian smearing, width (Ry)=  0.0100
                       cart. coord. in units 2pi/alat
        k(    1) = (   0.0000000   0.0000000   0.0000000), wk =   0.0039062
        k(    2) = (  -0.1250000   0.1250000  -0.1250000), wk =   0.0312500
        k(    3) = (  -0.2500000   0.2500000  -0.2500000), wk =   0.0312500
        k(    4) = (  -0.3750000   0.3750000  -0.3750000), wk =   0.0312500
        k(    5) = (   0.5000000  -0.5000000   0.5000000), wk =   0.0156250
        k(    6) = (   0.0000000   0.2500000   0.0000000), wk =   0.0234375
        k(    7) = (  -0.1250000   0.3750000  -0.1250000), wk =   0.0937500
        k(    8) = (  -0.2500000   0.5000000  -0.2500000), wk =   0.0937500
        k(    9) = (   0.6250000  -0.3750000   0.6250000), wk =   0.0937500
        k(   10) = (   0.5000000  -0.2500000   0.5000000), wk =   0.0937500
        k(   11) = (   0.3750000  -0.1250000   0.3750000), wk =   0.0937500
        k(   12) = (   0.2500000   0.0000000   0.2500000), wk =   0.0468750
        k(   13) = (   0.0000000   0.5000000   0.0000000), wk =   0.0234375
        k(   14) = (  -0.1250000   0.6250000  -0.1250000), wk =   0.0937500
        k(   15) = (   0.7500000  -0.2500000   0.7500000), wk =   0.0937500
        k(   16) = (   0.6250000  -0.1250000   0.6250000), wk =   0.0937500
        k(   17) = (   0.5000000   0.0000000   0.5000000), wk =   0.0468750
        k(   18) = (   0.0000000   0.7500000   0.0000000), wk =   0.0234375
        k(   19) = (   0.8750000  -0.1250000   0.8750000), wk =   0.0937500
        k(   20) = (   0.7500000   0.0000000   0.7500000), wk =   0.0468750
        k(   21) = (   0.0000000  -1.0000000   0.0000000), wk =   0.0117188
        k(   22) = (  -0.2500000   0.5000000   0.0000000), wk =   0.0937500
        k(   23) = (   0.6250000  -0.3750000   0.8750000), wk =   0.1875000
        k(   24) = (   0.5000000  -0.2500000   0.7500000), wk =   0.0937500
        k(   25) = (   0.7500000  -0.2500000   1.0000000), wk =   0.0937500
        k(   26) = (   0.6250000  -0.1250000   0.8750000), wk =   0.1875000
        k(   27) = (   0.5000000   0.0000000   0.7500000), wk =   0.0937500
        k(   28) = (  -0.2500000  -1.0000000   0.0000000), wk =   0.0468750
        k(   29) = (  -0.5000000  -1.0000000   0.0000000), wk =   0.0234375

     Dense  grid:    12051 G-vectors     FFT dimensions: (  36,  36,  36)

     Estimated max dynamical RAM per process >      12.40 MB

     Estimated total dynamical RAM >      62.01 MB

     Initial potential from superposition of free atoms

     starting charge   10.99964, renormalised to   11.00000
     Starting wfcs are    9 randomized atomic wfcs +    1 random wfcs
     Checking if some PAW data can be deallocated... 

     total cpu time spent up to now is        1.3 secs

     Self-consistent Calculation

     iteration #  1     ecut=    85.00 Ry     beta= 0.70
     Davidson diagonalization with overlap
     ethr =  1.00E-02,  avg # of iterations =  4.8

     Threshold (ethr) on eigenvalues was too large:
     Diagonalizing with lowered threshold

     Davidson diagonalization with overlap
     ethr =  4.37E-05,  avg # of iterations =  2.2

     total cpu time spent up to now is        2.5 secs

     total energy              =    -350.23617563 Ry
     Harris-Foulkes estimate   =    -350.23961580 Ry
     estimated scf accuracy    <       0.00520489 Ry

     iteration #  2     ecut=    85.00 Ry     beta= 0.70
     Davidson diagonalization with overlap
     ethr =  4.73E-05,  avg # of iterations =  2.0

     total cpu time spent up to now is        3.2 secs

     total energy              =    -350.23766194 Ry
     Harris-Foulkes estimate   =    -350.23957486 Ry
     estimated scf accuracy    <       0.00398837 Ry

     iteration #  3     ecut=    85.00 Ry     beta= 0.70
     Davidson diagonalization with overlap
     ethr =  3.63E-05,  avg # of iterations =  1.6

     total cpu time spent up to now is        3.7 secs

     total energy              =    -350.23842347 Ry
     Harris-Foulkes estimate   =    -350.23840687 Ry
     estimated scf accuracy    <       0.00001458 Ry

     iteration #  4     ecut=    85.00 Ry     beta= 0.70
     Davidson diagonalization with overlap
     ethr =  1.33E-07,  avg # of iterations =  3.2

     total cpu time spent up to now is        4.4 secs

     total energy              =    -350.23843177 Ry
     Harris-Foulkes estimate   =    -350.23843159 Ry
     estimated scf accuracy    <       0.00000050 Ry

     iteration #  5     ecut=    85.00 Ry     beta= 0.70
     Davidson diagonalization with overlap
     ethr =  4.55E-09,  avg # of iterations =  1.1

     total cpu time spent up to now is        5.0 secs

     End of self-consistent calculation

          k = 0.0000 0.0000 0.0000 (  1471 PWs)   bands (ev):

     4.8053   7.9220   7.9220   7.9220   8.9752   8.9752  29.5437  32.8294
    32.8294  32.8294

          k =-0.1250 0.1250-0.1250 (  1501 PWs)   bands (ev):

     5.2769   7.8309   8.0422   8.0422   8.9407   8.9407  28.5829  30.4438
    32.7844  32.7844

          k =-0.2500 0.2500-0.2500 (  1525 PWs)   bands (ev):

     6.2250   8.1135   8.1265   8.1265   9.1015   9.1015  23.8381  29.9524
    32.3603  32.3603

          k =-0.3750 0.3750-0.3750 (  1510 PWs)   bands (ev):

     6.3590   7.9833   7.9833   9.5498   9.5498  10.1383  19.1296  29.0150
    31.3753  31.3753

          k = 0.5000-0.5000 0.5000 (  1502 PWs)   bands (ev):

     6.2827   7.9008   7.9008   9.7787   9.7787  12.1892  16.2551  28.5891
    30.8290  30.8290

          k = 0.0000 0.2500 0.0000 (  1503 PWs)   bands (ev):

     5.4359   7.6757   8.1594   8.1594   8.7468   9.0836  29.5654  30.8642
    30.8642  30.9682

          k =-0.1250 0.3750-0.1250 (  1515 PWs)   bands (ev):

     6.3056   7.5169   8.2148   8.3524   8.9619   9.2559  25.8038  29.5096
    29.6814  32.1508

          k =-0.2500 0.5000-0.2500 (  1497 PWs)   bands (ev):

     6.6419   7.9147   8.2016   8.2791   9.6302  10.4256  20.9061  28.7231
    28.7994  30.5013

          k = 0.6250-0.3750 0.6250 (  1518 PWs)   bands (ev):

     6.5454   7.7474   8.1414   8.9374   9.7948  12.9283  16.8628  27.4546
    29.0704  29.4884

          k = 0.5000-0.2500 0.5000 (  1517 PWs)   bands (ev):

     6.6034   7.8015   8.1365   8.9415   9.4901  12.1555  18.0438  26.6952
    29.7054  30.6434

          k = 0.3750-0.1250 0.3750 (  1524 PWs)   bands (ev):

     6.7149   7.8568   8.1975   8.2870   8.9172  10.1653  22.5318  26.7727
    31.1086  33.4199

          k = 0.2500 0.0000 0.2500 (  1512 PWs)   bands (ev):

     5.9820   7.6425   8.1961   8.2367   8.7155   9.2499  27.3827  27.5390
    32.3775  33.8408

          k = 0.0000 0.5000 0.0000 (  1523 PWs)   bands (ev):

     6.6454   7.1177   8.8061   8.8061   8.8790   9.3518  27.3837  27.3837
    28.4710  29.6320

          k =-0.1250 0.6250-0.1250 (  1519 PWs)   bands (ev):

     6.7817   7.0431   8.5929   8.9231   9.6672  10.7433  23.2310  26.0792
    26.2389  29.7593

          k = 0.7500-0.2500 0.7500 (  1527 PWs)   bands (ev):

     6.7715   7.3443   8.3884   8.7716   9.8366  13.6544  18.7757  23.8969
    26.3774  29.5159

          k = 0.6250-0.1250 0.6250 (  1527 PWs)   bands (ev):

     6.9992   7.5705   8.1946   8.6476   9.5171  14.8277  17.6482  22.4517
    27.9073  29.5867

          k = 0.5000 0.0000 0.5000 (  1522 PWs)   bands (ev):

     7.3327   7.5757   7.9555   8.5894   8.9847  12.1221  21.9346  22.0472
    30.2416  30.4966

          k = 0.0000 0.7500 0.0000 (  1524 PWs)   bands (ev):

     6.4918   6.6034   9.5973   9.5973   9.6300  11.5400  23.0613  24.5572
    24.5572  29.7110

          k = 0.8750-0.1250 0.8750 (  1534 PWs)   bands (ev):

     6.4599   6.6332   9.3708   9.4797   9.8982  14.0272  20.6364  21.6796
    24.2666  29.7091

          k = 0.7500 0.0000 0.7500 (  1528 PWs)   bands (ev):

     6.6963   7.1166   8.6319   9.1977   9.7031  16.9290  17.9220  19.7963
    25.5246  29.6049

          k = 0.0000-1.0000 0.0000 (  1524 PWs)   bands (ev):

     6.2523   6.4014   9.7484   9.9877   9.9877  14.2119  19.3784  23.4488
    23.4488  29.7460

          k =-0.2500 0.5000 0.0000 (  1525 PWs)   bands (ev):

     7.0376   7.2796   8.0000   8.8034   8.9904  10.2491  24.6084  24.9003
    29.1119  32.5037

          k = 0.6250-0.3750 0.8750 (  1525 PWs)   bands (ev):

     7.0135   7.6084   7.9313   8.7087   9.4856  12.3869  20.0257  24.4907
    26.8766  32.1493

          k = 0.5000-0.2500 0.7500 (  1530 PWs)   bands (ev):

     6.9574   7.4630   8.3396   8.5338   9.7026  14.9243  16.6038  25.1260
    25.3423  31.6129

          k = 0.7500-0.2500 1.0000 (  1527 PWs)   bands (ev):

     6.8421   6.8776   8.5170   9.4447   9.5899  12.8645  22.4708  22.6229
    23.6064  31.9999

          k = 0.6250-0.1250 0.8750 (  1522 PWs)   bands (ev):

     6.9278   7.2230   8.1800   9.0734   9.8195  15.9885  18.4962  21.4597
    23.2635  32.3178

          k = 0.5000 0.0000 0.7500 (  1529 PWs)   bands (ev):

     7.2346   7.5830   7.6522   8.9285   9.5871  15.0877  19.5799  20.6120
    24.7905  32.8087

          k =-0.2500-1.0000 0.0000 (  1532 PWs)   bands (ev):

     6.5765   6.7144   9.0135   9.4242   9.9882  15.7160  19.4683  21.6740
    21.9835  31.8187

          k =-0.5000-1.0000 0.0000 (  1540 PWs)   bands (ev):

     7.0140   7.6326   7.6326   8.9817   9.9887  18.6024  18.6024  19.6803
    20.8502  36.0147

     the Fermi energy is    12.4884 ev

!    total energy              =    -350.23843179 Ry
     Harris-Foulkes estimate   =    -350.23843179 Ry
     estimated scf accuracy    <          5.9E-09 Ry

     total all-electron energy =    -10627.248841 Ry

     The total energy is the sum of the following terms:

     one-electron contribution =       1.60768794 Ry
     hartree contribution      =      14.57476987 Ry
     xc contribution           =     -22.14465417 Ry
     ewald contribution        =     -71.86118018 Ry
     one-center paw contrib.   =    -272.41475095 Ry
     smearing contrib. (-TS)   =      -0.00030431 Ry

     convergence has been achieved in   5 iterations

     Forces acting on atoms (cartesian axes, Ry/au):

     atom    1 type  1   force =     0.00000000    0.00000000    0.00000000

     Total force =     0.000000     Total SCF correction =     0.000000


     Computing stress (Cartesian axis) and pressure

          total   stress  (Ry/bohr**3)                   (kbar)     P=  -17.16
  -0.00011667  -0.00000000  -0.00000000        -17.16     -0.00     -0.00
  -0.00000000  -0.00011667   0.00000000         -0.00    -17.16      0.00
  -0.00000000   0.00000000  -0.00011667         -0.00      0.00    -17.16


     Writing output data file Ag.save/

     init_run     :      0.48s CPU      0.51s WALL (       1 calls)
     electrons    :      3.48s CPU      3.67s WALL (       1 calls)
     forces       :      0.06s CPU      0.06s WALL (       1 calls)
     stress       :      0.21s CPU      0.21s WALL (       1 calls)

     Called by init_run:
     wfcinit      :      0.14s CPU      0.15s WALL (       1 calls)
     potinit      :      0.11s CPU      0.13s WALL (       1 calls)
     hinit0       :      0.19s CPU      0.19s WALL (       1 calls)

     Called by electrons:
     c_bands      :      2.37s CPU      2.51s WALL (       6 calls)
     sum_band     :      0.52s CPU      0.55s WALL (       6 calls)
     v_of_rho     :      0.06s CPU      0.06s WALL (       6 calls)
     newd         :      0.07s CPU      0.07s WALL (       6 calls)
     PAW_pot      :      0.59s CPU      0.61s WALL (       6 calls)
     mix_rho      :      0.00s CPU      0.00s WALL (       6 calls)

     Called by c_bands:
     init_us_2    :      0.07s CPU      0.08s WALL (     435 calls)
     cegterg      :      2.27s CPU      2.41s WALL (     174 calls)

     Called by sum_band:
     sum_band:bec :      0.00s CPU      0.00s WALL (     174 calls)
     addusdens    :      0.07s CPU      0.08s WALL (       6 calls)

     Called by *egterg:
     h_psi        :      1.94s CPU      2.07s WALL (     638 calls)
     s_psi        :      0.05s CPU      0.05s WALL (     638 calls)
     g_psi        :      0.00s CPU      0.00s WALL (     435 calls)
     cdiaghg      :      0.13s CPU      0.14s WALL (     580 calls)

     Called by h_psi:
     h_psi:pot    :      1.93s CPU      2.06s WALL (     638 calls)
     h_psi:calbec :      0.09s CPU      0.09s WALL (     638 calls)
     vloc_psi     :      1.79s CPU      1.90s WALL (     638 calls)
     add_vuspsi   :      0.05s CPU      0.06s WALL (     638 calls)

     General routines
     calbec       :      0.14s CPU      0.15s WALL (     957 calls)
     fft          :      0.03s CPU      0.03s WALL (      93 calls)
     ffts         :      0.00s CPU      0.00s WALL (       6 calls)
     fftw         :      2.00s CPU      2.14s WALL (   10806 calls)

     Parallel routines
     fft_scatt_xy :      0.16s CPU      0.17s WALL (   10905 calls)
     fft_scatt_yz :      0.51s CPU      0.55s WALL (   10905 calls)

     PWSCF        :     5.07s CPU         5.34s WALL


   This run was terminated on:   0:41:41  27Mar2024            

=------------------------------------------------------------------------------=
   JOB DONE.
=------------------------------------------------------------------------------=
