
     Program PWSCF v.6.3MaX starts on 27Mar2024 at  0: 5:33 

     This program is part of the open-source Quantum ESPRESSO suite
     for quantum simulation of materials; please cite
         "P. Giannozzi et al., J. Phys.:Condens. Matter 21 395502 (2009);
         "P. Giannozzi et al., J. Phys.:Condens. Matter 29 465901 (2017);
          URL http://www.quantum-espresso.org", 
     in publications or presentations arising from this work. More details at
     http://www.quantum-espresso.org/quote

     Parallel version (MPI), running on     5 processors

     MPI processes distributed on     1 nodes
     R & G space division:  proc/nbgrp/npool/nimage =       5
     Waiting for input...
     Reading input from standard input

     Current dimensions of program PWSCF are:
     Max number of different atomic species (ntypx) = 10
     Max number of k-points (npk) =  40000
     Max angular momentum in pseudopotentials (lmaxx) =  3

     Subspace diagonalization in iterative solution of the eigenvalue problem:
     a serial algorithm will be used


     Parallelization info
     --------------------
     sticks:   dense  smooth     PW     G-vecs:    dense   smooth      PW
     Min          17      17      7                  106      106      27
     Max          17      17      8                  107      107      28
     Sum          85      85     37                  531      531     137



     bravais-lattice index     =            2
     lattice parameter (alat)  =       7.7200  a.u.
     unit-cell volume          =     115.0249 (a.u.)^3
     number of atoms/cell      =            1
     number of atomic types    =            1
     number of electrons       =        11.00
     number of Kohn-Sham states=           10
     kinetic-energy cutoff     =      10.0000  Ry
     charge density cutoff     =      40.0000  Ry
     convergence threshold     =      1.0E-08
     mixing beta               =       0.7000
     number of iterations used =            8  plain     mixing
     Exchange-correlation      = PBESOL ( 1  4 10  8 0 0)

     celldm(1)=   7.720000  celldm(2)=   0.000000  celldm(3)=   0.000000
     celldm(4)=   0.000000  celldm(5)=   0.000000  celldm(6)=   0.000000

     crystal axes: (cart. coord. in units of alat)
               a(1) = (  -0.500000   0.000000   0.500000 )  
               a(2) = (   0.000000   0.500000   0.500000 )  
               a(3) = (  -0.500000   0.500000   0.000000 )  

     reciprocal axes: (cart. coord. in units 2 pi/alat)
               b(1) = ( -1.000000 -1.000000  1.000000 )  
               b(2) = (  1.000000  1.000000  1.000000 )  
               b(3) = ( -1.000000  1.000000 -1.000000 )  


     PseudoPot. # 1 for Ag read from file:
     /home/lorenzo/pseudos/Ag/Ag.pbesol-n-rrkjus_psl.1.0.0.UPF
     MD5 check sum: 3b43e8aa747a56f565f44d11355b8b45
     Pseudo is Ultrasoft + core correction, Zval = 11.0
     Generated using "atomic" code by A. Dal Corso v.6.2.2
     Using radial grid of 1237 points,  6 beta functions with: 
                l(1) =   0
                l(2) =   0
                l(3) =   1
                l(4) =   1
                l(5) =   2
                l(6) =   2
     Q(r) pseudized with 0 coefficients 


     atomic species   valence    mass     pseudopotential
        Ag            11.00   107.86820     Ag( 1.00)

     48 Sym. Ops., with inversion, found



   Cartesian axes

     site n.     atom                  positions (alat units)
         1           Ag  tau(   1) = (   0.0000000   0.0000000   0.0000000  )

     number of k points=    20  gaussian smearing, width (Ry)=  0.0100
                       cart. coord. in units 2pi/alat
        k(    1) = (   0.0000000   0.0000000   0.0000000), wk =   0.0058309
        k(    2) = (  -0.1428571   0.1428571  -0.1428571), wk =   0.0466472
        k(    3) = (  -0.2857143   0.2857143  -0.2857143), wk =   0.0466472
        k(    4) = (  -0.4285714   0.4285714  -0.4285714), wk =   0.0466472
        k(    5) = (   0.0000000   0.2857143   0.0000000), wk =   0.0349854
        k(    6) = (  -0.1428571   0.4285714  -0.1428571), wk =   0.1399417
        k(    7) = (  -0.2857143   0.5714286  -0.2857143), wk =   0.1399417
        k(    8) = (   0.5714286  -0.2857143   0.5714286), wk =   0.1399417
        k(    9) = (   0.4285714  -0.1428571   0.4285714), wk =   0.1399417
        k(   10) = (   0.2857143  -0.0000000   0.2857143), wk =   0.0699708
        k(   11) = (   0.0000000   0.5714286   0.0000000), wk =   0.0349854
        k(   12) = (  -0.1428571   0.7142857  -0.1428571), wk =   0.1399417
        k(   13) = (   0.7142857  -0.1428571   0.7142857), wk =   0.1399417
        k(   14) = (   0.5714286   0.0000000   0.5714286), wk =   0.0699708
        k(   15) = (   0.0000000   0.8571429   0.0000000), wk =   0.0349854
        k(   16) = (   0.8571429  -0.0000000   0.8571429), wk =   0.0699708
        k(   17) = (  -0.2857143   0.5714286   0.0000000), wk =   0.1399417
        k(   18) = (   0.5714286  -0.2857143   0.8571429), wk =   0.2798834
        k(   19) = (   0.7142857  -0.1428571   1.0000000), wk =   0.1399417
        k(   20) = (   0.5714286   0.0000000   0.8571429), wk =   0.1399417

     Dense  grid:      531 G-vectors     FFT dimensions: (  12,  12,  12)

     Estimated max dynamical RAM per process >       1.07 MB

     Estimated total dynamical RAM >       5.35 MB

     Initial potential from superposition of free atoms
     Check: negative starting charge=   -0.000249

     starting charge   10.99964, renormalised to   11.00000

     negative rho (up, down):  2.491E-04 0.000E+00
     Starting wfcs are    9 randomized atomic wfcs +    1 random wfcs

     total cpu time spent up to now is        0.8 secs

     Self-consistent Calculation

     iteration #  1     ecut=    10.00 Ry     beta= 0.70
     Davidson diagonalization with overlap
     ethr =  1.00E-02,  avg # of iterations =  4.3

     total cpu time spent up to now is        0.9 secs

     total energy              =     -69.15315177 Ry
     Harris-Foulkes estimate   =     -77.31235004 Ry
     estimated scf accuracy    <      10.44230003 Ry

     iteration #  2     ecut=    10.00 Ry     beta= 0.70
     Davidson diagonalization with overlap
     ethr =  1.00E-02,  avg # of iterations =  3.0

     total cpu time spent up to now is        1.0 secs

     total energy              =     -71.56456730 Ry
     Harris-Foulkes estimate   =     -71.69769270 Ry
     estimated scf accuracy    <       0.47601163 Ry

     iteration #  3     ecut=    10.00 Ry     beta= 0.70
     Davidson diagonalization with overlap
     ethr =  4.33E-03,  avg # of iterations =  1.0

     total cpu time spent up to now is        1.0 secs

     total energy              =     -71.58521815 Ry
     Harris-Foulkes estimate   =     -71.58669072 Ry
     estimated scf accuracy    <       0.03349513 Ry

     iteration #  4     ecut=    10.00 Ry     beta= 0.70
     Davidson diagonalization with overlap
     ethr =  3.05E-04,  avg # of iterations =  1.4

     total cpu time spent up to now is        1.1 secs

     total energy              =     -71.58599943 Ry
     Harris-Foulkes estimate   =     -71.58602754 Ry
     estimated scf accuracy    <       0.00004926 Ry

     iteration #  5     ecut=    10.00 Ry     beta= 0.70
     Davidson diagonalization with overlap
     ethr =  4.48E-07,  avg # of iterations =  3.6

     total cpu time spent up to now is        1.1 secs

     total energy              =     -71.58649992 Ry
     Harris-Foulkes estimate   =     -71.58650831 Ry
     estimated scf accuracy    <       0.00001339 Ry

     iteration #  6     ecut=    10.00 Ry     beta= 0.70
     Davidson diagonalization with overlap
     ethr =  1.22E-07,  avg # of iterations =  1.3

     total cpu time spent up to now is        1.2 secs

     total energy              =     -71.58650044 Ry
     Harris-Foulkes estimate   =     -71.58650110 Ry
     estimated scf accuracy    <       0.00000109 Ry

     iteration #  7     ecut=    10.00 Ry     beta= 0.70
     Davidson diagonalization with overlap
     ethr =  9.90E-09,  avg # of iterations =  3.0

     total cpu time spent up to now is        1.2 secs

     total energy              =     -71.58650081 Ry
     Harris-Foulkes estimate   =     -71.58650095 Ry
     estimated scf accuracy    <       0.00000022 Ry

     iteration #  8     ecut=    10.00 Ry     beta= 0.70
     Davidson diagonalization with overlap
     ethr =  1.98E-09,  avg # of iterations =  2.7

     total cpu time spent up to now is        1.3 secs

     total energy              =     -71.58650084 Ry
     Harris-Foulkes estimate   =     -71.58650087 Ry
     estimated scf accuracy    <       0.00000006 Ry

     iteration #  9     ecut=    10.00 Ry     beta= 0.70
     Davidson diagonalization with overlap
     ethr =  5.11E-10,  avg # of iterations =  2.1

     total cpu time spent up to now is        1.3 secs

     End of self-consistent calculation

          k = 0.0000 0.0000 0.0000 (    59 PWs)   bands (ev):

     2.3790  10.6861  10.6861  10.6861  14.4324  14.4324  28.1735  28.1735
    28.1735  32.8871

          k =-0.1429 0.1429-0.1429 (    62 PWs)   bands (ev):

     2.9529  10.4767  10.8789  10.8789  11.8940  11.8940  25.6316  27.9227
    27.9227  33.7929

          k =-0.2857 0.2857-0.2857 (    61 PWs)   bands (ev):

     4.5298  10.7325  10.7325  11.3439  13.0970  13.0970  21.5391  27.1894
    27.1894  33.6770

          k =-0.4286 0.4286-0.4286 (    61 PWs)   bands (ev):

     6.2348  10.9591  10.9591  11.3108  14.6758  14.6758  17.0346  25.8738
    25.8738  32.2704

          k = 0.0000 0.2857 0.0000 (    60 PWs)   bands (ev):

     3.1586  10.3848  11.2268  11.2268  11.9863  14.8498  26.2301  27.1440
    27.1440  34.1678

          k =-0.1429 0.4286-0.1429 (    62 PWs)   bands (ev):

     4.4212  10.0831  10.6714  11.2100  12.2392  13.4396  22.4044  26.1208
    26.7903  34.5348

          k =-0.2857 0.5714-0.2857 (    67 PWs)   bands (ev):

     6.1278   8.8648   9.3342  10.2627  11.4512  12.6194  16.7465  24.4993
    25.1936  33.1904

          k = 0.5714-0.2857 0.5714 (    63 PWs)   bands (ev):

     7.0787  10.2120  10.4388  10.6649  12.6594  15.1769  16.3586  24.0595
    24.9791  32.9670

          k = 0.4286-0.1429 0.4286 (    59 PWs)   bands (ev):

     5.6639  11.2295  11.5228  11.6752  13.9175  15.9637  19.3310  25.0419
    27.1520  33.9758

          k = 0.2857-0.0000 0.2857 (    61 PWs)   bands (ev):

     3.8889  10.2810  11.2204  11.2495  11.6526  14.2044  23.3763  26.1919
    28.0942  35.3671

          k = 0.0000 0.5714 0.0000 (    60 PWs)   bands (ev):

     5.3554   9.8470  10.8646  12.8167  12.8167  16.0022  21.9503  24.7080
    24.7080  34.7723

          k =-0.1429 0.7143-0.1429 (    59 PWs)   bands (ev):

     7.0265  10.0423  12.3899  13.5798  14.3383  15.5583  17.5210  23.0251
    23.7642  36.1946

          k = 0.7143-0.1429 0.7143 (    60 PWs)   bands (ev):

     8.4554   9.9759  11.6239  13.0609  14.2794  14.4480  17.2188  22.5644
    23.4361  35.6192

          k = 0.5714 0.0000 0.5714 (    63 PWs)   bands (ev):

     7.4048   9.6166  10.3102  11.5312  13.1273  14.2802  18.8890  20.5663
    25.3890  34.6660

          k = 0.0000 0.8571 0.0000 (    64 PWs)   bands (ev):

     7.9944   9.2482  12.1872  12.1872  12.3864  13.7127  16.3452  20.6052
    20.6052  36.6538

          k = 0.8571-0.0000 0.8571 (    60 PWs)   bands (ev):

     8.8822  10.2109  12.0650  13.1647  14.4274  15.2010  17.3691  20.4997
    21.1971  37.1410

          k =-0.2857 0.5714 0.0000 (    60 PWs)   bands (ev):

     5.8856  10.6553  10.7417  13.0063  13.8184  14.4525  19.3394  24.3256
    26.0159  34.8059

          k = 0.5714-0.2857 0.8571 (    61 PWs)   bands (ev):

     7.6841   9.7811  11.2004  12.4834  13.9481  14.5357  17.5161  22.4990
    24.4337  35.0995

          k = 0.7143-0.1429 1.0000 (    58 PWs)   bands (ev):

     8.6042  10.2105  12.1600  13.8867  14.6195  15.4066  18.9725  20.3729
    23.2892  37.3242

          k = 0.5714 0.0000 0.8571 (    63 PWs)   bands (ev):

     9.3384   9.7968  10.2214  11.5314  13.3127  13.8638  18.0782  19.1335
    23.1487  37.0275

     the Fermi energy is    14.5763 ev

!    total energy              =     -71.58650085 Ry
     Harris-Foulkes estimate   =     -71.58650085 Ry
     estimated scf accuracy    <          4.5E-10 Ry

     The total energy is the sum of the following terms:

     one-electron contribution =      15.12899745 Ry
     hartree contribution      =       4.17002335 Ry
     xc contribution           =     -19.02267779 Ry
     ewald contribution        =     -71.86118018 Ry
     smearing contrib. (-TS)   =      -0.00166367 Ry

     convergence has been achieved in   9 iterations

     Forces acting on atoms (cartesian axes, Ry/au):

     atom    1 type  1   force =     0.00000000    0.00000000    0.00000000

     Total force =     0.000000     Total SCF correction =     0.000000


     Computing stress (Cartesian axis) and pressure

          total   stress  (Ry/bohr**3)                   (kbar)     P=********
  -0.10821356   0.00000000  -0.00000000     -15918.76      0.00     -0.00
   0.00000000  -0.10821356   0.00000000          0.00 -15918.76      0.00
  -0.00000000  -0.00000000  -0.10821356         -0.00     -0.00 -15918.76


     Writing output data file Ag.save/

     init_run     :      0.07s CPU      0.07s WALL (       1 calls)
     electrons    :      0.46s CPU      0.54s WALL (       1 calls)
     forces       :      0.01s CPU      0.01s WALL (       1 calls)
     stress       :      0.01s CPU      0.01s WALL (       1 calls)

     Called by init_run:
     wfcinit      :      0.01s CPU      0.01s WALL (       1 calls)
     potinit      :      0.00s CPU      0.00s WALL (       1 calls)
     hinit0       :      0.06s CPU      0.06s WALL (       1 calls)

     Called by electrons:
     c_bands      :      0.39s CPU      0.45s WALL (       9 calls)
     sum_band     :      0.06s CPU      0.07s WALL (       9 calls)
     v_of_rho     :      0.01s CPU      0.01s WALL (      10 calls)
     newd         :      0.01s CPU      0.01s WALL (      10 calls)
     mix_rho      :      0.00s CPU      0.00s WALL (       9 calls)

     Called by c_bands:
     init_us_2    :      0.01s CPU      0.01s WALL (     420 calls)
     cegterg      :      0.38s CPU      0.43s WALL (     180 calls)

     Called by sum_band:
     sum_band:bec :      0.00s CPU      0.00s WALL (     180 calls)
     addusdens    :      0.01s CPU      0.01s WALL (       9 calls)

     Called by *egterg:
     h_psi        :      0.20s CPU      0.24s WALL (     650 calls)
     s_psi        :      0.01s CPU      0.01s WALL (     650 calls)
     g_psi        :      0.00s CPU      0.00s WALL (     450 calls)
     cdiaghg      :      0.12s CPU      0.14s WALL (     630 calls)

     Called by h_psi:
     h_psi:pot    :      0.20s CPU      0.23s WALL (     650 calls)
     h_psi:calbec :      0.01s CPU      0.01s WALL (     650 calls)
     vloc_psi     :      0.18s CPU      0.21s WALL (     650 calls)
     add_vuspsi   :      0.01s CPU      0.01s WALL (     650 calls)

     General routines
     calbec       :      0.02s CPU      0.02s WALL (     930 calls)
     fft          :      0.00s CPU      0.00s WALL (     136 calls)
     ffts         :      0.00s CPU      0.00s WALL (       9 calls)
     fftw         :      0.19s CPU      0.22s WALL (   11586 calls)

     Parallel routines
     fft_scatt_xy :      0.02s CPU      0.03s WALL (   11731 calls)
     fft_scatt_yz :      0.09s CPU      0.10s WALL (   11731 calls)

     PWSCF        :     1.30s CPU         1.41s WALL


   This run was terminated on:   0: 5:34  27Mar2024            

=------------------------------------------------------------------------------=
   JOB DONE.
=------------------------------------------------------------------------------=
