
     Program PWSCF v.6.3MaX starts on 27Mar2024 at  0:15:17 

     This program is part of the open-source Quantum ESPRESSO suite
     for quantum simulation of materials; please cite
         "P. Giannozzi et al., J. Phys.:Condens. Matter 21 395502 (2009);
         "P. Giannozzi et al., J. Phys.:Condens. Matter 29 465901 (2017);
          URL http://www.quantum-espresso.org", 
     in publications or presentations arising from this work. More details at
     http://www.quantum-espresso.org/quote

     Parallel version (MPI), running on     5 processors

     MPI processes distributed on     1 nodes
     R & G space division:  proc/nbgrp/npool/nimage =       5
     Waiting for input...
     Reading input from standard input

     Current dimensions of program PWSCF are:
     Max number of different atomic species (ntypx) = 10
     Max number of k-points (npk) =  40000
     Max angular momentum in pseudopotentials (lmaxx) =  3

     Subspace diagonalization in iterative solution of the eigenvalue problem:
     a serial algorithm will be used


     Parallelization info
     --------------------
     sticks:   dense  smooth     PW     G-vecs:    dense   smooth      PW
     Min          58      58     19                  643      643     128
     Max          60      60     20                  643      643     130
     Sum         295     295     97                 3215     3215     645



     bravais-lattice index     =            2
     lattice parameter (alat)  =       7.7200  a.u.
     unit-cell volume          =     115.0249 (a.u.)^3
     number of atoms/cell      =            1
     number of atomic types    =            1
     number of electrons       =        11.00
     number of Kohn-Sham states=           10
     kinetic-energy cutoff     =      35.0000  Ry
     charge density cutoff     =     140.0000  Ry
     convergence threshold     =      1.0E-08
     mixing beta               =       0.7000
     number of iterations used =            8  plain     mixing
     Exchange-correlation      = PBE ( 1  4  3  4 0 0)

     celldm(1)=   7.720000  celldm(2)=   0.000000  celldm(3)=   0.000000
     celldm(4)=   0.000000  celldm(5)=   0.000000  celldm(6)=   0.000000

     crystal axes: (cart. coord. in units of alat)
               a(1) = (  -0.500000   0.000000   0.500000 )  
               a(2) = (   0.000000   0.500000   0.500000 )  
               a(3) = (  -0.500000   0.500000   0.000000 )  

     reciprocal axes: (cart. coord. in units 2 pi/alat)
               b(1) = ( -1.000000 -1.000000  1.000000 )  
               b(2) = (  1.000000  1.000000  1.000000 )  
               b(3) = ( -1.000000  1.000000 -1.000000 )  


     PseudoPot. # 1 for Ag read from file:
     /home/lorenzo/pseudos/Ag/Ag.pbe-n-rrkjus_psl.1.0.0.UPF
     MD5 check sum: d841cbfac2b0861aec33b46768a516bf
     Pseudo is Ultrasoft + core correction, Zval = 11.0
     Generated using "atomic" code by A. Dal Corso v.6.2.2
     Using radial grid of 1237 points,  6 beta functions with: 
                l(1) =   0
                l(2) =   0
                l(3) =   1
                l(4) =   1
                l(5) =   2
                l(6) =   2
     Q(r) pseudized with 0 coefficients 


     atomic species   valence    mass     pseudopotential
        Ag            11.00   107.86820     Ag( 1.00)

     48 Sym. Ops., with inversion, found



   Cartesian axes

     site n.     atom                  positions (alat units)
         1           Ag  tau(   1) = (   0.0000000   0.0000000   0.0000000  )

     number of k points=    16  gaussian smearing, width (Ry)=  0.0100
                       cart. coord. in units 2pi/alat
        k(    1) = (   0.0000000   0.0000000   0.0000000), wk =   0.0092593
        k(    2) = (  -0.1666667   0.1666667  -0.1666667), wk =   0.0740741
        k(    3) = (  -0.3333333   0.3333333  -0.3333333), wk =   0.0740741
        k(    4) = (   0.5000000  -0.5000000   0.5000000), wk =   0.0370370
        k(    5) = (   0.0000000   0.3333333   0.0000000), wk =   0.0555556
        k(    6) = (  -0.1666667   0.5000000  -0.1666667), wk =   0.2222222
        k(    7) = (   0.6666667  -0.3333333   0.6666667), wk =   0.2222222
        k(    8) = (   0.5000000  -0.1666667   0.5000000), wk =   0.2222222
        k(    9) = (   0.3333333   0.0000000   0.3333333), wk =   0.1111111
        k(   10) = (   0.0000000   0.6666667   0.0000000), wk =   0.0555556
        k(   11) = (   0.8333333  -0.1666667   0.8333333), wk =   0.2222222
        k(   12) = (   0.6666667  -0.0000000   0.6666667), wk =   0.1111111
        k(   13) = (   0.0000000  -1.0000000   0.0000000), wk =   0.0277778
        k(   14) = (   0.6666667  -0.3333333   1.0000000), wk =   0.2222222
        k(   15) = (   0.5000000  -0.1666667   0.8333333), wk =   0.2222222
        k(   16) = (  -0.3333333  -1.0000000   0.0000000), wk =   0.1111111

     Dense  grid:     3215 G-vectors     FFT dimensions: (  24,  24,  24)

     Estimated max dynamical RAM per process >       3.83 MB

     Estimated total dynamical RAM >      19.17 MB

     Initial potential from superposition of free atoms

     starting charge   10.99960, renormalised to   11.00000
     Starting wfcs are    9 randomized atomic wfcs +    1 random wfcs

     total cpu time spent up to now is        1.0 secs

     Self-consistent Calculation

     iteration #  1     ecut=    35.00 Ry     beta= 0.70
     Davidson diagonalization with overlap
     ethr =  1.00E-02,  avg # of iterations =  4.8

     Threshold (ethr) on eigenvalues was too large:
     Diagonalizing with lowered threshold

     Davidson diagonalization with overlap
     ethr =  2.99E-05,  avg # of iterations =  3.2

     total cpu time spent up to now is        1.3 secs

     total energy              =     -84.25066064 Ry
     Harris-Foulkes estimate   =     -84.25261092 Ry
     estimated scf accuracy    <       0.00366373 Ry

     iteration #  2     ecut=    35.00 Ry     beta= 0.70
     Davidson diagonalization with overlap
     ethr =  3.33E-05,  avg # of iterations =  2.0

     total cpu time spent up to now is        1.5 secs

     total energy              =     -84.25154282 Ry
     Harris-Foulkes estimate   =     -84.25283325 Ry
     estimated scf accuracy    <       0.00243667 Ry

     iteration #  3     ecut=    35.00 Ry     beta= 0.70
     Davidson diagonalization with overlap
     ethr =  2.22E-05,  avg # of iterations =  2.0

     total cpu time spent up to now is        1.6 secs

     total energy              =     -84.25210393 Ry
     Harris-Foulkes estimate   =     -84.25208941 Ry
     estimated scf accuracy    <       0.00002199 Ry

     iteration #  4     ecut=    35.00 Ry     beta= 0.70
     Davidson diagonalization with overlap
     ethr =  2.00E-07,  avg # of iterations =  2.4

     total cpu time spent up to now is        1.7 secs

     total energy              =     -84.25211162 Ry
     Harris-Foulkes estimate   =     -84.25211150 Ry
     estimated scf accuracy    <       0.00000039 Ry

     iteration #  5     ecut=    35.00 Ry     beta= 0.70
     Davidson diagonalization with overlap
     ethr =  3.56E-09,  avg # of iterations =  2.1

     total cpu time spent up to now is        1.9 secs

     total energy              =     -84.25211173 Ry
     Harris-Foulkes estimate   =     -84.25211174 Ry
     estimated scf accuracy    <       0.00000002 Ry

     iteration #  6     ecut=    35.00 Ry     beta= 0.70
     Davidson diagonalization with overlap
     ethr =  2.27E-10,  avg # of iterations =  2.4

     total cpu time spent up to now is        2.0 secs

     End of self-consistent calculation

          k = 0.0000 0.0000 0.0000 (   411 PWs)   bands (ev):

     5.0682   8.0848   8.0848   8.0848   9.1169   9.1169  29.8073  33.0913
    33.0913  37.3896

          k =-0.1667 0.1667-0.1667 (   396 PWs)   bands (ev):

     5.8640   7.9827   8.2660   8.2660   9.1045   9.1045  27.3705  30.5626
    32.9737  32.9737

          k =-0.3333 0.3333-0.3333 (   401 PWs)   bands (ev):

     6.5891   8.2015   8.2015   9.5314   9.5482   9.5482  20.8651  29.5704
    31.9845  31.9845

          k = 0.5000-0.5000 0.5000 (   410 PWs)   bands (ev):

     6.4779   8.0604   8.0604   9.9149   9.9149  12.4505  16.4807  28.8473
    31.0965  31.0965

          k = 0.0000 0.3333 0.0000 (   399 PWs)   bands (ev):

     6.1339   7.6761   8.5044   8.5044   8.7956   9.3075  29.8412  29.9827
    29.9827  30.4983

          k =-0.1667 0.5000-0.1667 (   398 PWs)   bands (ev):

     6.9738   7.6899   8.2799   8.6688   9.6742  10.0610  23.4995  28.3146
    28.9537  30.5796

          k = 0.6667-0.3333 0.6667 (   403 PWs)   bands (ev):

     6.8814   7.8275   8.4793   8.7420   9.9456  13.4560  17.6005  26.5764
    28.4253  29.6781

          k = 0.5000-0.1667 0.5000 (   404 PWs)   bands (ev):

     7.0325   7.9116   8.4608   8.6861   9.4451  12.3500  19.4467  25.3801
    30.1950  30.8277

          k = 0.3333 0.0000 0.3333 (   397 PWs)   bands (ev):

     6.9050   7.7094   8.3331   8.6251   8.7647   9.9544  25.6136  25.9606
    32.5302  33.6460

          k = 0.0000 0.6667 0.0000 (   419 PWs)   bands (ev):

     6.8158   6.9258   9.4931   9.4931   9.6842  10.6750  25.1845  25.6139
    25.6139  29.9375

          k = 0.8333-0.1667 0.8333 (   411 PWs)   bands (ev):

     6.7579   7.0092   9.1671   9.4085  10.0125  14.1578  20.7556  22.0143
    25.1202  29.9052

          k = 0.6667-0.0000 0.6667 (   403 PWs)   bands (ev):

     7.1193   7.6978   8.3142   9.0779   9.6451  16.0344  18.7036  20.4348
    27.2146  29.8613

          k = 0.0000-1.0000 0.0000 (   388 PWs)   bands (ev):

     6.4456   6.5940   9.8981  10.1351  10.1351  14.4766  19.6214  23.7149
    23.7149  30.0238

          k = 0.6667-0.3333 1.0000 (   407 PWs)   bands (ev):

     7.3524   7.4247   8.0788   9.3186   9.4832  12.6753  22.5134  22.5371
    25.9222  33.7528

          k = 0.5000-0.1667 0.8333 (   400 PWs)   bands (ev):

     7.4110   7.4686   8.1220   8.9992   9.8884  16.5462  17.2869  23.1379
    23.7610  33.2533

          k =-0.3333-1.0000 0.0000 (   398 PWs)   bands (ev):

     6.9544   7.1356   8.6949   9.3777  10.1328  16.8545  19.7920  20.9357
    21.6565  33.3374

     the Fermi energy is    12.7062 ev

!    total energy              =     -84.25211174 Ry
     Harris-Foulkes estimate   =     -84.25211174 Ry
     estimated scf accuracy    <          2.5E-09 Ry

     The total energy is the sum of the following terms:

     one-electron contribution =      -4.67868833 Ry
     hartree contribution      =      14.63592381 Ry
     xc contribution           =     -22.34756777 Ry
     ewald contribution        =     -71.86118026 Ry
     smearing contrib. (-TS)   =      -0.00059918 Ry

     convergence has been achieved in   6 iterations

     Forces acting on atoms (cartesian axes, Ry/au):

     atom    1 type  1   force =     0.00000000    0.00000000    0.00000000

     Total force =     0.000000     Total SCF correction =     0.000000


     Computing stress (Cartesian axis) and pressure

          total   stress  (Ry/bohr**3)                   (kbar)     P= -100.88
  -0.00068575  -0.00000000  -0.00000000       -100.88     -0.00     -0.00
  -0.00000000  -0.00068575   0.00000000         -0.00   -100.88      0.00
  -0.00000000   0.00000000  -0.00068575         -0.00      0.00   -100.88


     Writing output data file Ag.save/

     init_run     :      0.17s CPU      0.18s WALL (       1 calls)
     electrons    :      0.95s CPU      1.00s WALL (       1 calls)
     forces       :      0.02s CPU      0.02s WALL (       1 calls)
     stress       :      0.05s CPU      0.05s WALL (       1 calls)

     Called by init_run:
     wfcinit      :      0.03s CPU      0.03s WALL (       1 calls)
     potinit      :      0.01s CPU      0.01s WALL (       1 calls)
     hinit0       :      0.13s CPU      0.14s WALL (       1 calls)

     Called by electrons:
     c_bands      :      0.72s CPU      0.75s WALL (       7 calls)
     sum_band     :      0.19s CPU      0.20s WALL (       7 calls)
     v_of_rho     :      0.02s CPU      0.03s WALL (       7 calls)
     newd         :      0.02s CPU      0.02s WALL (       7 calls)
     mix_rho      :      0.00s CPU      0.00s WALL (       7 calls)

     Called by c_bands:
     init_us_2    :      0.02s CPU      0.02s WALL (     272 calls)
     cegterg      :      0.69s CPU      0.72s WALL (     112 calls)

     Called by sum_band:
     sum_band:bec :      0.00s CPU      0.00s WALL (     112 calls)
     addusdens    :      0.03s CPU      0.03s WALL (       7 calls)

     Called by *egterg:
     h_psi        :      0.51s CPU      0.54s WALL (     431 calls)
     s_psi        :      0.01s CPU      0.01s WALL (     431 calls)
     g_psi        :      0.00s CPU      0.00s WALL (     303 calls)
     cdiaghg      :      0.10s CPU      0.10s WALL (     399 calls)

     Called by h_psi:
     h_psi:pot    :      0.51s CPU      0.54s WALL (     431 calls)
     h_psi:calbec :      0.03s CPU      0.03s WALL (     431 calls)
     vloc_psi     :      0.46s CPU      0.49s WALL (     431 calls)
     add_vuspsi   :      0.01s CPU      0.01s WALL (     431 calls)

     General routines
     calbec       :      0.05s CPU      0.05s WALL (     623 calls)
     fft          :      0.02s CPU      0.02s WALL (     104 calls)
     ffts         :      0.00s CPU      0.00s WALL (       7 calls)
     fftw         :      0.55s CPU      0.58s WALL (    7042 calls)

     Parallel routines
     fft_scatt_xy :      0.05s CPU      0.05s WALL (    7153 calls)
     fft_scatt_yz :      0.24s CPU      0.25s WALL (    7153 calls)

     PWSCF        :     2.03s CPU         2.14s WALL


   This run was terminated on:   0:15:19  27Mar2024            

=------------------------------------------------------------------------------=
   JOB DONE.
=------------------------------------------------------------------------------=
