
     Program PWSCF v.6.3MaX starts on 27Mar2024 at  0:15:48 

     This program is part of the open-source Quantum ESPRESSO suite
     for quantum simulation of materials; please cite
         "P. Giannozzi et al., J. Phys.:Condens. Matter 21 395502 (2009);
         "P. Giannozzi et al., J. Phys.:Condens. Matter 29 465901 (2017);
          URL http://www.quantum-espresso.org", 
     in publications or presentations arising from this work. More details at
     http://www.quantum-espresso.org/quote

     Parallel version (MPI), running on     5 processors

     MPI processes distributed on     1 nodes
     R & G space division:  proc/nbgrp/npool/nimage =       5
     Waiting for input...
     Reading input from standard input

     Current dimensions of program PWSCF are:
     Max number of different atomic species (ntypx) = 10
     Max number of k-points (npk) =  40000
     Max angular momentum in pseudopotentials (lmaxx) =  3
               file Ag.pbe-n-kjpaw_psl.1.0.0.UPF: wavefunction(s)  5S 5P renormalized

     Subspace diagonalization in iterative solution of the eigenvalue problem:
     a serial algorithm will be used


     Parallelization info
     --------------------
     sticks:   dense  smooth     PW     G-vecs:    dense   smooth      PW
     Min          58      58     19                  643      643     128
     Max          60      60     20                  643      643     130
     Sum         295     295     97                 3215     3215     645



     bravais-lattice index     =            2
     lattice parameter (alat)  =       7.7200  a.u.
     unit-cell volume          =     115.0249 (a.u.)^3
     number of atoms/cell      =            1
     number of atomic types    =            1
     number of electrons       =        11.00
     number of Kohn-Sham states=           10
     kinetic-energy cutoff     =      35.0000  Ry
     charge density cutoff     =     140.0000  Ry
     convergence threshold     =      1.0E-08
     mixing beta               =       0.7000
     number of iterations used =            8  plain     mixing
     Exchange-correlation      = SLA PW PBX PBC ( 1  4  3  4 0 0)

     celldm(1)=   7.720000  celldm(2)=   0.000000  celldm(3)=   0.000000
     celldm(4)=   0.000000  celldm(5)=   0.000000  celldm(6)=   0.000000

     crystal axes: (cart. coord. in units of alat)
               a(1) = (  -0.500000   0.000000   0.500000 )  
               a(2) = (   0.000000   0.500000   0.500000 )  
               a(3) = (  -0.500000   0.500000   0.000000 )  

     reciprocal axes: (cart. coord. in units 2 pi/alat)
               b(1) = ( -1.000000 -1.000000  1.000000 )  
               b(2) = (  1.000000  1.000000  1.000000 )  
               b(3) = ( -1.000000  1.000000 -1.000000 )  


     PseudoPot. # 1 for Ag read from file:
     /home/lorenzo/pseudos/Ag/Ag.pbe-n-kjpaw_psl.1.0.0.UPF
     MD5 check sum: 51099775af2a3182a6a1caffb86952a3
     Pseudo is Projector augmented-wave + core cor, Zval = 11.0
     Generated using "atomic" code by A. Dal Corso v.6.2.2
     Shape of augmentation charge: PSQ
     Using radial grid of 1237 points,  6 beta functions with: 
                l(1) =   0
                l(2) =   0
                l(3) =   1
                l(4) =   1
                l(5) =   2
                l(6) =   2
     Q(r) pseudized with 0 coefficients 


     atomic species   valence    mass     pseudopotential
        Ag            11.00   107.86820     Ag( 1.00)

     48 Sym. Ops., with inversion, found



   Cartesian axes

     site n.     atom                  positions (alat units)
         1           Ag  tau(   1) = (   0.0000000   0.0000000   0.0000000  )

     number of k points=    35  gaussian smearing, width (Ry)=  0.0100
                       cart. coord. in units 2pi/alat
        k(    1) = (   0.0000000   0.0000000   0.0000000), wk =   0.0027435
        k(    2) = (  -0.1111111   0.1111111  -0.1111111), wk =   0.0219479
        k(    3) = (  -0.2222222   0.2222222  -0.2222222), wk =   0.0219479
        k(    4) = (  -0.3333333   0.3333333  -0.3333333), wk =   0.0219479
        k(    5) = (  -0.4444444   0.4444444  -0.4444444), wk =   0.0219479
        k(    6) = (   0.0000000   0.2222222   0.0000000), wk =   0.0164609
        k(    7) = (  -0.1111111   0.3333333  -0.1111111), wk =   0.0658436
        k(    8) = (  -0.2222222   0.4444444  -0.2222222), wk =   0.0658436
        k(    9) = (  -0.3333333   0.5555556  -0.3333333), wk =   0.0658436
        k(   10) = (   0.5555556  -0.3333333   0.5555556), wk =   0.0658436
        k(   11) = (   0.4444444  -0.2222222   0.4444444), wk =   0.0658436
        k(   12) = (   0.3333333  -0.1111111   0.3333333), wk =   0.0658436
        k(   13) = (   0.2222222  -0.0000000   0.2222222), wk =   0.0329218
        k(   14) = (   0.0000000   0.4444444   0.0000000), wk =   0.0164609
        k(   15) = (  -0.1111111   0.5555556  -0.1111111), wk =   0.0658436
        k(   16) = (  -0.2222222   0.6666667  -0.2222222), wk =   0.0658436
        k(   17) = (   0.6666667  -0.2222222   0.6666667), wk =   0.0658436
        k(   18) = (   0.5555556  -0.1111111   0.5555556), wk =   0.0658436
        k(   19) = (   0.4444444   0.0000000   0.4444444), wk =   0.0329218
        k(   20) = (   0.0000000   0.6666667   0.0000000), wk =   0.0164609
        k(   21) = (  -0.1111111   0.7777778  -0.1111111), wk =   0.0658436
        k(   22) = (   0.7777778  -0.1111111   0.7777778), wk =   0.0658436
        k(   23) = (   0.6666667  -0.0000000   0.6666667), wk =   0.0329218
        k(   24) = (   0.0000000   0.8888889   0.0000000), wk =   0.0164609
        k(   25) = (   0.8888889   0.0000000   0.8888889), wk =   0.0329218
        k(   26) = (  -0.2222222   0.4444444   0.0000000), wk =   0.0658436
        k(   27) = (  -0.3333333   0.5555556  -0.1111111), wk =   0.1316872
        k(   28) = (   0.5555556  -0.3333333   0.7777778), wk =   0.1316872
        k(   29) = (  -0.2222222   0.6666667   0.0000000), wk =   0.0658436
        k(   30) = (   0.6666667  -0.2222222   0.8888889), wk =   0.1316872
        k(   31) = (   0.5555556  -0.1111111   0.7777778), wk =   0.1316872
        k(   32) = (   0.4444444   0.0000000   0.6666667), wk =   0.0658436
        k(   33) = (   0.7777778  -0.1111111   1.0000000), wk =   0.0658436
        k(   34) = (   0.6666667  -0.0000000   0.8888889), wk =   0.0658436
        k(   35) = (   0.5555556  -0.1111111   1.0000000), wk =   0.0658436

     Dense  grid:     3215 G-vectors     FFT dimensions: (  24,  24,  24)

     Estimated max dynamical RAM per process >       4.07 MB

     Estimated total dynamical RAM >      20.33 MB

     Initial potential from superposition of free atoms

     starting charge   10.99960, renormalised to   11.00000
     Starting wfcs are    9 randomized atomic wfcs +    1 random wfcs
     Checking if some PAW data can be deallocated... 

     total cpu time spent up to now is        1.2 secs

     Self-consistent Calculation

     iteration #  1     ecut=    35.00 Ry     beta= 0.70
     Davidson diagonalization with overlap
     ethr =  1.00E-02,  avg # of iterations =  4.7

     Threshold (ethr) on eigenvalues was too large:
     Diagonalizing with lowered threshold

     Davidson diagonalization with overlap
     ethr =  3.51E-05,  avg # of iterations =  2.2

     total cpu time spent up to now is        1.8 secs

     total energy              =    -355.28906755 Ry
     Harris-Foulkes estimate   =    -355.29144178 Ry
     estimated scf accuracy    <       0.00420854 Ry

     iteration #  2     ecut=    35.00 Ry     beta= 0.70
     Davidson diagonalization with overlap
     ethr =  3.83E-05,  avg # of iterations =  2.0

     total cpu time spent up to now is        2.1 secs

     total energy              =    -355.29039515 Ry
     Harris-Foulkes estimate   =    -355.29186897 Ry
     estimated scf accuracy    <       0.00320907 Ry

     iteration #  3     ecut=    35.00 Ry     beta= 0.70
     Davidson diagonalization with overlap
     ethr =  2.92E-05,  avg # of iterations =  1.5

     total cpu time spent up to now is        2.4 secs

     total energy              =    -355.29100386 Ry
     Harris-Foulkes estimate   =    -355.29096837 Ry
     estimated scf accuracy    <       0.00001707 Ry

     iteration #  4     ecut=    35.00 Ry     beta= 0.70
     Davidson diagonalization with overlap
     ethr =  1.55E-07,  avg # of iterations =  2.9

     total cpu time spent up to now is        2.7 secs

     total energy              =    -355.29101261 Ry
     Harris-Foulkes estimate   =    -355.29101243 Ry
     estimated scf accuracy    <       0.00000053 Ry

     iteration #  5     ecut=    35.00 Ry     beta= 0.70
     Davidson diagonalization with overlap
     ethr =  4.81E-09,  avg # of iterations =  1.1

     total cpu time spent up to now is        3.0 secs

     total energy              =    -355.29101262 Ry
     Harris-Foulkes estimate   =    -355.29101263 Ry
     estimated scf accuracy    <       0.00000006 Ry

     iteration #  6     ecut=    35.00 Ry     beta= 0.70
     Davidson diagonalization with overlap
     ethr =  5.35E-10,  avg # of iterations =  2.5

     total cpu time spent up to now is        3.3 secs

     End of self-consistent calculation

          k = 0.0000 0.0000 0.0000 (   411 PWs)   bands (ev):

     5.0653   8.0728   8.0728   8.0728   9.1054   9.1054  29.8052  33.0876
    33.0876  33.0876

          k =-0.1111 0.1111-0.1111 (   396 PWs)   bands (ev):

     5.4414   8.0062   8.1760   8.1760   9.0838   9.0838  29.2173  30.8311
    33.0551  33.0551

          k =-0.2222 0.2222-0.2222 (   392 PWs)   bands (ev):

     6.2988   8.1082   8.2892   8.2892   9.1714   9.1714  25.1849  30.3743
    32.7699  32.7699

          k =-0.3333 0.3333-0.3333 (   401 PWs)   bands (ev):

     6.5813   8.1902   8.1902   9.5250   9.5352   9.5352  20.8572  29.5696
    31.9776  31.9776

          k =-0.4444 0.4444-0.4444 (   401 PWs)   bands (ev):

     6.4903   8.0712   8.0712   9.8578   9.8578  11.8374  17.2433  28.9346
    31.2078  31.2078

          k = 0.0000 0.2222 0.0000 (   391 PWs)   bands (ev):

     5.5680   7.8794   8.2729   8.2729   8.9325   9.1980  29.8175  31.4776
    31.4780  31.4780

          k =-0.1111 0.3333-0.1111 (   396 PWs)   bands (ev):

     6.3100   7.7275   8.3901   8.4451   8.9773   9.3209  26.9121  30.0898
    30.2856  32.8191

          k =-0.2222 0.4444-0.2222 (   395 PWs)   bands (ev):

     6.8041   8.1766   8.1817   8.4291   9.6321   9.9306  22.4973  29.4360
    29.5145  31.6545

          k =-0.3333 0.5556-0.3333 (   401 PWs)   bands (ev):

     6.7167   7.9758   8.2950   8.9825   9.8961  11.9368  18.4801  28.4837
    29.3633  30.1828

          k = 0.5556-0.3333 0.5556 (   397 PWs)   bands (ev):

     6.6847   7.9338   8.2278   9.3146   9.8427  13.3075  16.6620  27.6589
    29.7378  30.1424

          k = 0.4444-0.2222 0.4444 (   406 PWs)   bands (ev):

     6.7885   8.0447   8.2887   8.9761   9.4465  11.3051  19.7619  27.3712
    30.3472  31.9720

          k = 0.3333-0.1111 0.3333 (   400 PWs)   bands (ev):

     6.7899   7.9446   8.3414   8.4359   8.9702   9.8946  23.9708  27.6656
    31.8467  34.4900

          k = 0.2222-0.0000 0.2222 (   389 PWs)   bands (ev):

     6.0170   7.8510   8.3320   8.3323   8.9066   9.2874  28.3399  28.3431
    32.4055  34.6750

          k = 0.0000 0.4444 0.0000 (   407 PWs)   bands (ev):

     6.6979   7.4098   8.7844   8.7844   8.8408   9.4133  28.3996  28.3996
    29.4761  29.8611

          k =-0.1111 0.5556-0.1111 (   409 PWs)   bands (ev):

     7.0074   7.3011   8.5900   8.9307   9.6723  10.1315  24.5445  27.2255
    27.8258  30.1564

          k =-0.2222 0.6667-0.2222 (   399 PWs)   bands (ev):

     6.9572   7.5737   8.4691   8.8290   9.9422  12.3789  20.3658  25.7941
    26.9517  29.8325

          k = 0.6667-0.2222 0.6667 (   400 PWs)   bands (ev):

     7.0224   7.6926   8.5261   8.7001   9.8661  15.0732  16.9999  24.2317
    27.7452  29.7032

          k = 0.5556-0.1111 0.5556 (   400 PWs)   bands (ev):

     7.2500   7.7832   8.3806   8.6601   9.4504  13.4728  19.2691  23.3762
    29.5592  30.0529

          k = 0.4444 0.0000 0.4444 (   403 PWs)   bands (ev):

     7.4719   7.6702   8.1843   8.6983   8.9530  11.3425  23.2562  23.4079
    30.9983  32.0772

          k = 0.0000 0.6667 0.0000 (   419 PWs)   bands (ev):

     6.8083   6.9154   9.4793   9.4793   9.6720  10.6690  25.1780  25.6079
    25.6079  29.9272

          k =-0.1111 0.7778-0.1111 (   406 PWs)   bands (ev):

     6.7317   6.8758   9.3683   9.4746   9.9648  12.7767  22.4726  23.0509
    24.9812  29.9580

          k = 0.7778-0.1111 0.7778 (   408 PWs)   bands (ev):

     6.8224   7.1937   8.8968   9.3106   9.9330  15.6594  19.0638  21.1715
    25.5516  29.8497

          k = 0.6667-0.0000 0.6667 (   403 PWs)   bands (ev):

     7.1096   7.6884   8.3027   9.0665   9.6311  16.0270  18.6951  20.4285
    27.2084  29.8560

          k = 0.0000 0.8889 0.0000 (   404 PWs)   bands (ev):

     6.4807   6.6162   9.8592  10.0320  10.0320  13.6807  20.5944  23.9365
    23.9365  29.9869

          k = 0.8889 0.0000 0.8889 (   412 PWs)   bands (ev):

     6.5468   6.7082   9.7172   9.7392  10.0589  15.1368  19.6362  21.9759
    24.1456  29.9775

          k =-0.2222 0.4444 0.0000 (   401 PWs)   bands (ev):

     7.0149   7.5178   8.2438   8.7843   9.0472   9.9358  25.7723  26.0708
    30.5001  32.4580

          k =-0.3333 0.5556-0.1111 (   401 PWs)   bands (ev):

     7.1532   7.9001   8.0140   8.7774   9.4725  11.4747  21.5855  25.4785
    28.4488  32.4251

          k = 0.5556-0.3333 0.7778 (   404 PWs)   bands (ev):

     7.0371   7.7279   8.4893   8.6747   9.7995  13.8509  17.7781  25.7440
    26.7896  31.6150

          k =-0.2222 0.6667 0.0000 (   407 PWs)   bands (ev):

     7.1078   7.1103   8.5634   9.4733   9.5462  11.7955  23.6930  23.8591
    25.5064  31.9811

          k = 0.6667-0.2222 0.8889 (   403 PWs)   bands (ev):

     7.0800   7.3718   8.3612   9.2276   9.8716  14.3172  19.8614  23.4065
    24.0224  32.1203

          k = 0.5556-0.1111 0.7778 (   402 PWs)   bands (ev):

     7.2661   7.5819   8.1532   9.0013   9.8195  16.3365  17.6369  22.0890
    24.9159  32.3239

          k = 0.4444 0.0000 0.6667 (   404 PWs)   bands (ev):

     7.6018   7.6440   7.7810   9.0550   9.4832  13.6406  21.1469  21.5941
    26.5159  33.1045

          k = 0.7778-0.1111 1.0000 (   406 PWs)   bands (ev):

     6.7427   6.8508   9.1840   9.6576  10.0320  14.7998  20.7411  22.4320
    22.6355  31.7218

          k = 0.6667-0.0000 0.8889 (   406 PWs)   bands (ev):

     6.9394   7.2155   8.6481   9.3264  10.0244  17.0829  19.1492  20.0480
    23.3636  32.1126

          k = 0.5556-0.1111 1.0000 (   399 PWs)   bands (ev):

     7.2117   7.5590   8.0161   9.1653  10.0299  16.9010  19.7353  20.6147
    21.9770  35.2997

     the Fermi energy is    13.1595 ev

!    total energy              =    -355.29101263 Ry
     Harris-Foulkes estimate   =    -355.29101263 Ry
     estimated scf accuracy    <          2.2E-10 Ry

     total all-electron energy =    -10632.257066 Ry

     The total energy is the sum of the following terms:

     one-electron contribution =       1.58068095 Ry
     hartree contribution      =      14.64717540 Ry
     xc contribution           =     -22.35023407 Ry
     ewald contribution        =     -71.86118026 Ry
     one-center paw contrib.   =    -277.30739677 Ry
     smearing contrib. (-TS)   =      -0.00005787 Ry

     convergence has been achieved in   6 iterations

     Forces acting on atoms (cartesian axes, Ry/au):

     atom    1 type  1   force =     0.00000000    0.00000000    0.00000000

     Total force =     0.000000     Total SCF correction =     0.000000


     Computing stress (Cartesian axis) and pressure

          total   stress  (Ry/bohr**3)                   (kbar)     P= -113.89
  -0.00077420   0.00000000   0.00000000       -113.89      0.00      0.00
   0.00000000  -0.00077420  -0.00000000          0.00   -113.89     -0.00
   0.00000000  -0.00000000  -0.00077420          0.00     -0.00   -113.89


     Writing output data file Ag.save/

     init_run     :      0.28s CPU      0.30s WALL (       1 calls)
     electrons    :      1.94s CPU      2.14s WALL (       1 calls)
     forces       :      0.02s CPU      0.02s WALL (       1 calls)
     stress       :      0.07s CPU      0.07s WALL (       1 calls)

     Called by init_run:
     wfcinit      :      0.06s CPU      0.07s WALL (       1 calls)
     potinit      :      0.09s CPU      0.11s WALL (       1 calls)
     hinit0       :      0.11s CPU      0.11s WALL (       1 calls)

     Called by electrons:
     c_bands      :      1.12s CPU      1.22s WALL (       7 calls)
     sum_band     :      0.22s CPU      0.24s WALL (       7 calls)
     v_of_rho     :      0.02s CPU      0.02s WALL (       7 calls)
     newd         :      0.02s CPU      0.02s WALL (       7 calls)
     PAW_pot      :      0.65s CPU      0.75s WALL (       7 calls)
     mix_rho      :      0.00s CPU      0.00s WALL (       7 calls)

     Called by c_bands:
     init_us_2    :      0.03s CPU      0.03s WALL (     595 calls)
     cegterg      :      1.08s CPU      1.17s WALL (     245 calls)

     Called by sum_band:
     sum_band:bec :      0.00s CPU      0.00s WALL (     245 calls)
     addusdens    :      0.02s CPU      0.02s WALL (       7 calls)

     Called by *egterg:
     h_psi        :      0.83s CPU      0.91s WALL (     873 calls)
     s_psi        :      0.02s CPU      0.03s WALL (     873 calls)
     g_psi        :      0.00s CPU      0.00s WALL (     593 calls)
     cdiaghg      :      0.15s CPU      0.16s WALL (     803 calls)

     Called by h_psi:
     h_psi:pot    :      0.83s CPU      0.90s WALL (     873 calls)
     h_psi:calbec :      0.04s CPU      0.04s WALL (     873 calls)
     vloc_psi     :      0.76s CPU      0.83s WALL (     873 calls)
     add_vuspsi   :      0.02s CPU      0.03s WALL (     873 calls)

     General routines
     calbec       :      0.06s CPU      0.06s WALL (    1293 calls)
     fft          :      0.01s CPU      0.01s WALL (     104 calls)
     ffts         :      0.00s CPU      0.00s WALL (       7 calls)
     fftw         :      0.85s CPU      0.92s WALL (   14916 calls)

     Parallel routines
     fft_scatt_xy :      0.08s CPU      0.09s WALL (   15027 calls)
     fft_scatt_yz :      0.24s CPU      0.26s WALL (   15027 calls)

     PWSCF        :     3.22s CPU         3.50s WALL


   This run was terminated on:   0:15:52  27Mar2024            

=------------------------------------------------------------------------------=
   JOB DONE.
=------------------------------------------------------------------------------=
