
     Program PWSCF v.6.3MaX starts on 27Mar2024 at  0: 9:15 

     This program is part of the open-source Quantum ESPRESSO suite
     for quantum simulation of materials; please cite
         "P. Giannozzi et al., J. Phys.:Condens. Matter 21 395502 (2009);
         "P. Giannozzi et al., J. Phys.:Condens. Matter 29 465901 (2017);
          URL http://www.quantum-espresso.org", 
     in publications or presentations arising from this work. More details at
     http://www.quantum-espresso.org/quote

     Parallel version (MPI), running on     5 processors

     MPI processes distributed on     1 nodes
     R & G space division:  proc/nbgrp/npool/nimage =       5
     Waiting for input...
     Reading input from standard input

     Current dimensions of program PWSCF are:
     Max number of different atomic species (ntypx) = 10
     Max number of k-points (npk) =  40000
     Max angular momentum in pseudopotentials (lmaxx) =  3

     Subspace diagonalization in iterative solution of the eigenvalue problem:
     a serial algorithm will be used


     Parallelization info
     --------------------
     sticks:   dense  smooth     PW     G-vecs:    dense   smooth      PW
     Min          32      32     12                  280      280      66
     Max          33      33     13                  283      283      67
     Sum         163     163     61                 1411     1411     331



     bravais-lattice index     =            2
     lattice parameter (alat)  =       7.7200  a.u.
     unit-cell volume          =     115.0249 (a.u.)^3
     number of atoms/cell      =            1
     number of atomic types    =            1
     number of electrons       =        11.00
     number of Kohn-Sham states=           10
     kinetic-energy cutoff     =      20.0000  Ry
     charge density cutoff     =      80.0000  Ry
     convergence threshold     =      1.0E-08
     mixing beta               =       0.7000
     number of iterations used =            8  plain     mixing
     Exchange-correlation      = PBESOL ( 1  4 10  8 0 0)

     celldm(1)=   7.720000  celldm(2)=   0.000000  celldm(3)=   0.000000
     celldm(4)=   0.000000  celldm(5)=   0.000000  celldm(6)=   0.000000

     crystal axes: (cart. coord. in units of alat)
               a(1) = (  -0.500000   0.000000   0.500000 )  
               a(2) = (   0.000000   0.500000   0.500000 )  
               a(3) = (  -0.500000   0.500000   0.000000 )  

     reciprocal axes: (cart. coord. in units 2 pi/alat)
               b(1) = ( -1.000000 -1.000000  1.000000 )  
               b(2) = (  1.000000  1.000000  1.000000 )  
               b(3) = ( -1.000000  1.000000 -1.000000 )  


     PseudoPot. # 1 for Ag read from file:
     /home/lorenzo/pseudos/Ag/Ag.pbesol-n-rrkjus_psl.1.0.0.UPF
     MD5 check sum: 3b43e8aa747a56f565f44d11355b8b45
     Pseudo is Ultrasoft + core correction, Zval = 11.0
     Generated using "atomic" code by A. Dal Corso v.6.2.2
     Using radial grid of 1237 points,  6 beta functions with: 
                l(1) =   0
                l(2) =   0
                l(3) =   1
                l(4) =   1
                l(5) =   2
                l(6) =   2
     Q(r) pseudized with 0 coefficients 


     atomic species   valence    mass     pseudopotential
        Ag            11.00   107.86820     Ag( 1.00)

     48 Sym. Ops., with inversion, found



   Cartesian axes

     site n.     atom                  positions (alat units)
         1           Ag  tau(   1) = (   0.0000000   0.0000000   0.0000000  )

     number of k points=    20  gaussian smearing, width (Ry)=  0.0100
                       cart. coord. in units 2pi/alat
        k(    1) = (   0.0000000   0.0000000   0.0000000), wk =   0.0058309
        k(    2) = (  -0.1428571   0.1428571  -0.1428571), wk =   0.0466472
        k(    3) = (  -0.2857143   0.2857143  -0.2857143), wk =   0.0466472
        k(    4) = (  -0.4285714   0.4285714  -0.4285714), wk =   0.0466472
        k(    5) = (   0.0000000   0.2857143   0.0000000), wk =   0.0349854
        k(    6) = (  -0.1428571   0.4285714  -0.1428571), wk =   0.1399417
        k(    7) = (  -0.2857143   0.5714286  -0.2857143), wk =   0.1399417
        k(    8) = (   0.5714286  -0.2857143   0.5714286), wk =   0.1399417
        k(    9) = (   0.4285714  -0.1428571   0.4285714), wk =   0.1399417
        k(   10) = (   0.2857143  -0.0000000   0.2857143), wk =   0.0699708
        k(   11) = (   0.0000000   0.5714286   0.0000000), wk =   0.0349854
        k(   12) = (  -0.1428571   0.7142857  -0.1428571), wk =   0.1399417
        k(   13) = (   0.7142857  -0.1428571   0.7142857), wk =   0.1399417
        k(   14) = (   0.5714286   0.0000000   0.5714286), wk =   0.0699708
        k(   15) = (   0.0000000   0.8571429   0.0000000), wk =   0.0349854
        k(   16) = (   0.8571429  -0.0000000   0.8571429), wk =   0.0699708
        k(   17) = (  -0.2857143   0.5714286   0.0000000), wk =   0.1399417
        k(   18) = (   0.5714286  -0.2857143   0.8571429), wk =   0.2798834
        k(   19) = (   0.7142857  -0.1428571   1.0000000), wk =   0.1399417
        k(   20) = (   0.5714286   0.0000000   0.8571429), wk =   0.1399417

     Dense  grid:     1411 G-vectors     FFT dimensions: (  15,  15,  15)

     Estimated max dynamical RAM per process >       2.03 MB

     Estimated total dynamical RAM >      10.15 MB

     Initial potential from superposition of free atoms

     starting charge   10.99964, renormalised to   11.00000
     Starting wfcs are    9 randomized atomic wfcs +    1 random wfcs

     total cpu time spent up to now is        0.8 secs

     Self-consistent Calculation

     iteration #  1     ecut=    20.00 Ry     beta= 0.70
     Davidson diagonalization with overlap
     ethr =  1.00E-02,  avg # of iterations =  4.9

     total cpu time spent up to now is        1.0 secs

     total energy              =     -82.18596654 Ry
     Harris-Foulkes estimate   =     -82.69781113 Ry
     estimated scf accuracy    <       0.66267988 Ry

     iteration #  2     ecut=    20.00 Ry     beta= 0.70
     Davidson diagonalization with overlap
     ethr =  6.02E-03,  avg # of iterations =  2.0

     total cpu time spent up to now is        1.0 secs

     total energy              =     -82.42083860 Ry
     Harris-Foulkes estimate   =     -82.58802238 Ry
     estimated scf accuracy    <       0.31494347 Ry

     iteration #  3     ecut=    20.00 Ry     beta= 0.70
     Davidson diagonalization with overlap
     ethr =  2.86E-03,  avg # of iterations =  1.6

     total cpu time spent up to now is        1.1 secs

     total energy              =     -82.47020735 Ry
     Harris-Foulkes estimate   =     -82.47211308 Ry
     estimated scf accuracy    <       0.00508084 Ry

     iteration #  4     ecut=    20.00 Ry     beta= 0.70
     Davidson diagonalization with overlap
     ethr =  4.62E-05,  avg # of iterations =  3.1

     total cpu time spent up to now is        1.2 secs

     total energy              =     -82.47246649 Ry
     Harris-Foulkes estimate   =     -82.47281833 Ry
     estimated scf accuracy    <       0.00105843 Ry

     iteration #  5     ecut=    20.00 Ry     beta= 0.70
     Davidson diagonalization with overlap
     ethr =  9.62E-06,  avg # of iterations =  1.1

     total cpu time spent up to now is        1.2 secs

     total energy              =     -82.47245800 Ry
     Harris-Foulkes estimate   =     -82.47253034 Ry
     estimated scf accuracy    <       0.00019101 Ry

     iteration #  6     ecut=    20.00 Ry     beta= 0.70
     Davidson diagonalization with overlap
     ethr =  1.74E-06,  avg # of iterations =  1.3

     total cpu time spent up to now is        1.3 secs

     total energy              =     -82.47247649 Ry
     Harris-Foulkes estimate   =     -82.47247994 Ry
     estimated scf accuracy    <       0.00000778 Ry

     iteration #  7     ecut=    20.00 Ry     beta= 0.70
     Davidson diagonalization with overlap
     ethr =  7.08E-08,  avg # of iterations =  2.3

     total cpu time spent up to now is        1.3 secs

     total energy              =     -82.47247810 Ry
     Harris-Foulkes estimate   =     -82.47247812 Ry
     estimated scf accuracy    <       0.00000005 Ry

     iteration #  8     ecut=    20.00 Ry     beta= 0.70
     Davidson diagonalization with overlap
     ethr =  4.54E-10,  avg # of iterations =  2.4

     total cpu time spent up to now is        1.4 secs

     End of self-consistent calculation

          k = 0.0000 0.0000 0.0000 (   169 PWs)   bands (ev):

     4.8071   7.9337   7.9337   7.9337   8.5559   8.5559  29.9387  32.7468
    32.7468  32.7468

          k =-0.1429 0.1429-0.1429 (   172 PWs)   bands (ev):

     5.4004   7.7710   7.9959   7.9959   8.4850   8.4850  28.2044  30.6718
    32.7453  32.7453

          k =-0.2857 0.2857-0.2857 (   174 PWs)   bands (ev):

     6.3244   8.0471   8.0471   8.5090   8.8667   8.8667  22.4800  30.1253
    31.9754  31.9754

          k =-0.4286 0.4286-0.4286 (   174 PWs)   bands (ev):

     6.2527   8.0196   8.0196   9.1981   9.1981  11.2447  17.3745  29.1111
    30.6672  30.6672

          k = 0.0000 0.2857 0.0000 (   173 PWs)   bands (ev):

     5.5979   7.6537   8.0439   8.0439   8.3611   8.5731  30.1935  30.3748
    30.3748  30.8382

          k =-0.1429 0.4286-0.1429 (   171 PWs)   bands (ev):

     6.5630   7.5426   8.2309   8.3470   9.0834   9.2180  24.7901  28.8209
    30.0727  31.4322

          k =-0.2857 0.5714-0.2857 (   172 PWs)   bands (ev):

     6.6655   7.8604   8.2620   8.4337   9.5050  11.4181  19.2497  28.1490
    28.2840  29.8802

          k = 0.5714-0.2857 0.5714 (   170 PWs)   bands (ev):

     6.5891   7.8761   8.5245   8.8885   9.3347  13.4935  16.5226  26.4957
    29.3074  29.6528

          k = 0.4286-0.1429 0.4286 (   173 PWs)   bands (ev):

     6.4983   7.8544   8.3200   8.4522   9.1091  10.4975  20.9893  26.0885
    30.7179  32.1064

          k = 0.2857-0.0000 0.2857 (   168 PWs)   bands (ev):

     6.2790   7.8090   8.1361   8.1416   8.8074   9.6230  26.4935  27.2039
    32.9486  33.3126

          k = 0.0000 0.5714 0.0000 (   174 PWs)   bands (ev):

     6.5829   7.2298   8.8518   8.8518   8.9468   9.2621  26.3515  26.3515
    27.2886  29.9355

          k =-0.1429 0.7143-0.1429 (   176 PWs)   bands (ev):

     6.6881   7.1708   8.2560   8.7482   9.4512  11.8957  21.8217  24.2659
    25.3413  30.2539

          k = 0.7143-0.1429 0.7143 (   180 PWs)   bands (ev):

     6.7441   6.9760   7.8877   8.5683   9.1301  15.5998  17.1800  21.8217
    26.2026  30.0229

          k = 0.5714 0.0000 0.5714 (   176 PWs)   bands (ev):

     7.1689   7.3102   7.6483   8.6765   8.9707  13.4702  20.3169  20.9054
    28.8347  30.2230

          k = 0.0000 0.8571 0.0000 (   178 PWs)   bands (ev):

     6.4519   6.5252   9.2148   9.3105   9.3105  12.9615  20.8777  23.6338
    23.6338  29.9787

          k = 0.8571-0.0000 0.8571 (   178 PWs)   bands (ev):

     6.1888   6.8644   9.1028   9.1422   9.1519  15.1940  19.1367  20.9663
    23.9795  30.3845

          k =-0.2857 0.5714 0.0000 (   176 PWs)   bands (ev):

     6.9922   7.1817   7.8371   8.8309   8.8680  10.6640  23.3587  23.8727
    27.8541  33.5244

          k = 0.5714-0.2857 0.8571 (   170 PWs)   bands (ev):

     7.2056   7.4963   8.0607   8.9721   9.5376  14.0094  18.4751  23.6840
    25.5035  32.4532

          k = 0.7143-0.1429 1.0000 (   175 PWs)   bands (ev):

     6.7302   7.1317   8.2650   9.0595   9.5630  14.5701  20.7102  21.6330
    22.3631  33.5355

          k = 0.5714 0.0000 0.8571 (   175 PWs)   bands (ev):

     6.9651   7.3666   7.8421   9.0331   9.3258  17.3721  18.0634  19.8899
    23.1406  33.4738

     the Fermi energy is    12.9412 ev

!    total energy              =     -82.47247813 Ry
     Harris-Foulkes estimate   =     -82.47247813 Ry
     estimated scf accuracy    <          8.6E-09 Ry

     The total energy is the sum of the following terms:

     one-electron contribution =      -1.62858447 Ry
     hartree contribution      =      12.74326041 Ry
     xc contribution           =     -21.72587734 Ry
     ewald contribution        =     -71.86118020 Ry
     smearing contrib. (-TS)   =      -0.00009653 Ry

     convergence has been achieved in   8 iterations

     Forces acting on atoms (cartesian axes, Ry/au):

     atom    1 type  1   force =     0.00000000    0.00000000    0.00000000

     Total force =     0.000000     Total SCF correction =     0.000000


     Computing stress (Cartesian axis) and pressure

          total   stress  (Ry/bohr**3)                   (kbar)     P=-7207.36
  -0.04899464  -0.00000000   0.00000000      -7207.36     -0.00      0.00
   0.00000000  -0.04899464   0.00000000          0.00  -7207.36      0.00
   0.00000000   0.00000000  -0.04899464          0.00      0.00  -7207.36


     Writing output data file Ag.save/

     init_run     :      0.11s CPU      0.11s WALL (       1 calls)
     electrons    :      0.50s CPU      0.58s WALL (       1 calls)
     forces       :      0.01s CPU      0.01s WALL (       1 calls)
     stress       :      0.02s CPU      0.02s WALL (       1 calls)

     Called by init_run:
     wfcinit      :      0.02s CPU      0.02s WALL (       1 calls)
     potinit      :      0.00s CPU      0.00s WALL (       1 calls)
     hinit0       :      0.09s CPU      0.09s WALL (       1 calls)

     Called by electrons:
     c_bands      :      0.41s CPU      0.47s WALL (       8 calls)
     sum_band     :      0.06s CPU      0.07s WALL (       8 calls)
     v_of_rho     :      0.01s CPU      0.01s WALL (       9 calls)
     newd         :      0.02s CPU      0.02s WALL (       9 calls)
     mix_rho      :      0.00s CPU      0.00s WALL (       8 calls)

     Called by c_bands:
     init_us_2    :      0.01s CPU      0.01s WALL (     380 calls)
     cegterg      :      0.39s CPU      0.45s WALL (     160 calls)

     Called by sum_band:
     sum_band:bec :      0.00s CPU      0.00s WALL (     160 calls)
     addusdens    :      0.01s CPU      0.01s WALL (       8 calls)

     Called by *egterg:
     h_psi        :      0.24s CPU      0.27s WALL (     552 calls)
     s_psi        :      0.01s CPU      0.01s WALL (     552 calls)
     g_psi        :      0.00s CPU      0.00s WALL (     372 calls)
     cdiaghg      :      0.10s CPU      0.12s WALL (     532 calls)

     Called by h_psi:
     h_psi:pot    :      0.23s CPU      0.27s WALL (     552 calls)
     h_psi:calbec :      0.02s CPU      0.02s WALL (     552 calls)
     vloc_psi     :      0.21s CPU      0.24s WALL (     552 calls)
     add_vuspsi   :      0.01s CPU      0.01s WALL (     552 calls)

     General routines
     calbec       :      0.02s CPU      0.03s WALL (     812 calls)
     fft          :      0.01s CPU      0.01s WALL (     125 calls)
     ffts         :      0.00s CPU      0.00s WALL (       8 calls)
     fftw         :      0.22s CPU      0.26s WALL (    9888 calls)

     Parallel routines
     fft_scatt_xy :      0.02s CPU      0.03s WALL (   10021 calls)
     fft_scatt_yz :      0.09s CPU      0.10s WALL (   10021 calls)

     PWSCF        :     1.38s CPU         1.53s WALL


   This run was terminated on:   0: 9:16  27Mar2024            

=------------------------------------------------------------------------------=
   JOB DONE.
=------------------------------------------------------------------------------=
