
     Program PWSCF v.6.3MaX starts on 27Mar2024 at  0:45: 2 

     This program is part of the open-source Quantum ESPRESSO suite
     for quantum simulation of materials; please cite
         "P. Giannozzi et al., J. Phys.:Condens. Matter 21 395502 (2009);
         "P. Giannozzi et al., J. Phys.:Condens. Matter 29 465901 (2017);
          URL http://www.quantum-espresso.org", 
     in publications or presentations arising from this work. More details at
     http://www.quantum-espresso.org/quote

     Parallel version (MPI), running on     5 processors

     MPI processes distributed on     1 nodes
     R & G space division:  proc/nbgrp/npool/nimage =       5
     Waiting for input...
     Reading input from standard input

     Current dimensions of program PWSCF are:
     Max number of different atomic species (ntypx) = 10
     Max number of k-points (npk) =  40000
     Max angular momentum in pseudopotentials (lmaxx) =  3

     Subspace diagonalization in iterative solution of the eigenvalue problem:
     a serial algorithm will be used


     Parallelization info
     --------------------
     sticks:   dense  smooth     PW     G-vecs:    dense   smooth      PW
     Min         149     149     43                 2664     2664     445
     Max         149     149     45                 2665     2665     446
     Sum         745     745    223                13323    13323    2229



     bravais-lattice index     =            2
     lattice parameter (alat)  =       7.7200  a.u.
     unit-cell volume          =     115.0249 (a.u.)^3
     number of atoms/cell      =            1
     number of atomic types    =            1
     number of electrons       =        11.00
     number of Kohn-Sham states=           10
     kinetic-energy cutoff     =      90.0000  Ry
     charge density cutoff     =     360.0000  Ry
     convergence threshold     =      1.0E-08
     mixing beta               =       0.7000
     number of iterations used =            8  plain     mixing
     Exchange-correlation      = PBE ( 1  4  3  4 0 0)

     celldm(1)=   7.720000  celldm(2)=   0.000000  celldm(3)=   0.000000
     celldm(4)=   0.000000  celldm(5)=   0.000000  celldm(6)=   0.000000

     crystal axes: (cart. coord. in units of alat)
               a(1) = (  -0.500000   0.000000   0.500000 )  
               a(2) = (   0.000000   0.500000   0.500000 )  
               a(3) = (  -0.500000   0.500000   0.000000 )  

     reciprocal axes: (cart. coord. in units 2 pi/alat)
               b(1) = ( -1.000000 -1.000000  1.000000 )  
               b(2) = (  1.000000  1.000000  1.000000 )  
               b(3) = ( -1.000000  1.000000 -1.000000 )  


     PseudoPot. # 1 for Ag read from file:
     /home/lorenzo/pseudos/Ag/Ag.pbe-n-rrkjus_psl.1.0.0.UPF
     MD5 check sum: d841cbfac2b0861aec33b46768a516bf
     Pseudo is Ultrasoft + core correction, Zval = 11.0
     Generated using "atomic" code by A. Dal Corso v.6.2.2
     Using radial grid of 1237 points,  6 beta functions with: 
                l(1) =   0
                l(2) =   0
                l(3) =   1
                l(4) =   1
                l(5) =   2
                l(6) =   2
     Q(r) pseudized with 0 coefficients 


     atomic species   valence    mass     pseudopotential
        Ag            11.00   107.86820     Ag( 1.00)

     48 Sym. Ops., with inversion, found



   Cartesian axes

     site n.     atom                  positions (alat units)
         1           Ag  tau(   1) = (   0.0000000   0.0000000   0.0000000  )

     number of k points=    29  gaussian smearing, width (Ry)=  0.0100
                       cart. coord. in units 2pi/alat
        k(    1) = (   0.0000000   0.0000000   0.0000000), wk =   0.0039062
        k(    2) = (  -0.1250000   0.1250000  -0.1250000), wk =   0.0312500
        k(    3) = (  -0.2500000   0.2500000  -0.2500000), wk =   0.0312500
        k(    4) = (  -0.3750000   0.3750000  -0.3750000), wk =   0.0312500
        k(    5) = (   0.5000000  -0.5000000   0.5000000), wk =   0.0156250
        k(    6) = (   0.0000000   0.2500000   0.0000000), wk =   0.0234375
        k(    7) = (  -0.1250000   0.3750000  -0.1250000), wk =   0.0937500
        k(    8) = (  -0.2500000   0.5000000  -0.2500000), wk =   0.0937500
        k(    9) = (   0.6250000  -0.3750000   0.6250000), wk =   0.0937500
        k(   10) = (   0.5000000  -0.2500000   0.5000000), wk =   0.0937500
        k(   11) = (   0.3750000  -0.1250000   0.3750000), wk =   0.0937500
        k(   12) = (   0.2500000   0.0000000   0.2500000), wk =   0.0468750
        k(   13) = (   0.0000000   0.5000000   0.0000000), wk =   0.0234375
        k(   14) = (  -0.1250000   0.6250000  -0.1250000), wk =   0.0937500
        k(   15) = (   0.7500000  -0.2500000   0.7500000), wk =   0.0937500
        k(   16) = (   0.6250000  -0.1250000   0.6250000), wk =   0.0937500
        k(   17) = (   0.5000000   0.0000000   0.5000000), wk =   0.0468750
        k(   18) = (   0.0000000   0.7500000   0.0000000), wk =   0.0234375
        k(   19) = (   0.8750000  -0.1250000   0.8750000), wk =   0.0937500
        k(   20) = (   0.7500000   0.0000000   0.7500000), wk =   0.0468750
        k(   21) = (   0.0000000  -1.0000000   0.0000000), wk =   0.0117188
        k(   22) = (  -0.2500000   0.5000000   0.0000000), wk =   0.0937500
        k(   23) = (   0.6250000  -0.3750000   0.8750000), wk =   0.1875000
        k(   24) = (   0.5000000  -0.2500000   0.7500000), wk =   0.0937500
        k(   25) = (   0.7500000  -0.2500000   1.0000000), wk =   0.0937500
        k(   26) = (   0.6250000  -0.1250000   0.8750000), wk =   0.1875000
        k(   27) = (   0.5000000   0.0000000   0.7500000), wk =   0.0937500
        k(   28) = (  -0.2500000  -1.0000000   0.0000000), wk =   0.0468750
        k(   29) = (  -0.5000000  -1.0000000   0.0000000), wk =   0.0234375

     Dense  grid:    13323 G-vectors     FFT dimensions: (  36,  36,  36)

     Estimated max dynamical RAM per process >      13.47 MB

     Estimated total dynamical RAM >      67.35 MB

     Initial potential from superposition of free atoms

     starting charge   10.99960, renormalised to   11.00000
     Starting wfcs are    9 randomized atomic wfcs +    1 random wfcs

     total cpu time spent up to now is        1.1 secs

     Self-consistent Calculation

     iteration #  1     ecut=    90.00 Ry     beta= 0.70
     Davidson diagonalization with overlap
     ethr =  1.00E-02,  avg # of iterations =  4.8

     Threshold (ethr) on eigenvalues was too large:
     Diagonalizing with lowered threshold

     Davidson diagonalization with overlap
     ethr =  2.18E-05,  avg # of iterations =  2.5

     total cpu time spent up to now is        2.7 secs

     total energy              =     -84.27070034 Ry
     Harris-Foulkes estimate   =     -84.27217088 Ry
     estimated scf accuracy    <       0.00268184 Ry

     iteration #  2     ecut=    90.00 Ry     beta= 0.70
     Davidson diagonalization with overlap
     ethr =  2.44E-05,  avg # of iterations =  2.0

     total cpu time spent up to now is        3.3 secs

     total energy              =     -84.27126062 Ry
     Harris-Foulkes estimate   =     -84.27214595 Ry
     estimated scf accuracy    <       0.00162477 Ry

     iteration #  3     ecut=    90.00 Ry     beta= 0.70
     Davidson diagonalization with overlap
     ethr =  1.48E-05,  avg # of iterations =  2.0

     total cpu time spent up to now is        3.8 secs

     total energy              =     -84.27164422 Ry
     Harris-Foulkes estimate   =     -84.27164431 Ry
     estimated scf accuracy    <       0.00002767 Ry

     iteration #  4     ecut=    90.00 Ry     beta= 0.70
     Davidson diagonalization with overlap
     ethr =  2.52E-07,  avg # of iterations =  2.2

     total cpu time spent up to now is        4.4 secs

     total energy              =     -84.27164950 Ry
     Harris-Foulkes estimate   =     -84.27164939 Ry
     estimated scf accuracy    <       0.00000016 Ry

     iteration #  5     ecut=    90.00 Ry     beta= 0.70
     Davidson diagonalization with overlap
     ethr =  1.41E-09,  avg # of iterations =  2.9

     total cpu time spent up to now is        5.0 secs

     total energy              =     -84.27164959 Ry
     Harris-Foulkes estimate   =     -84.27164961 Ry
     estimated scf accuracy    <       0.00000005 Ry

     iteration #  6     ecut=    90.00 Ry     beta= 0.70
     Davidson diagonalization with overlap
     ethr =  4.43E-10,  avg # of iterations =  2.0

     total cpu time spent up to now is        5.6 secs

     End of self-consistent calculation

          k = 0.0000 0.0000 0.0000 (  1639 PWs)   bands (ev):

     5.0697   8.0975   8.0975   8.0975   9.1355   9.1355  29.8020  33.0926
    33.0926  33.0926

          k =-0.1250 0.1250-0.1250 (  1678 PWs)   bands (ev):

     5.5407   8.0088   8.2168   8.2168   9.1017   9.1017  28.8353  30.7010
    33.0456  33.0456

          k =-0.2500 0.2500-0.2500 (  1654 PWs)   bands (ev):

     6.4655   8.2988   8.2988   8.3191   9.2638   9.2638  24.0862  30.2042
    32.6236  32.6236

          k =-0.3750 0.3750-0.3750 (  1655 PWs)   bands (ev):

     6.5666   8.1551   8.1551   9.7102   9.7102  10.3840  19.3715  29.2671
    31.6488  31.6488

          k = 0.5000-0.5000 0.5000 (  1676 PWs)   bands (ev):

     6.4854   8.0728   8.0728   9.9375   9.9375  12.4524  16.4849  28.8416
    31.1070  31.1070

          k = 0.0000 0.2500 0.0000 (  1667 PWs)   bands (ev):

     5.6996   7.8534   8.3338   8.3338   8.9105   9.2431  29.8170  31.1249
    31.1249  31.2185

          k =-0.1250 0.3750-0.1250 (  1654 PWs)   bands (ev):

     6.5575   7.7007   8.3861   8.5245   9.1379   9.4156  26.0547  29.7711
    29.9274  32.4068

          k =-0.2500 0.5000-0.2500 (  1660 PWs)   bands (ev):

     6.8496   8.0876   8.3982   8.4496   9.7894  10.6349  21.1528  28.9686
    29.0647  30.7648

          k = 0.6250-0.3750 0.6250 (  1662 PWs)   bands (ev):

     6.7456   7.9215   8.3120   9.1167   9.9535  13.1686  17.0997  27.7062
    29.3395  29.7500

          k = 0.5000-0.2500 0.5000 (  1658 PWs)   bands (ev):

     6.8051   7.9754   8.3067   9.1253   9.6517  12.3841  18.2846  26.9492
    29.9659  30.9128

          k = 0.3750-0.1250 0.3750 (  1657 PWs)   bands (ev):

     6.9355   8.0429   8.3873   8.4567   9.0826  10.3498  22.7796  27.0246
    31.3689  33.6868

          k = 0.2500 0.0000 0.2500 (  1650 PWs)   bands (ev):

     6.2421   7.8220   8.3709   8.4101   8.8786   9.4137  27.6367  27.7878
    32.6392  34.1000

          k = 0.0000 0.5000 0.0000 (  1636 PWs)   bands (ev):

     6.8761   7.3001   8.9767   8.9767   9.0824   9.5095  27.6465  27.6465
    28.7105  29.8723

          k =-0.1250 0.6250-0.1250 (  1659 PWs)   bands (ev):

     6.9775   7.2321   8.7791   9.0898   9.8255  10.9623  23.4867  26.3257
    26.5044  30.0037

          k = 0.7500-0.2500 0.7500 (  1661 PWs)   bands (ev):

     6.9616   7.5273   8.5744   8.9376   9.9953  13.8877  19.0258  24.1445
    26.6443  29.7610

          k = 0.6250-0.1250 0.6250 (  1658 PWs)   bands (ev):

     7.1886   7.7537   8.3792   8.8135   9.6797  15.0646  17.8906  22.7013
    28.1726  29.8351

          k = 0.5000 0.0000 0.5000 (  1658 PWs)   bands (ev):

     7.5296   7.7601   8.1458   8.7543   9.1527  12.3354  22.1796  22.3000
    30.4950  30.7599

          k = 0.0000 0.7500 0.0000 (  1664 PWs)   bands (ev):

     6.6844   6.7896   9.7616   9.7616   9.7856  11.7912  23.3065  24.8259
    24.8259  29.9438

          k = 0.8750-0.1250 0.8750 (  1660 PWs)   bands (ev):

     6.6482   6.8204   9.5440   9.6385  10.0579  14.2770  20.8858  21.9316
    24.5367  29.9459

          k = 0.7500 0.0000 0.7500 (  1666 PWs)   bands (ev):

     6.8821   7.3034   8.8127   9.3580   9.8656  17.1776  18.1750  20.0331
    25.7920  29.8455

          k = 0.0000-1.0000 0.0000 (  1660 PWs)   bands (ev):

     6.4414   6.5890   9.9030  10.1480  10.1480  14.4808  19.6123  23.7214
    23.7214  29.9763

          k =-0.2500 0.5000 0.0000 (  1660 PWs)   bands (ev):

     7.2660   7.4625   8.1751   8.9736   9.1607  10.4380  24.8637  25.1494
    29.3642  32.7584

          k = 0.6250-0.3750 0.8750 (  1654 PWs)   bands (ev):

     7.2086   7.7854   8.1220   8.8786   9.6488  12.6084  20.2735  24.7453
    27.1282  32.4121

          k = 0.5000-0.2500 0.7500 (  1644 PWs)   bands (ev):

     7.1524   7.6404   8.5234   8.7015   9.8634  15.1638  16.8433  25.3892
    25.5866  31.8772

          k = 0.7500-0.2500 1.0000 (  1662 PWs)   bands (ev):

     7.0311   7.0636   8.6988   9.6062   9.7541  13.0974  22.7370  22.8779
    23.8454  32.2478

          k = 0.6250-0.1250 0.8750 (  1658 PWs)   bands (ev):

     7.1125   7.4090   8.3635   9.2363   9.9810  16.2304  18.7475  21.7080
    23.5143  32.5719

          k = 0.5000 0.0000 0.7500 (  1655 PWs)   bands (ev):

     7.4150   7.7742   7.8370   9.0922   9.7510  15.3249  19.8271  20.8626
    25.0407  33.0684

          k =-0.2500-1.0000 0.0000 (  1662 PWs)   bands (ev):

     6.7631   6.9016   9.1897   9.5826  10.1485  15.9704  19.7104  21.9332
    22.2368  32.0642

          k =-0.5000-1.0000 0.0000 (  1648 PWs)   bands (ev):

     7.1971   7.8175   7.8175   9.1453  10.1490  18.8529  18.8529  19.9437
    21.0770  36.2748

     the Fermi energy is    12.7100 ev

!    total energy              =     -84.27164960 Ry
     Harris-Foulkes estimate   =     -84.27164960 Ry
     estimated scf accuracy    <          2.4E-10 Ry

     The total energy is the sum of the following terms:

     one-electron contribution =      -4.71892553 Ry
     hartree contribution      =      14.66151727 Ry
     xc contribution           =     -22.35275626 Ry
     ewald contribution        =     -71.86118018 Ry
     smearing contrib. (-TS)   =      -0.00030490 Ry

     convergence has been achieved in   6 iterations

     Forces acting on atoms (cartesian axes, Ry/au):

     atom    1 type  1   force =     0.00000000    0.00000000    0.00000000

     Total force =     0.000000     Total SCF correction =     0.000000


     Computing stress (Cartesian axis) and pressure

          total   stress  (Ry/bohr**3)                   (kbar)     P=   56.80
   0.00038615  -0.00000000  -0.00000000         56.80     -0.00     -0.00
  -0.00000000   0.00038615   0.00000000         -0.00     56.80      0.00
  -0.00000000   0.00000000   0.00038615         -0.00      0.00     56.80


     Writing output data file Ag.save/

     init_run     :      0.39s CPU      0.41s WALL (       1 calls)
     electrons    :      4.27s CPU      4.51s WALL (       1 calls)
     forces       :      0.08s CPU      0.08s WALL (       1 calls)
     stress       :      0.26s CPU      0.26s WALL (       1 calls)

     Called by init_run:
     wfcinit      :      0.16s CPU      0.17s WALL (       1 calls)
     potinit      :      0.02s CPU      0.02s WALL (       1 calls)
     hinit0       :      0.19s CPU      0.20s WALL (       1 calls)

     Called by electrons:
     c_bands      :      3.47s CPU      3.67s WALL (       7 calls)
     sum_band     :      0.64s CPU      0.68s WALL (       7 calls)
     v_of_rho     :      0.07s CPU      0.07s WALL (       7 calls)
     newd         :      0.10s CPU      0.10s WALL (       7 calls)
     mix_rho      :      0.00s CPU      0.00s WALL (       7 calls)

     Called by c_bands:
     init_us_2    :      0.10s CPU      0.11s WALL (     493 calls)
     cegterg      :      3.32s CPU      3.52s WALL (     203 calls)

     Called by sum_band:
     sum_band:bec :      0.00s CPU      0.00s WALL (     203 calls)
     addusdens    :      0.09s CPU      0.09s WALL (       7 calls)

     Called by *egterg:
     h_psi        :      2.78s CPU      2.96s WALL (     768 calls)
     s_psi        :      0.09s CPU      0.09s WALL (     768 calls)
     g_psi        :      0.01s CPU      0.01s WALL (     536 calls)
     cdiaghg      :      0.19s CPU      0.20s WALL (     710 calls)

     Called by h_psi:
     h_psi:pot    :      2.77s CPU      2.94s WALL (     768 calls)
     h_psi:calbec :      0.12s CPU      0.13s WALL (     768 calls)
     vloc_psi     :      2.55s CPU      2.72s WALL (     768 calls)
     add_vuspsi   :      0.08s CPU      0.09s WALL (     768 calls)

     General routines
     calbec       :      0.22s CPU      0.23s WALL (    1116 calls)
     fft          :      0.05s CPU      0.06s WALL (     104 calls)
     ffts         :      0.00s CPU      0.00s WALL (       7 calls)
     fftw         :      2.79s CPU      2.98s WALL (   12758 calls)

     Parallel routines
     fft_scatt_xy :      0.24s CPU      0.26s WALL (   12869 calls)
     fft_scatt_yz :      0.66s CPU      0.71s WALL (   12869 calls)

     PWSCF        :     5.79s CPU         6.14s WALL


   This run was terminated on:   0:45: 9  27Mar2024            

=------------------------------------------------------------------------------=
   JOB DONE.
=------------------------------------------------------------------------------=
