
     Program PWSCF v.6.3MaX starts on 27Mar2024 at  0:34:37 

     This program is part of the open-source Quantum ESPRESSO suite
     for quantum simulation of materials; please cite
         "P. Giannozzi et al., J. Phys.:Condens. Matter 21 395502 (2009);
         "P. Giannozzi et al., J. Phys.:Condens. Matter 29 465901 (2017);
          URL http://www.quantum-espresso.org", 
     in publications or presentations arising from this work. More details at
     http://www.quantum-espresso.org/quote

     Parallel version (MPI), running on     5 processors

     MPI processes distributed on     1 nodes
     R & G space division:  proc/nbgrp/npool/nimage =       5
     Waiting for input...
     Reading input from standard input

     Current dimensions of program PWSCF are:
     Max number of different atomic species (ntypx) = 10
     Max number of k-points (npk) =  40000
     Max angular momentum in pseudopotentials (lmaxx) =  3
               file Ag.pbesol-n-kjpaw_psl.1.0.0.UPF: wavefunction(s)  5S 5P renormalized

     Subspace diagonalization in iterative solution of the eigenvalue problem:
     a serial algorithm will be used


     Parallelization info
     --------------------
     sticks:   dense  smooth     PW     G-vecs:    dense   smooth      PW
     Min         122     122     39                 2016     2016     351
     Max         123     123     40                 2017     2017     352
     Sum         613     613    199                10081    10081    1759



     bravais-lattice index     =            2
     lattice parameter (alat)  =       7.7200  a.u.
     unit-cell volume          =     115.0249 (a.u.)^3
     number of atoms/cell      =            1
     number of atomic types    =            1
     number of electrons       =        11.00
     number of Kohn-Sham states=           10
     kinetic-energy cutoff     =      75.0000  Ry
     charge density cutoff     =     300.0000  Ry
     convergence threshold     =      1.0E-08
     mixing beta               =       0.7000
     number of iterations used =            8  plain     mixing
     Exchange-correlation      = SLA PW PSX PSC ( 1  4 10  8 0 0)

     celldm(1)=   7.720000  celldm(2)=   0.000000  celldm(3)=   0.000000
     celldm(4)=   0.000000  celldm(5)=   0.000000  celldm(6)=   0.000000

     crystal axes: (cart. coord. in units of alat)
               a(1) = (  -0.500000   0.000000   0.500000 )  
               a(2) = (   0.000000   0.500000   0.500000 )  
               a(3) = (  -0.500000   0.500000   0.000000 )  

     reciprocal axes: (cart. coord. in units 2 pi/alat)
               b(1) = ( -1.000000 -1.000000  1.000000 )  
               b(2) = (  1.000000  1.000000  1.000000 )  
               b(3) = ( -1.000000  1.000000 -1.000000 )  


     PseudoPot. # 1 for Ag read from file:
     /home/lorenzo/pseudos/Ag/Ag.pbesol-n-kjpaw_psl.1.0.0.UPF
     MD5 check sum: 3b245e14fa22881b2ac493bfd23f605f
     Pseudo is Projector augmented-wave + core cor, Zval = 11.0
     Generated using "atomic" code by A. Dal Corso v.6.2.2
     Shape of augmentation charge: PSQ
     Using radial grid of 1237 points,  6 beta functions with: 
                l(1) =   0
                l(2) =   0
                l(3) =   1
                l(4) =   1
                l(5) =   2
                l(6) =   2
     Q(r) pseudized with 0 coefficients 


     atomic species   valence    mass     pseudopotential
        Ag            11.00   107.86820     Ag( 1.00)

     48 Sym. Ops., with inversion, found



   Cartesian axes

     site n.     atom                  positions (alat units)
         1           Ag  tau(   1) = (   0.0000000   0.0000000   0.0000000  )

     number of k points=    10  gaussian smearing, width (Ry)=  0.0100
                       cart. coord. in units 2pi/alat
        k(    1) = (   0.0000000   0.0000000   0.0000000), wk =   0.0160000
        k(    2) = (  -0.2000000   0.2000000  -0.2000000), wk =   0.1280000
        k(    3) = (  -0.4000000   0.4000000  -0.4000000), wk =   0.1280000
        k(    4) = (   0.0000000   0.4000000   0.0000000), wk =   0.0960000
        k(    5) = (  -0.2000000   0.6000000  -0.2000000), wk =   0.3840000
        k(    6) = (   0.6000000  -0.2000000   0.6000000), wk =   0.3840000
        k(    7) = (   0.4000000   0.0000000   0.4000000), wk =   0.1920000
        k(    8) = (   0.0000000   0.8000000   0.0000000), wk =   0.0960000
        k(    9) = (   0.8000000   0.0000000   0.8000000), wk =   0.1920000
        k(   10) = (   0.6000000  -0.2000000   1.0000000), wk =   0.3840000

     Dense  grid:    10081 G-vectors     FFT dimensions: (  32,  32,  32)

     Estimated max dynamical RAM per process >       9.71 MB

     Estimated total dynamical RAM >      48.57 MB

     Initial potential from superposition of free atoms

     starting charge   10.99964, renormalised to   11.00000
     Starting wfcs are    9 randomized atomic wfcs +    1 random wfcs
     Checking if some PAW data can be deallocated... 

     total cpu time spent up to now is        1.2 secs

     Self-consistent Calculation

     iteration #  1     ecut=    75.00 Ry     beta= 0.70
     Davidson diagonalization with overlap
     ethr =  1.00E-02,  avg # of iterations =  4.9

     Threshold (ethr) on eigenvalues was too large:
     Diagonalizing with lowered threshold

     Davidson diagonalization with overlap
     ethr =  4.30E-05,  avg # of iterations =  1.8

     total cpu time spent up to now is        1.6 secs

     total energy              =    -350.24702289 Ry
     Harris-Foulkes estimate   =    -350.25043968 Ry
     estimated scf accuracy    <       0.00518722 Ry

     iteration #  2     ecut=    75.00 Ry     beta= 0.70
     Davidson diagonalization with overlap
     ethr =  4.72E-05,  avg # of iterations =  2.0

     total cpu time spent up to now is        1.9 secs

     total energy              =    -350.24850799 Ry
     Harris-Foulkes estimate   =    -350.25036793 Ry
     estimated scf accuracy    <       0.00386161 Ry

     iteration #  3     ecut=    75.00 Ry     beta= 0.70
     Davidson diagonalization with overlap
     ethr =  3.51E-05,  avg # of iterations =  1.6

     total cpu time spent up to now is        2.2 secs

     total energy              =    -350.24924862 Ry
     Harris-Foulkes estimate   =    -350.24923198 Ry
     estimated scf accuracy    <       0.00001472 Ry

     iteration #  4     ecut=    75.00 Ry     beta= 0.70
     Davidson diagonalization with overlap
     ethr =  1.34E-07,  avg # of iterations =  3.2

     total cpu time spent up to now is        2.5 secs

     total energy              =    -350.24925684 Ry
     Harris-Foulkes estimate   =    -350.24925667 Ry
     estimated scf accuracy    <       0.00000048 Ry

     iteration #  5     ecut=    75.00 Ry     beta= 0.70
     Davidson diagonalization with overlap
     ethr =  4.40E-09,  avg # of iterations =  1.2

     total cpu time spent up to now is        2.7 secs

     End of self-consistent calculation

          k = 0.0000 0.0000 0.0000 (  1243 PWs)   bands (ev):

     4.8060   7.9227   7.9227   7.9227   8.9743   8.9743  29.5460  32.8287
    32.8287  32.8287

          k =-0.2000 0.2000-0.2000 (  1272 PWs)   bands (ev):

     5.8846   7.8513   8.1300   8.1300   8.9840   8.9840  25.8200  30.2133
    32.6090  32.6090

          k =-0.4000 0.4000-0.4000 (  1257 PWs)   bands (ev):

     6.3374   7.9553   7.9553   9.6272   9.6272  10.6741  18.2959  28.8675
    31.1929  31.1929

          k = 0.0000 0.4000 0.0000 (  1295 PWs)   bands (ev):

     6.2447   7.3565   8.5099   8.5099   8.6125   9.2325  28.7739  28.7739
    29.6024  29.6723

          k =-0.2000 0.6000-0.2000 (  1266 PWs)   bands (ev):

     6.7954   7.4767   8.1980   8.6103   9.7251  11.1232  21.3195  26.9015
    27.1340  29.7230

          k = 0.6000-0.2000 0.6000 (  1267 PWs)   bands (ev):

     6.8678   7.5958   8.4169   8.4804   9.5909  14.2292  17.0355  24.2846
    28.5989  29.5170

          k = 0.4000 0.0000 0.4000 (  1267 PWs)   bands (ev):

     7.0999   7.4996   8.0774   8.5600   8.6612  10.5267  23.8901  24.1858
    31.2682  32.9196

          k = 0.0000 0.8000 0.0000 (  1258 PWs)   bands (ev):

     6.4123   6.5335   9.6701   9.7287   9.7287  12.2395  21.9993  24.1704
    24.1704  29.7238

          k = 0.8000 0.0000 0.8000 (  1260 PWs)   bands (ev):

     6.5650   6.8740   8.9721   9.3627   9.8038  16.1023  19.1186  19.7989
    24.8141  29.6469

          k = 0.6000-0.2000 1.0000 (  1243 PWs)   bands (ev):

     7.1124   7.2601   7.9196   9.1084   9.7175  14.8750  20.4712  20.9934
    23.1627  34.3667

     the Fermi energy is    12.2598 ev

!    total energy              =    -350.24925685 Ry
     Harris-Foulkes estimate   =    -350.24925686 Ry
     estimated scf accuracy    <          6.1E-09 Ry

     total all-electron energy =    -10627.259666 Ry

     The total energy is the sum of the following terms:

     one-electron contribution =       1.59602066 Ry
     hartree contribution      =      14.57412145 Ry
     xc contribution           =     -22.14421833 Ry
     ewald contribution        =     -71.86118018 Ry
     one-center paw contrib.   =    -272.41373558 Ry
     smearing contrib. (-TS)   =      -0.00026488 Ry

     convergence has been achieved in   5 iterations

     Forces acting on atoms (cartesian axes, Ry/au):

     atom    1 type  1   force =     0.00000000    0.00000000    0.00000000

     Total force =     0.000000     Total SCF correction =     0.000000


     Computing stress (Cartesian axis) and pressure

          total   stress  (Ry/bohr**3)                   (kbar)     P=  -30.04
  -0.00020423   0.00000000   0.00000000        -30.04      0.00      0.00
   0.00000000  -0.00020423  -0.00000000          0.00    -30.04     -0.00
   0.00000000  -0.00000000  -0.00020423          0.00     -0.00    -30.04


     Writing output data file Ag.save/

     init_run     :      0.34s CPU      0.36s WALL (       1 calls)
     electrons    :      1.37s CPU      1.51s WALL (       1 calls)
     forces       :      0.05s CPU      0.05s WALL (       1 calls)
     stress       :      0.18s CPU      0.18s WALL (       1 calls)

     Called by init_run:
     wfcinit      :      0.04s CPU      0.04s WALL (       1 calls)
     potinit      :      0.10s CPU      0.11s WALL (       1 calls)
     hinit0       :      0.17s CPU      0.17s WALL (       1 calls)

     Called by electrons:
     c_bands      :      0.62s CPU      0.66s WALL (       6 calls)
     sum_band     :      0.17s CPU      0.18s WALL (       6 calls)
     v_of_rho     :      0.04s CPU      0.04s WALL (       6 calls)
     newd         :      0.06s CPU      0.08s WALL (       6 calls)
     PAW_pot      :      0.57s CPU      0.66s WALL (       6 calls)
     mix_rho      :      0.00s CPU      0.00s WALL (       6 calls)

     Called by c_bands:
     init_us_2    :      0.02s CPU      0.03s WALL (     150 calls)
     cegterg      :      0.59s CPU      0.63s WALL (      60 calls)

     Called by sum_band:
     sum_band:bec :      0.00s CPU      0.00s WALL (      60 calls)
     addusdens    :      0.06s CPU      0.06s WALL (       6 calls)

     Called by *egterg:
     h_psi        :      0.47s CPU      0.51s WALL (     217 calls)
     s_psi        :      0.02s CPU      0.02s WALL (     217 calls)
     g_psi        :      0.00s CPU      0.00s WALL (     147 calls)
     cdiaghg      :      0.05s CPU      0.05s WALL (     197 calls)

     Called by h_psi:
     h_psi:pot    :      0.47s CPU      0.51s WALL (     217 calls)
     h_psi:calbec :      0.03s CPU      0.03s WALL (     217 calls)
     vloc_psi     :      0.43s CPU      0.46s WALL (     217 calls)
     add_vuspsi   :      0.02s CPU      0.02s WALL (     217 calls)

     General routines
     calbec       :      0.05s CPU      0.05s WALL (     327 calls)
     fft          :      0.03s CPU      0.03s WALL (      93 calls)
     ffts         :      0.00s CPU      0.00s WALL (       6 calls)
     fftw         :      0.47s CPU      0.51s WALL (    3722 calls)

     Parallel routines
     fft_scatt_xy :      0.05s CPU      0.05s WALL (    3821 calls)
     fft_scatt_yz :      0.17s CPU      0.19s WALL (    3821 calls)

     PWSCF        :     2.78s CPU         2.99s WALL


   This run was terminated on:   0:34:40  27Mar2024            

=------------------------------------------------------------------------------=
   JOB DONE.
=------------------------------------------------------------------------------=
