
     Program PWSCF v.6.3MaX starts on 27Mar2024 at  0:29:57 

     This program is part of the open-source Quantum ESPRESSO suite
     for quantum simulation of materials; please cite
         "P. Giannozzi et al., J. Phys.:Condens. Matter 21 395502 (2009);
         "P. Giannozzi et al., J. Phys.:Condens. Matter 29 465901 (2017);
          URL http://www.quantum-espresso.org", 
     in publications or presentations arising from this work. More details at
     http://www.quantum-espresso.org/quote

     Parallel version (MPI), running on     5 processors

     MPI processes distributed on     1 nodes
     R & G space division:  proc/nbgrp/npool/nimage =       5
     Waiting for input...
     Reading input from standard input

     Current dimensions of program PWSCF are:
     Max number of different atomic species (ntypx) = 10
     Max number of k-points (npk) =  40000
     Max angular momentum in pseudopotentials (lmaxx) =  3

     Subspace diagonalization in iterative solution of the eigenvalue problem:
     a serial algorithm will be used


     Parallelization info
     --------------------
     sticks:   dense  smooth     PW     G-vecs:    dense   smooth      PW
     Min         106     106     32                 1619     1619     290
     Max         108     108     33                 1620     1620     293
     Sum         535     535    163                 8099     8099    1459



     bravais-lattice index     =            2
     lattice parameter (alat)  =       7.7200  a.u.
     unit-cell volume          =     115.0249 (a.u.)^3
     number of atoms/cell      =            1
     number of atomic types    =            1
     number of electrons       =        11.00
     number of Kohn-Sham states=           10
     kinetic-energy cutoff     =      65.0000  Ry
     charge density cutoff     =     260.0000  Ry
     convergence threshold     =      1.0E-08
     mixing beta               =       0.7000
     number of iterations used =            8  plain     mixing
     Exchange-correlation      = PBE ( 1  4  3  4 0 0)

     celldm(1)=   7.720000  celldm(2)=   0.000000  celldm(3)=   0.000000
     celldm(4)=   0.000000  celldm(5)=   0.000000  celldm(6)=   0.000000

     crystal axes: (cart. coord. in units of alat)
               a(1) = (  -0.500000   0.000000   0.500000 )  
               a(2) = (   0.000000   0.500000   0.500000 )  
               a(3) = (  -0.500000   0.500000   0.000000 )  

     reciprocal axes: (cart. coord. in units 2 pi/alat)
               b(1) = ( -1.000000 -1.000000  1.000000 )  
               b(2) = (  1.000000  1.000000  1.000000 )  
               b(3) = ( -1.000000  1.000000 -1.000000 )  


     PseudoPot. # 1 for Ag read from file:
     /home/lorenzo/pseudos/Ag/Ag.pbe-n-rrkjus_psl.1.0.0.UPF
     MD5 check sum: d841cbfac2b0861aec33b46768a516bf
     Pseudo is Ultrasoft + core correction, Zval = 11.0
     Generated using "atomic" code by A. Dal Corso v.6.2.2
     Using radial grid of 1237 points,  6 beta functions with: 
                l(1) =   0
                l(2) =   0
                l(3) =   1
                l(4) =   1
                l(5) =   2
                l(6) =   2
     Q(r) pseudized with 0 coefficients 


     atomic species   valence    mass     pseudopotential
        Ag            11.00   107.86820     Ag( 1.00)

     48 Sym. Ops., with inversion, found



   Cartesian axes

     site n.     atom                  positions (alat units)
         1           Ag  tau(   1) = (   0.0000000   0.0000000   0.0000000  )

     number of k points=    35  gaussian smearing, width (Ry)=  0.0100
                       cart. coord. in units 2pi/alat
        k(    1) = (   0.0000000   0.0000000   0.0000000), wk =   0.0027435
        k(    2) = (  -0.1111111   0.1111111  -0.1111111), wk =   0.0219479
        k(    3) = (  -0.2222222   0.2222222  -0.2222222), wk =   0.0219479
        k(    4) = (  -0.3333333   0.3333333  -0.3333333), wk =   0.0219479
        k(    5) = (  -0.4444444   0.4444444  -0.4444444), wk =   0.0219479
        k(    6) = (   0.0000000   0.2222222   0.0000000), wk =   0.0164609
        k(    7) = (  -0.1111111   0.3333333  -0.1111111), wk =   0.0658436
        k(    8) = (  -0.2222222   0.4444444  -0.2222222), wk =   0.0658436
        k(    9) = (  -0.3333333   0.5555556  -0.3333333), wk =   0.0658436
        k(   10) = (   0.5555556  -0.3333333   0.5555556), wk =   0.0658436
        k(   11) = (   0.4444444  -0.2222222   0.4444444), wk =   0.0658436
        k(   12) = (   0.3333333  -0.1111111   0.3333333), wk =   0.0658436
        k(   13) = (   0.2222222  -0.0000000   0.2222222), wk =   0.0329218
        k(   14) = (   0.0000000   0.4444444   0.0000000), wk =   0.0164609
        k(   15) = (  -0.1111111   0.5555556  -0.1111111), wk =   0.0658436
        k(   16) = (  -0.2222222   0.6666667  -0.2222222), wk =   0.0658436
        k(   17) = (   0.6666667  -0.2222222   0.6666667), wk =   0.0658436
        k(   18) = (   0.5555556  -0.1111111   0.5555556), wk =   0.0658436
        k(   19) = (   0.4444444   0.0000000   0.4444444), wk =   0.0329218
        k(   20) = (   0.0000000   0.6666667   0.0000000), wk =   0.0164609
        k(   21) = (  -0.1111111   0.7777778  -0.1111111), wk =   0.0658436
        k(   22) = (   0.7777778  -0.1111111   0.7777778), wk =   0.0658436
        k(   23) = (   0.6666667  -0.0000000   0.6666667), wk =   0.0329218
        k(   24) = (   0.0000000   0.8888889   0.0000000), wk =   0.0164609
        k(   25) = (   0.8888889   0.0000000   0.8888889), wk =   0.0329218
        k(   26) = (  -0.2222222   0.4444444   0.0000000), wk =   0.0658436
        k(   27) = (  -0.3333333   0.5555556  -0.1111111), wk =   0.1316872
        k(   28) = (   0.5555556  -0.3333333   0.7777778), wk =   0.1316872
        k(   29) = (  -0.2222222   0.6666667   0.0000000), wk =   0.0658436
        k(   30) = (   0.6666667  -0.2222222   0.8888889), wk =   0.1316872
        k(   31) = (   0.5555556  -0.1111111   0.7777778), wk =   0.1316872
        k(   32) = (   0.4444444   0.0000000   0.6666667), wk =   0.0658436
        k(   33) = (   0.7777778  -0.1111111   1.0000000), wk =   0.0658436
        k(   34) = (   0.6666667  -0.0000000   0.8888889), wk =   0.0658436
        k(   35) = (   0.5555556  -0.1111111   1.0000000), wk =   0.0658436

     Dense  grid:     8099 G-vectors     FFT dimensions: (  30,  30,  30)

     Estimated max dynamical RAM per process >       8.77 MB

     Estimated total dynamical RAM >      43.87 MB

     Initial potential from superposition of free atoms

     starting charge   10.99960, renormalised to   11.00000
     Starting wfcs are    9 randomized atomic wfcs +    1 random wfcs

     total cpu time spent up to now is        1.0 secs

     Self-consistent Calculation

     iteration #  1     ecut=    65.00 Ry     beta= 0.70
     Davidson diagonalization with overlap
     ethr =  1.00E-02,  avg # of iterations =  4.7

     Threshold (ethr) on eigenvalues was too large:
     Diagonalizing with lowered threshold

     Davidson diagonalization with overlap
     ethr =  2.43E-05,  avg # of iterations =  2.7

     total cpu time spent up to now is        2.1 secs

     total energy              =     -84.27355566 Ry
     Harris-Foulkes estimate   =     -84.27519897 Ry
     estimated scf accuracy    <       0.00296730 Ry

     iteration #  2     ecut=    65.00 Ry     beta= 0.70
     Davidson diagonalization with overlap
     ethr =  2.70E-05,  avg # of iterations =  2.0

     total cpu time spent up to now is        2.5 secs

     total energy              =     -84.27418618 Ry
     Harris-Foulkes estimate   =     -84.27517250 Ry
     estimated scf accuracy    <       0.00181226 Ry

     iteration #  3     ecut=    65.00 Ry     beta= 0.70
     Davidson diagonalization with overlap
     ethr =  1.65E-05,  avg # of iterations =  2.0

     total cpu time spent up to now is        2.9 secs

     total energy              =     -84.27461079 Ry
     Harris-Foulkes estimate   =     -84.27461044 Ry
     estimated scf accuracy    <       0.00002863 Ry

     iteration #  4     ecut=    65.00 Ry     beta= 0.70
     Davidson diagonalization with overlap
     ethr =  2.60E-07,  avg # of iterations =  2.3

     total cpu time spent up to now is        3.2 secs

     total energy              =     -84.27461654 Ry
     Harris-Foulkes estimate   =     -84.27461644 Ry
     estimated scf accuracy    <       0.00000019 Ry

     iteration #  5     ecut=    65.00 Ry     beta= 0.70
     Davidson diagonalization with overlap
     ethr =  1.75E-09,  avg # of iterations =  2.4

     total cpu time spent up to now is        3.7 secs

     total energy              =     -84.27461663 Ry
     Harris-Foulkes estimate   =     -84.27461666 Ry
     estimated scf accuracy    <       0.00000005 Ry

     iteration #  6     ecut=    65.00 Ry     beta= 0.70
     Davidson diagonalization with overlap
     ethr =  4.46E-10,  avg # of iterations =  2.1

     total cpu time spent up to now is        4.0 secs

     End of self-consistent calculation

          k = 0.0000 0.0000 0.0000 (   965 PWs)   bands (ev):

     5.0695   8.0892   8.0892   8.0892   9.1249   9.1249  29.8017  33.0921
    33.0921  33.0921

          k =-0.1111 0.1111-0.1111 (   995 PWs)   bands (ev):

     5.4457   8.0136   8.1874   8.1874   9.0942   9.0942  29.2129  30.8316
    33.0588  33.0588

          k =-0.2222 0.2222-0.2222 (  1001 PWs)   bands (ev):

     6.3043   8.1164   8.2991   8.2991   9.1794   9.1794  25.1863  30.3694
    32.7730  32.7730

          k =-0.3333 0.3333-0.3333 (  1008 PWs)   bands (ev):

     6.5935   8.1991   8.1991   9.5344   9.5516   9.5516  20.8663  29.5662
    31.9872  31.9872

          k =-0.4444 0.4444-0.4444 (  1026 PWs)   bands (ev):

     6.4987   8.0812   8.0812   9.8787   9.8787  11.8433  17.2495  28.9312
    31.2213  31.2213

          k = 0.0000 0.2222 0.0000 (  1002 PWs)   bands (ev):

     5.5724   7.8936   8.2765   8.2765   8.9401   9.2106  29.8123  31.4764
    31.4786  31.4786

          k =-0.1111 0.3333-0.1111 (  1008 PWs)   bands (ev):

     6.3151   7.7399   8.3971   8.4553   8.9875   9.3320  26.9133  30.0842
    30.2898  32.8153

          k =-0.2222 0.4444-0.2222 (  1014 PWs)   bands (ev):

     6.8142   8.1828   8.1906   8.4360   9.6434   9.9439  22.5033  29.4290
    29.5206  31.6605

          k =-0.3333 0.5556-0.3333 (  1015 PWs)   bands (ev):

     6.7275   7.9832   8.3025   8.9987   9.9179  11.9463  18.4883  28.4791
    29.3713  30.1911

          k = 0.5556-0.3333 0.5556 (  1011 PWs)   bands (ev):

     6.6927   7.9416   8.2347   9.3317   9.8634  13.3160  16.6677  27.6584
    29.7423  30.1518

          k = 0.4444-0.2222 0.4444 (  1018 PWs)   bands (ev):

     6.8017   8.0544   8.2997   8.9918   9.4681  11.3195  19.7712  27.3730
    30.3505  31.9827

          k = 0.3333-0.1111 0.3333 (  1015 PWs)   bands (ev):

     6.7986   7.9549   8.3515   8.4460   8.9817   9.9121  23.9764  27.6660
    31.8494  34.4888

          k = 0.2222-0.0000 0.2222 (  1001 PWs)   bands (ev):

     6.0218   7.8572   8.3387   8.3422   8.9095   9.2993  28.3371  28.3422
    32.4075  34.6757

          k = 0.0000 0.4444 0.0000 (   998 PWs)   bands (ev):

     6.7034   7.4239   8.7990   8.7990   8.8498   9.4323  28.4068  28.4068
    29.4677  29.8540

          k =-0.1111 0.5556-0.1111 (  1018 PWs)   bands (ev):

     7.0188   7.3123   8.6052   8.9479   9.6868  10.1462  24.5520  27.2348
    27.8278  30.1538

          k =-0.2222 0.6667-0.2222 (  1019 PWs)   bands (ev):

     6.9632   7.5860   8.4827   8.8378   9.9586  12.3888  20.3737  25.7971
    26.9598  29.8252

          k = 0.6667-0.2222 0.6667 (  1018 PWs)   bands (ev):

     7.0302   7.7055   8.5401   8.7105   9.8867  15.0815  17.0073  24.2380
    27.7534  29.6993

          k = 0.5556-0.1111 0.5556 (  1019 PWs)   bands (ev):

     7.2600   7.7965   8.3936   8.6711   9.4669  13.4814  19.2769  23.3836
    29.5671  30.0507

          k = 0.4444 0.0000 0.4444 (  1015 PWs)   bands (ev):

     7.4833   7.6870   8.1941   8.7122   8.9634  11.3584  23.2620  23.4169
    30.9979  32.0830

          k = 0.0000 0.6667 0.0000 (  1030 PWs)   bands (ev):

     6.8201   6.9277   9.5033   9.5033   9.6926  10.6784  25.1846  25.6186
    25.6186  29.9174

          k =-0.1111 0.7778-0.1111 (  1027 PWs)   bands (ev):

     6.7377   6.8865   9.3861   9.4941   9.9817  12.7866  22.4818  23.0547
    24.9918  29.9451

          k = 0.7778-0.1111 0.7778 (  1017 PWs)   bands (ev):

     6.8317   7.2043   8.9156   9.3273   9.9572  15.6698  19.0724  21.1772
    25.5616  29.8425

          k = 0.6667-0.0000 0.6667 (  1015 PWs)   bands (ev):

     7.1198   7.6995   8.3197   9.0822   9.6513  16.0353  18.7055  20.4348
    27.2179  29.8510

          k = 0.0000 0.8889 0.0000 (  1014 PWs)   bands (ev):

     6.4872   6.6227   9.8675  10.0547  10.0547  13.6885  20.5985  23.9468
    23.9468  29.9646

          k = 0.8889 0.0000 0.8889 (  1019 PWs)   bands (ev):

     6.5540   6.7197   9.7413   9.7603  10.0806  15.1466  19.6421  21.9838
    24.1559  29.9677

          k =-0.2222 0.4444 0.0000 (  1019 PWs)   bands (ev):

     7.0225   7.5287   8.2537   8.7984   9.0561   9.9527  25.7769  26.0735
    30.4998  32.4536

          k =-0.3333 0.5556-0.1111 (  1016 PWs)   bands (ev):

     7.1648   7.9101   8.0222   8.7907   9.4894  11.4882  21.5926  25.4825
    28.4497  32.4286

          k = 0.5556-0.3333 0.7778 (  1025 PWs)   bands (ev):

     7.0482   7.7378   8.5042   8.6890   9.8205  13.8602  17.7873  25.7492
    26.7934  31.6203

          k =-0.2222 0.6667 0.0000 (  1026 PWs)   bands (ev):

     7.1175   7.1218   8.5788   9.4952   9.5608  11.8072  23.7020  23.8667
    25.5097  31.9722

          k = 0.6667-0.2222 0.8889 (  1022 PWs)   bands (ev):

     7.0907   7.3830   8.3756   9.2436   9.8883  14.3267  19.8698  23.4154
    24.0267  32.1176

          k = 0.5556-0.1111 0.7778 (  1020 PWs)   bands (ev):

     7.2770   7.5924   8.1665   9.0159   9.8402  16.3442  17.6454  22.0959
    24.9224  32.3241

          k = 0.4444 0.0000 0.6667 (  1019 PWs)   bands (ev):

     7.6122   7.6592   7.7923   9.0723   9.5010  13.6507  21.1567  21.6011
    26.5197  33.1083

          k = 0.7778-0.1111 1.0000 (  1017 PWs)   bands (ev):

     6.7506   6.8639   9.2015   9.6716  10.0534  14.8093  20.7484  22.4411
    22.6411  31.7137

          k = 0.6667-0.0000 0.8889 (  1022 PWs)   bands (ev):

     6.9493   7.2277   8.6639   9.3414  10.0473  17.0924  19.1588  20.0537
    23.3703  32.1086

          k = 0.5556-0.1111 1.0000 (  1022 PWs)   bands (ev):

     7.2187   7.5722   8.0285   9.1781  10.0497  16.9084  19.7439  20.6237
    21.9784  35.2936

     the Fermi energy is    13.1680 ev

!    total energy              =     -84.27461665 Ry
     Harris-Foulkes estimate   =     -84.27461665 Ry
     estimated scf accuracy    <          4.2E-10 Ry

     The total energy is the sum of the following terms:

     one-electron contribution =      -4.71716773 Ry
     hartree contribution      =      14.65427481 Ry
     xc contribution           =     -22.35048567 Ry
     ewald contribution        =     -71.86118018 Ry
     smearing contrib. (-TS)   =      -0.00005788 Ry

     convergence has been achieved in   6 iterations

     Forces acting on atoms (cartesian axes, Ry/au):

     atom    1 type  1   force =     0.00000000    0.00000000    0.00000000

     Total force =     0.000000     Total SCF correction =     0.000000


     Computing stress (Cartesian axis) and pressure

          total   stress  (Ry/bohr**3)                   (kbar)     P=   48.48
   0.00032957  -0.00000000  -0.00000000         48.48     -0.00     -0.00
  -0.00000000   0.00032957   0.00000000         -0.00     48.48      0.00
  -0.00000000   0.00000000   0.00032957         -0.00      0.00     48.48


     Writing output data file Ag.save/

     init_run     :      0.28s CPU      0.29s WALL (       1 calls)
     electrons    :      2.86s CPU      3.01s WALL (       1 calls)
     forces       :      0.05s CPU      0.05s WALL (       1 calls)
     stress       :      0.18s CPU      0.18s WALL (       1 calls)

     Called by init_run:
     wfcinit      :      0.10s CPU      0.10s WALL (       1 calls)
     potinit      :      0.01s CPU      0.01s WALL (       1 calls)
     hinit0       :      0.16s CPU      0.16s WALL (       1 calls)

     Called by electrons:
     c_bands      :      2.32s CPU      2.44s WALL (       7 calls)
     sum_band     :      0.46s CPU      0.48s WALL (       7 calls)
     v_of_rho     :      0.04s CPU      0.04s WALL (       7 calls)
     newd         :      0.05s CPU      0.06s WALL (       7 calls)
     mix_rho      :      0.00s CPU      0.00s WALL (       7 calls)

     Called by c_bands:
     init_us_2    :      0.08s CPU      0.08s WALL (     595 calls)
     cegterg      :      2.22s CPU      2.34s WALL (     245 calls)

     Called by sum_band:
     sum_band:bec :      0.00s CPU      0.00s WALL (     245 calls)
     addusdens    :      0.06s CPU      0.06s WALL (       7 calls)

     Called by *egterg:
     h_psi        :      1.78s CPU      1.88s WALL (     923 calls)
     s_psi        :      0.06s CPU      0.06s WALL (     923 calls)
     g_psi        :      0.01s CPU      0.01s WALL (     643 calls)
     cdiaghg      :      0.19s CPU      0.20s WALL (     853 calls)

     Called by h_psi:
     h_psi:pot    :      1.77s CPU      1.87s WALL (     923 calls)
     h_psi:calbec :      0.08s CPU      0.08s WALL (     923 calls)
     vloc_psi     :      1.63s CPU      1.72s WALL (     923 calls)
     add_vuspsi   :      0.06s CPU      0.06s WALL (     923 calls)

     General routines
     calbec       :      0.14s CPU      0.15s WALL (    1343 calls)
     fft          :      0.02s CPU      0.02s WALL (     104 calls)
     ffts         :      0.00s CPU      0.00s WALL (       7 calls)
     fftw         :      1.82s CPU      1.92s WALL (   15372 calls)

     Parallel routines
     fft_scatt_xy :      0.16s CPU      0.17s WALL (   15483 calls)
     fft_scatt_yz :      0.41s CPU      0.43s WALL (   15483 calls)

     PWSCF        :     4.14s CPU         4.36s WALL


   This run was terminated on:   0:30: 1  27Mar2024            

=------------------------------------------------------------------------------=
   JOB DONE.
=------------------------------------------------------------------------------=
