
     Program PWSCF v.6.3MaX starts on 27Mar2024 at  0:48:15 

     This program is part of the open-source Quantum ESPRESSO suite
     for quantum simulation of materials; please cite
         "P. Giannozzi et al., J. Phys.:Condens. Matter 21 395502 (2009);
         "P. Giannozzi et al., J. Phys.:Condens. Matter 29 465901 (2017);
          URL http://www.quantum-espresso.org", 
     in publications or presentations arising from this work. More details at
     http://www.quantum-espresso.org/quote

     Parallel version (MPI), running on     5 processors

     MPI processes distributed on     1 nodes
     R & G space division:  proc/nbgrp/npool/nimage =       5
     Waiting for input...
     Reading input from standard input

     Current dimensions of program PWSCF are:
     Max number of different atomic species (ntypx) = 10
     Max number of k-points (npk) =  40000
     Max angular momentum in pseudopotentials (lmaxx) =  3

     Subspace diagonalization in iterative solution of the eigenvalue problem:
     a serial algorithm will be used


     Parallelization info
     --------------------
     sticks:   dense  smooth     PW     G-vecs:    dense   smooth      PW
     Min         153     153     48                 2863     2863     484
     Max         154     154     49                 2867     2867     485
     Sum         769     769    241                14331    14331    2421



     bravais-lattice index     =            2
     lattice parameter (alat)  =       7.7200  a.u.
     unit-cell volume          =     115.0249 (a.u.)^3
     number of atoms/cell      =            1
     number of atomic types    =            1
     number of electrons       =        11.00
     number of Kohn-Sham states=           10
     kinetic-energy cutoff     =      95.0000  Ry
     charge density cutoff     =     380.0000  Ry
     convergence threshold     =      1.0E-08
     mixing beta               =       0.7000
     number of iterations used =            8  plain     mixing
     Exchange-correlation      = PBESOL ( 1  4 10  8 0 0)

     celldm(1)=   7.720000  celldm(2)=   0.000000  celldm(3)=   0.000000
     celldm(4)=   0.000000  celldm(5)=   0.000000  celldm(6)=   0.000000

     crystal axes: (cart. coord. in units of alat)
               a(1) = (  -0.500000   0.000000   0.500000 )  
               a(2) = (   0.000000   0.500000   0.500000 )  
               a(3) = (  -0.500000   0.500000   0.000000 )  

     reciprocal axes: (cart. coord. in units 2 pi/alat)
               b(1) = ( -1.000000 -1.000000  1.000000 )  
               b(2) = (  1.000000  1.000000  1.000000 )  
               b(3) = ( -1.000000  1.000000 -1.000000 )  


     PseudoPot. # 1 for Ag read from file:
     /home/lorenzo/pseudos/Ag/Ag.pbesol-n-rrkjus_psl.1.0.0.UPF
     MD5 check sum: 3b43e8aa747a56f565f44d11355b8b45
     Pseudo is Ultrasoft + core correction, Zval = 11.0
     Generated using "atomic" code by A. Dal Corso v.6.2.2
     Using radial grid of 1237 points,  6 beta functions with: 
                l(1) =   0
                l(2) =   0
                l(3) =   1
                l(4) =   1
                l(5) =   2
                l(6) =   2
     Q(r) pseudized with 0 coefficients 


     atomic species   valence    mass     pseudopotential
        Ag            11.00   107.86820     Ag( 1.00)

     48 Sym. Ops., with inversion, found



   Cartesian axes

     site n.     atom                  positions (alat units)
         1           Ag  tau(   1) = (   0.0000000   0.0000000   0.0000000  )

     number of k points=    16  gaussian smearing, width (Ry)=  0.0100
                       cart. coord. in units 2pi/alat
        k(    1) = (   0.0000000   0.0000000   0.0000000), wk =   0.0092593
        k(    2) = (  -0.1666667   0.1666667  -0.1666667), wk =   0.0740741
        k(    3) = (  -0.3333333   0.3333333  -0.3333333), wk =   0.0740741
        k(    4) = (   0.5000000  -0.5000000   0.5000000), wk =   0.0370370
        k(    5) = (   0.0000000   0.3333333   0.0000000), wk =   0.0555556
        k(    6) = (  -0.1666667   0.5000000  -0.1666667), wk =   0.2222222
        k(    7) = (   0.6666667  -0.3333333   0.6666667), wk =   0.2222222
        k(    8) = (   0.5000000  -0.1666667   0.5000000), wk =   0.2222222
        k(    9) = (   0.3333333   0.0000000   0.3333333), wk =   0.1111111
        k(   10) = (   0.0000000   0.6666667   0.0000000), wk =   0.0555556
        k(   11) = (   0.8333333  -0.1666667   0.8333333), wk =   0.2222222
        k(   12) = (   0.6666667  -0.0000000   0.6666667), wk =   0.1111111
        k(   13) = (   0.0000000  -1.0000000   0.0000000), wk =   0.0277778
        k(   14) = (   0.6666667  -0.3333333   1.0000000), wk =   0.2222222
        k(   15) = (   0.5000000  -0.1666667   0.8333333), wk =   0.2222222
        k(   16) = (  -0.3333333  -1.0000000   0.0000000), wk =   0.1111111

     Dense  grid:    14331 G-vectors     FFT dimensions: (  36,  36,  36)

     Estimated max dynamical RAM per process >      13.65 MB

     Estimated total dynamical RAM >      68.24 MB

     Initial potential from superposition of free atoms

     starting charge   10.99964, renormalised to   11.00000
     Starting wfcs are    9 randomized atomic wfcs +    1 random wfcs

     total cpu time spent up to now is        1.1 secs

     Self-consistent Calculation

     iteration #  1     ecut=    95.00 Ry     beta= 0.70
     Davidson diagonalization with overlap
     ethr =  1.00E-02,  avg # of iterations =  4.8

     Threshold (ethr) on eigenvalues was too large:
     Diagonalizing with lowered threshold

     Davidson diagonalization with overlap
     ethr =  4.17E-05,  avg # of iterations =  2.9

     total cpu time spent up to now is        1.8 secs

     total energy              =     -84.17570698 Ry
     Harris-Foulkes estimate   =     -84.17893710 Ry
     estimated scf accuracy    <       0.00497718 Ry

     iteration #  2     ecut=    95.00 Ry     beta= 0.70
     Davidson diagonalization with overlap
     ethr =  4.52E-05,  avg # of iterations =  2.0

     total cpu time spent up to now is        2.1 secs

     total energy              =     -84.17685654 Ry
     Harris-Foulkes estimate   =     -84.17872757 Ry
     estimated scf accuracy    <       0.00348323 Ry

     iteration #  3     ecut=    95.00 Ry     beta= 0.70
     Davidson diagonalization with overlap
     ethr =  3.17E-05,  avg # of iterations =  2.0

     total cpu time spent up to now is        2.4 secs

     total energy              =     -84.17762856 Ry
     Harris-Foulkes estimate   =     -84.17763133 Ry
     estimated scf accuracy    <       0.00002549 Ry

     iteration #  4     ecut=    95.00 Ry     beta= 0.70
     Davidson diagonalization with overlap
     ethr =  2.32E-07,  avg # of iterations =  2.8

     total cpu time spent up to now is        2.7 secs

     total energy              =     -84.17763730 Ry
     Harris-Foulkes estimate   =     -84.17763728 Ry
     estimated scf accuracy    <       0.00000050 Ry

     iteration #  5     ecut=    95.00 Ry     beta= 0.70
     Davidson diagonalization with overlap
     ethr =  4.52E-09,  avg # of iterations =  2.1

     total cpu time spent up to now is        3.1 secs

     total energy              =     -84.17763741 Ry
     Harris-Foulkes estimate   =     -84.17763743 Ry
     estimated scf accuracy    <       0.00000004 Ry

     iteration #  6     ecut=    95.00 Ry     beta= 0.70
     Davidson diagonalization with overlap
     ethr =  4.09E-10,  avg # of iterations =  1.9

     total cpu time spent up to now is        3.4 secs

     End of self-consistent calculation

          k = 0.0000 0.0000 0.0000 (  1807 PWs)   bands (ev):

     4.8076   7.9221   7.9221   7.9221   8.9728   8.9728  29.5445  32.8324
    32.8324  32.8324

          k =-0.1667 0.1667-0.1667 (  1808 PWs)   bands (ev):

     5.6069   7.8116   8.1006   8.1006   8.9463   8.9463  27.1204  30.3039
    32.7151  32.7151

          k =-0.3333 0.3333-0.3333 (  1820 PWs)   bands (ev):

     6.3859   8.0355   8.0355   9.3023   9.3996   9.3996  20.6283  29.3146
    31.7230  31.7230

          k = 0.5000-0.5000 0.5000 (  1802 PWs)   bands (ev):

     6.2832   7.8996   7.8996   9.7781   9.7781  12.1927  16.2577  28.5910
    30.8320  30.8320

          k = 0.0000 0.3333 0.0000 (  1800 PWs)   bands (ev):

     5.8773   7.5073   8.3374   8.3374   8.6353   9.1588  29.5846  29.7246
    29.7246  30.2480

          k =-0.1667 0.5000-0.1667 (  1804 PWs)   bands (ev):

     6.7665   7.5014   8.1063   8.5054   9.5237   9.8741  23.2529  28.0570
    28.7022  30.3219

          k = 0.6667-0.3333 0.6667 (  1795 PWs)   bands (ev):

     6.6904   7.6592   8.3171   8.5718   9.8059  13.2291  17.3653  26.3260
    28.1654  29.4225

          k = 0.5000-0.1667 0.5000 (  1800 PWs)   bands (ev):

     6.8418   7.7441   8.3007   8.5073   9.2977  12.1405  19.2094  25.1311
    29.9379  30.5691

          k = 0.3333 0.0000 0.3333 (  1817 PWs)   bands (ev):

     6.6631   7.5348   8.1649   8.4580   8.6057   9.7960  25.3638  25.7117
    32.2729  33.3847

          k = 0.0000 0.6667 0.0000 (  1768 PWs)   bands (ev):

     6.6279   6.7501   9.3468   9.3468   9.5452  10.4409  24.9437  25.3572
    25.3572  29.6894

          k = 0.8333-0.1667 0.8333 (  1785 PWs)   bands (ev):

     6.5760   6.8314   9.0045   9.2644   9.8739  13.9244  20.5027  21.7794
    24.8613  29.6558

          k = 0.6667-0.0000 0.6667 (  1790 PWs)   bands (ev):

     6.9419   7.5190   8.1443   8.9278   9.4973  15.7996  18.4662  20.1957
    26.9577  29.6100

          k = 0.0000-1.0000 0.0000 (  1772 PWs)   bands (ev):

     6.2512   6.4015   9.7461   9.9882   9.9882  14.2150  19.3806  23.4520
    23.4520  29.7489

          k = 0.6667-0.3333 1.0000 (  1806 PWs)   bands (ev):

     7.1775   7.2433   7.9030   9.1662   9.3353  12.4631  22.2710  22.2873
    25.6772  33.4888

          k = 0.5000-0.1667 0.8333 (  1792 PWs)   bands (ev):

     7.2389   7.2867   7.9452   8.8464   9.7398  16.3108  17.0491  22.8858
    23.5220  32.9934

          k =-0.3333-1.0000 0.0000 (  1786 PWs)   bands (ev):

     6.7729   6.9562   8.5255   9.2227   9.9890  16.6104  19.5486  20.6865
    21.4141  33.0728

     the Fermi energy is    12.4938 ev

!    total energy              =     -84.17763742 Ry
     Harris-Foulkes estimate   =     -84.17763742 Ry
     estimated scf accuracy    <          4.8E-10 Ry

     The total energy is the sum of the following terms:

     one-electron contribution =      -4.73545199 Ry
     hartree contribution      =      14.56067258 Ry
     xc contribution           =     -22.14108060 Ry
     ewald contribution        =     -71.86118018 Ry
     smearing contrib. (-TS)   =      -0.00059723 Ry

     convergence has been achieved in   6 iterations

     Forces acting on atoms (cartesian axes, Ry/au):

     atom    1 type  1   force =     0.00000000    0.00000000    0.00000000

     Total force =     0.000000     Total SCF correction =     0.000000


     Computing stress (Cartesian axis) and pressure

          total   stress  (Ry/bohr**3)                   (kbar)     P=  -13.69
  -0.00009309   0.00000000  -0.00000000        -13.69      0.00     -0.00
   0.00000000  -0.00009309   0.00000000          0.00    -13.69      0.00
  -0.00000000   0.00000000  -0.00009309         -0.00      0.00    -13.69


     Writing output data file Ag.save/

     init_run     :      0.35s CPU      0.36s WALL (       1 calls)
     electrons    :      2.08s CPU      2.22s WALL (       1 calls)
     forces       :      0.06s CPU      0.06s WALL (       1 calls)
     stress       :      0.18s CPU      0.18s WALL (       1 calls)

     Called by init_run:
     wfcinit      :      0.09s CPU      0.10s WALL (       1 calls)
     potinit      :      0.02s CPU      0.02s WALL (       1 calls)
     hinit0       :      0.21s CPU      0.22s WALL (       1 calls)

     Called by electrons:
     c_bands      :      1.55s CPU      1.66s WALL (       7 calls)
     sum_band     :      0.39s CPU      0.41s WALL (       7 calls)
     v_of_rho     :      0.06s CPU      0.06s WALL (       7 calls)
     newd         :      0.09s CPU      0.09s WALL (       7 calls)
     mix_rho      :      0.00s CPU      0.00s WALL (       7 calls)

     Called by c_bands:
     init_us_2    :      0.06s CPU      0.06s WALL (     272 calls)
     cegterg      :      1.48s CPU      1.59s WALL (     112 calls)

     Called by sum_band:
     sum_band:bec :      0.00s CPU      0.00s WALL (     112 calls)
     addusdens    :      0.09s CPU      0.09s WALL (       7 calls)

     Called by *egterg:
     h_psi        :      1.26s CPU      1.36s WALL (     422 calls)
     s_psi        :      0.04s CPU      0.04s WALL (     422 calls)
     g_psi        :      0.00s CPU      0.00s WALL (     294 calls)
     cdiaghg      :      0.08s CPU      0.09s WALL (     390 calls)

     Called by h_psi:
     h_psi:pot    :      1.25s CPU      1.35s WALL (     422 calls)
     h_psi:calbec :      0.06s CPU      0.06s WALL (     422 calls)
     vloc_psi     :      1.16s CPU      1.24s WALL (     422 calls)
     add_vuspsi   :      0.04s CPU      0.04s WALL (     422 calls)

     General routines
     calbec       :      0.09s CPU      0.09s WALL (     614 calls)
     fft          :      0.04s CPU      0.05s WALL (     104 calls)
     ffts         :      0.00s CPU      0.00s WALL (       7 calls)
     fftw         :      1.30s CPU      1.40s WALL (    6934 calls)

     Parallel routines
     fft_scatt_xy :      0.11s CPU      0.12s WALL (    7045 calls)
     fft_scatt_yz :      0.32s CPU      0.34s WALL (    7045 calls)

     PWSCF        :     3.45s CPU         3.65s WALL


   This run was terminated on:   0:48:18  27Mar2024            

=------------------------------------------------------------------------------=
   JOB DONE.
=------------------------------------------------------------------------------=
