
     Program PWSCF v.6.3MaX starts on 27Mar2024 at  0: 8:30 

     This program is part of the open-source Quantum ESPRESSO suite
     for quantum simulation of materials; please cite
         "P. Giannozzi et al., J. Phys.:Condens. Matter 21 395502 (2009);
         "P. Giannozzi et al., J. Phys.:Condens. Matter 29 465901 (2017);
          URL http://www.quantum-espresso.org", 
     in publications or presentations arising from this work. More details at
     http://www.quantum-espresso.org/quote

     Parallel version (MPI), running on     5 processors

     MPI processes distributed on     1 nodes
     R & G space division:  proc/nbgrp/npool/nimage =       5
     Waiting for input...
     Reading input from standard input

     Current dimensions of program PWSCF are:
     Max number of different atomic species (ntypx) = 10
     Max number of k-points (npk) =  40000
     Max angular momentum in pseudopotentials (lmaxx) =  3
               file Ag.pbe-n-kjpaw_psl.1.0.0.UPF: wavefunction(s)  5S 5P renormalized

     Subspace diagonalization in iterative solution of the eigenvalue problem:
     a serial algorithm will be used


     Parallelization info
     --------------------
     sticks:   dense  smooth     PW     G-vecs:    dense   smooth      PW
     Min          32      32     11                  280      280      56
     Max          33      33     11                  283      283      58
     Sum         163     163     55                 1411     1411     283



     bravais-lattice index     =            2
     lattice parameter (alat)  =       7.7200  a.u.
     unit-cell volume          =     115.0249 (a.u.)^3
     number of atoms/cell      =            1
     number of atomic types    =            1
     number of electrons       =        11.00
     number of Kohn-Sham states=           10
     kinetic-energy cutoff     =      20.0000  Ry
     charge density cutoff     =      80.0000  Ry
     convergence threshold     =      1.0E-08
     mixing beta               =       0.7000
     number of iterations used =            8  plain     mixing
     Exchange-correlation      = SLA PW PBX PBC ( 1  4  3  4 0 0)

     celldm(1)=   7.720000  celldm(2)=   0.000000  celldm(3)=   0.000000
     celldm(4)=   0.000000  celldm(5)=   0.000000  celldm(6)=   0.000000

     crystal axes: (cart. coord. in units of alat)
               a(1) = (  -0.500000   0.000000   0.500000 )  
               a(2) = (   0.000000   0.500000   0.500000 )  
               a(3) = (  -0.500000   0.500000   0.000000 )  

     reciprocal axes: (cart. coord. in units 2 pi/alat)
               b(1) = ( -1.000000 -1.000000  1.000000 )  
               b(2) = (  1.000000  1.000000  1.000000 )  
               b(3) = ( -1.000000  1.000000 -1.000000 )  


     PseudoPot. # 1 for Ag read from file:
     /home/lorenzo/pseudos/Ag/Ag.pbe-n-kjpaw_psl.1.0.0.UPF
     MD5 check sum: 51099775af2a3182a6a1caffb86952a3
     Pseudo is Projector augmented-wave + core cor, Zval = 11.0
     Generated using "atomic" code by A. Dal Corso v.6.2.2
     Shape of augmentation charge: PSQ
     Using radial grid of 1237 points,  6 beta functions with: 
                l(1) =   0
                l(2) =   0
                l(3) =   1
                l(4) =   1
                l(5) =   2
                l(6) =   2
     Q(r) pseudized with 0 coefficients 


     atomic species   valence    mass     pseudopotential
        Ag            11.00   107.86820     Ag( 1.00)

     48 Sym. Ops., with inversion, found



   Cartesian axes

     site n.     atom                  positions (alat units)
         1           Ag  tau(   1) = (   0.0000000   0.0000000   0.0000000  )

     number of k points=     4  gaussian smearing, width (Ry)=  0.0100
                       cart. coord. in units 2pi/alat
        k(    1) = (   0.0000000   0.0000000   0.0000000), wk =   0.0740741
        k(    2) = (  -0.3333333   0.3333333  -0.3333333), wk =   0.5925926
        k(    3) = (   0.0000000   0.6666667   0.0000000), wk =   0.4444444
        k(    4) = (   0.6666667  -0.0000000   0.6666667), wk =   0.8888889

     Dense  grid:     1411 G-vectors     FFT dimensions: (  15,  15,  15)

     Estimated max dynamical RAM per process >       1.95 MB

     Estimated total dynamical RAM >       9.73 MB

     Initial potential from superposition of free atoms

     starting charge   10.99960, renormalised to   11.00000
     Starting wfcs are    9 randomized atomic wfcs +    1 random wfcs
     Checking if some PAW data can be deallocated... 

     total cpu time spent up to now is        1.7 secs

     Self-consistent Calculation

     iteration #  1     ecut=    20.00 Ry     beta= 0.70
     Davidson diagonalization with overlap
     ethr =  1.00E-02,  avg # of iterations =  5.8

     total cpu time spent up to now is        1.8 secs

     total energy              =    -353.23653098 Ry
     Harris-Foulkes estimate   =    -353.78473164 Ry
     estimated scf accuracy    <       0.68512651 Ry

     iteration #  2     ecut=    20.00 Ry     beta= 0.70
     Davidson diagonalization with overlap
     ethr =  6.23E-03,  avg # of iterations =  2.5

     total cpu time spent up to now is        1.9 secs

     total energy              =    -353.48620913 Ry
     Harris-Foulkes estimate   =    -353.63595459 Ry
     estimated scf accuracy    <       0.30788264 Ry

     iteration #  3     ecut=    20.00 Ry     beta= 0.70
     Davidson diagonalization with overlap
     ethr =  2.80E-03,  avg # of iterations =  1.8

     total cpu time spent up to now is        2.0 secs

     total energy              =    -353.52671400 Ry
     Harris-Foulkes estimate   =    -353.52956321 Ry
     estimated scf accuracy    <       0.00713578 Ry

     iteration #  4     ecut=    20.00 Ry     beta= 0.70
     Davidson diagonalization with overlap
     ethr =  6.49E-05,  avg # of iterations =  2.8

     total cpu time spent up to now is        2.2 secs

     total energy              =    -353.52876646 Ry
     Harris-Foulkes estimate   =    -353.52904304 Ry
     estimated scf accuracy    <       0.00090286 Ry

     iteration #  5     ecut=    20.00 Ry     beta= 0.70
     Davidson diagonalization with overlap
     ethr =  8.21E-06,  avg # of iterations =  1.0

     total cpu time spent up to now is        2.3 secs

     total energy              =    -353.52872618 Ry
     Harris-Foulkes estimate   =    -353.52881245 Ry
     estimated scf accuracy    <       0.00019306 Ry

     iteration #  6     ecut=    20.00 Ry     beta= 0.70
     Davidson diagonalization with overlap
     ethr =  1.76E-06,  avg # of iterations =  1.8

     total cpu time spent up to now is        2.4 secs

     total energy              =    -353.52875901 Ry
     Harris-Foulkes estimate   =    -353.52875907 Ry
     estimated scf accuracy    <       0.00000016 Ry

     iteration #  7     ecut=    20.00 Ry     beta= 0.70
     Davidson diagonalization with overlap
     ethr =  1.46E-09,  avg # of iterations =  3.2

     total cpu time spent up to now is        2.5 secs

     End of self-consistent calculation

          k = 0.0000 0.0000 0.0000 (   169 PWs)   bands (ev):

     5.1037   8.0569   8.0569   8.0569   8.6471   8.6471  30.1566  33.0485
    33.0485  33.0485

          k =-0.3333 0.3333-0.3333 (   171 PWs)   bands (ev):

     6.2577   8.3530   8.3530   9.3864   9.5420   9.5420  20.7516  29.9307
    31.8512  31.8512

          k = 0.0000 0.6667 0.0000 (   174 PWs)   bands (ev):

     6.6367   7.1874   9.2063   9.2768   9.2768  10.5893  25.2240  25.5267
    25.5267  30.1151

          k = 0.6667-0.0000 0.6667 (   172 PWs)   bands (ev):

     7.2473   7.5838   8.2856   9.0161   9.4142  15.9829  18.7661  20.4467
    27.1703  30.4208

     the Fermi energy is    10.6542 ev

!    total energy              =    -353.52875948 Ry
     Harris-Foulkes estimate   =    -353.52875947 Ry
     estimated scf accuracy    <          2.4E-09 Ry

     total all-electron energy =    -10630.494813 Ry

     The total energy is the sum of the following terms:

     one-electron contribution =       3.98832843 Ry
     hartree contribution      =      12.82714878 Ry
     xc contribution           =     -21.93994402 Ry
     ewald contribution        =     -71.86118020 Ry
     one-center paw contrib.   =    -276.54211378 Ry
     smearing contrib. (-TS)   =      -0.00099868 Ry

     convergence has been achieved in   7 iterations

     Forces acting on atoms (cartesian axes, Ry/au):

     atom    1 type  1   force =     0.00000000    0.00000000    0.00000000

     Total force =     0.000000     Total SCF correction =     0.000000


     Computing stress (Cartesian axis) and pressure

          total   stress  (Ry/bohr**3)                   (kbar)     P=-7482.42
  -0.05086450   0.00000000  -0.00000000      -7482.42      0.00     -0.00
   0.00000000  -0.05086450  -0.00000000          0.00  -7482.42     -0.00
  -0.00000000  -0.00000000  -0.05086450         -0.00     -0.00  -7482.42


     Writing output data file Ag.save/

     init_run     :      0.26s CPU      0.28s WALL (       1 calls)
     electrons    :      0.79s CPU      0.89s WALL (       1 calls)
     forces       :      0.01s CPU      0.01s WALL (       1 calls)
     stress       :      0.02s CPU      0.02s WALL (       1 calls)

     Called by init_run:
     wfcinit      :      0.00s CPU      0.01s WALL (       1 calls)
     potinit      :      0.12s CPU      0.14s WALL (       1 calls)
     hinit0       :      0.11s CPU      0.11s WALL (       1 calls)

     Called by electrons:
     c_bands      :      0.08s CPU      0.09s WALL (       7 calls)
     sum_band     :      0.03s CPU      0.03s WALL (       7 calls)
     v_of_rho     :      0.01s CPU      0.01s WALL (       8 calls)
     newd         :      0.01s CPU      0.01s WALL (       8 calls)
     PAW_pot      :      0.77s CPU      0.88s WALL (       8 calls)
     mix_rho      :      0.00s CPU      0.00s WALL (       7 calls)

     Called by c_bands:
     init_us_2    :      0.00s CPU      0.00s WALL (      68 calls)
     cegterg      :      0.07s CPU      0.08s WALL (      28 calls)

     Called by sum_band:
     sum_band:bec :      0.00s CPU      0.00s WALL (      28 calls)
     addusdens    :      0.01s CPU      0.01s WALL (       7 calls)

     Called by *egterg:
     h_psi        :      0.04s CPU      0.05s WALL (     107 calls)
     s_psi        :      0.00s CPU      0.00s WALL (     107 calls)
     g_psi        :      0.00s CPU      0.00s WALL (      75 calls)
     cdiaghg      :      0.02s CPU      0.02s WALL (     103 calls)

     Called by h_psi:
     h_psi:pot    :      0.04s CPU      0.05s WALL (     107 calls)
     h_psi:calbec :      0.00s CPU      0.00s WALL (     107 calls)
     vloc_psi     :      0.04s CPU      0.04s WALL (     107 calls)
     add_vuspsi   :      0.00s CPU      0.00s WALL (     107 calls)

     General routines
     calbec       :      0.00s CPU      0.00s WALL (     155 calls)
     fft          :      0.01s CPU      0.01s WALL (     114 calls)
     ffts         :      0.00s CPU      0.00s WALL (       7 calls)
     fftw         :      0.04s CPU      0.05s WALL (    1792 calls)

     Parallel routines
     fft_scatt_xy :      0.00s CPU      0.01s WALL (    1913 calls)
     fft_scatt_yz :      0.03s CPU      0.03s WALL (    1913 calls)

     PWSCF        :     2.45s CPU         2.63s WALL


   This run was terminated on:   0: 8:33  27Mar2024            

=------------------------------------------------------------------------------=
   JOB DONE.
=------------------------------------------------------------------------------=
