
     Program PWSCF v.6.3MaX starts on 27Mar2024 at  0:12:38 

     This program is part of the open-source Quantum ESPRESSO suite
     for quantum simulation of materials; please cite
         "P. Giannozzi et al., J. Phys.:Condens. Matter 21 395502 (2009);
         "P. Giannozzi et al., J. Phys.:Condens. Matter 29 465901 (2017);
          URL http://www.quantum-espresso.org", 
     in publications or presentations arising from this work. More details at
     http://www.quantum-espresso.org/quote

     Parallel version (MPI), running on     5 processors

     MPI processes distributed on     1 nodes
     R & G space division:  proc/nbgrp/npool/nimage =       5
     Waiting for input...
     Reading input from standard input

     Current dimensions of program PWSCF are:
     Max number of different atomic species (ntypx) = 10
     Max number of k-points (npk) =  40000
     Max angular momentum in pseudopotentials (lmaxx) =  3
               file Ag.pbe-n-kjpaw_psl.1.0.0.UPF: wavefunction(s)  5S 5P renormalized

     Subspace diagonalization in iterative solution of the eigenvalue problem:
     a serial algorithm will be used


     Parallelization info
     --------------------
     sticks:   dense  smooth     PW     G-vecs:    dense   smooth      PW
     Min          50      50     16                  527      527      91
     Max          51      51     18                  528      528      92
     Sum         253     253     85                 2637     2637     459



     bravais-lattice index     =            2
     lattice parameter (alat)  =       7.7200  a.u.
     unit-cell volume          =     115.0249 (a.u.)^3
     number of atoms/cell      =            1
     number of atomic types    =            1
     number of electrons       =        11.00
     number of Kohn-Sham states=           10
     kinetic-energy cutoff     =      30.0000  Ry
     charge density cutoff     =     120.0000  Ry
     convergence threshold     =      1.0E-08
     mixing beta               =       0.7000
     number of iterations used =            8  plain     mixing
     Exchange-correlation      = SLA PW PBX PBC ( 1  4  3  4 0 0)

     celldm(1)=   7.720000  celldm(2)=   0.000000  celldm(3)=   0.000000
     celldm(4)=   0.000000  celldm(5)=   0.000000  celldm(6)=   0.000000

     crystal axes: (cart. coord. in units of alat)
               a(1) = (  -0.500000   0.000000   0.500000 )  
               a(2) = (   0.000000   0.500000   0.500000 )  
               a(3) = (  -0.500000   0.500000   0.000000 )  

     reciprocal axes: (cart. coord. in units 2 pi/alat)
               b(1) = ( -1.000000 -1.000000  1.000000 )  
               b(2) = (  1.000000  1.000000  1.000000 )  
               b(3) = ( -1.000000  1.000000 -1.000000 )  


     PseudoPot. # 1 for Ag read from file:
     /home/lorenzo/pseudos/Ag/Ag.pbe-n-kjpaw_psl.1.0.0.UPF
     MD5 check sum: 51099775af2a3182a6a1caffb86952a3
     Pseudo is Projector augmented-wave + core cor, Zval = 11.0
     Generated using "atomic" code by A. Dal Corso v.6.2.2
     Shape of augmentation charge: PSQ
     Using radial grid of 1237 points,  6 beta functions with: 
                l(1) =   0
                l(2) =   0
                l(3) =   1
                l(4) =   1
                l(5) =   2
                l(6) =   2
     Q(r) pseudized with 0 coefficients 


     atomic species   valence    mass     pseudopotential
        Ag            11.00   107.86820     Ag( 1.00)

     48 Sym. Ops., with inversion, found



   Cartesian axes

     site n.     atom                  positions (alat units)
         1           Ag  tau(   1) = (   0.0000000   0.0000000   0.0000000  )

     number of k points=     4  gaussian smearing, width (Ry)=  0.0100
                       cart. coord. in units 2pi/alat
        k(    1) = (   0.0000000   0.0000000   0.0000000), wk =   0.0740741
        k(    2) = (  -0.3333333   0.3333333  -0.3333333), wk =   0.5925926
        k(    3) = (   0.0000000   0.6666667   0.0000000), wk =   0.4444444
        k(    4) = (   0.6666667  -0.0000000   0.6666667), wk =   0.8888889

     Dense  grid:     2637 G-vectors     FFT dimensions: (  20,  20,  20)

     Estimated max dynamical RAM per process >       3.09 MB

     Estimated total dynamical RAM >      15.47 MB

     Initial potential from superposition of free atoms

     starting charge   10.99960, renormalised to   11.00000
     Starting wfcs are    9 randomized atomic wfcs +    1 random wfcs
     Checking if some PAW data can be deallocated... 

     total cpu time spent up to now is        1.1 secs

     Self-consistent Calculation

     iteration #  1     ecut=    30.00 Ry     beta= 0.70
     Davidson diagonalization with overlap
     ethr =  1.00E-02,  avg # of iterations =  5.0

     Threshold (ethr) on eigenvalues was too large:
     Diagonalizing with lowered threshold

     Davidson diagonalization with overlap
     ethr =  1.05E-04,  avg # of iterations =  1.2

     total cpu time spent up to now is        1.3 secs

     total energy              =    -355.22384261 Ry
     Harris-Foulkes estimate   =    -355.23186919 Ry
     estimated scf accuracy    <       0.01220788 Ry

     iteration #  2     ecut=    30.00 Ry     beta= 0.70
     Davidson diagonalization with overlap
     ethr =  1.11E-04,  avg # of iterations =  2.0

     total cpu time spent up to now is        1.4 secs

     total energy              =    -355.22834671 Ry
     Harris-Foulkes estimate   =    -355.23260270 Ry
     estimated scf accuracy    <       0.00945091 Ry

     iteration #  3     ecut=    30.00 Ry     beta= 0.70
     Davidson diagonalization with overlap
     ethr =  8.59E-05,  avg # of iterations =  2.2

     total cpu time spent up to now is        1.5 secs

     total energy              =    -355.23000074 Ry
     Harris-Foulkes estimate   =    -355.22991104 Ry
     estimated scf accuracy    <       0.00006932 Ry

     iteration #  4     ecut=    30.00 Ry     beta= 0.70
     Davidson diagonalization with overlap
     ethr =  6.30E-07,  avg # of iterations =  3.8

     total cpu time spent up to now is        1.7 secs

     total energy              =    -355.23003664 Ry
     Harris-Foulkes estimate   =    -355.23003664 Ry
     estimated scf accuracy    <       0.00000306 Ry

     iteration #  5     ecut=    30.00 Ry     beta= 0.70
     Davidson diagonalization with overlap
     ethr =  2.78E-08,  avg # of iterations =  1.5

     total cpu time spent up to now is        1.8 secs

     total energy              =    -355.23003751 Ry
     Harris-Foulkes estimate   =    -355.23003671 Ry
     estimated scf accuracy    <       0.00000322 Ry

     iteration #  6     ecut=    30.00 Ry     beta= 0.70
     Davidson diagonalization with overlap
     ethr =  2.78E-08,  avg # of iterations =  2.8

     total cpu time spent up to now is        1.9 secs

     total energy              =    -355.23003731 Ry
     Harris-Foulkes estimate   =    -355.23004710 Ry
     estimated scf accuracy    <       0.00003479 Ry

     iteration #  7     ecut=    30.00 Ry     beta= 0.70
     Davidson diagonalization with overlap
     ethr =  2.78E-08,  avg # of iterations =  2.0

     total cpu time spent up to now is        2.1 secs

     total energy              =    -355.23003747 Ry
     Harris-Foulkes estimate   =    -355.23003899 Ry
     estimated scf accuracy    <       0.00000884 Ry

     iteration #  8     ecut=    30.00 Ry     beta= 0.70
     Davidson diagonalization with overlap
     ethr =  2.78E-08,  avg # of iterations =  1.0

     total cpu time spent up to now is        2.2 secs

     total energy              =    -355.23003638 Ry
     Harris-Foulkes estimate   =    -355.23003763 Ry
     estimated scf accuracy    <       0.00000444 Ry

     iteration #  9     ecut=    30.00 Ry     beta= 0.70
     Davidson diagonalization with overlap
     ethr =  2.78E-08,  avg # of iterations =  1.0

     total cpu time spent up to now is        2.4 secs

     total energy              =    -355.23003640 Ry
     Harris-Foulkes estimate   =    -355.23003661 Ry
     estimated scf accuracy    <       0.00000107 Ry

     iteration # 10     ecut=    30.00 Ry     beta= 0.70
     Davidson diagonalization with overlap
     ethr =  9.75E-09,  avg # of iterations =  1.0

     total cpu time spent up to now is        2.5 secs

     total energy              =    -355.23003638 Ry
     Harris-Foulkes estimate   =    -355.23003643 Ry
     estimated scf accuracy    <       0.00000046 Ry

     iteration # 11     ecut=    30.00 Ry     beta= 0.70
     Davidson diagonalization with overlap
     ethr =  4.14E-09,  avg # of iterations =  1.5

     total cpu time spent up to now is        2.6 secs

     total energy              =    -355.23003647 Ry
     Harris-Foulkes estimate   =    -355.23003639 Ry
     estimated scf accuracy    <       0.00000031 Ry

     iteration # 12     ecut=    30.00 Ry     beta= 0.70
     Davidson diagonalization with overlap
     ethr =  2.80E-09,  avg # of iterations =  1.0

     total cpu time spent up to now is        2.8 secs

     total energy              =    -355.23003616 Ry
     Harris-Foulkes estimate   =    -355.23003648 Ry
     estimated scf accuracy    <       0.00000061 Ry

     iteration # 13     ecut=    30.00 Ry     beta= 0.70
     Davidson diagonalization with overlap
     ethr =  2.80E-09,  avg # of iterations =  2.0

     total cpu time spent up to now is        2.9 secs

     End of self-consistent calculation

          k = 0.0000 0.0000 0.0000 (   331 PWs)   bands (ev):

     5.0617   7.9844   7.9844   7.9844   9.0059   9.0059  29.8208  33.0780
    33.0780  33.0780

          k =-0.3333 0.3333-0.3333 (   308 PWs)   bands (ev):

     6.5566   8.1576   8.1576   9.5080   9.5737   9.5737  20.8486  29.5875
    31.9598  31.9598

          k = 0.0000 0.6667 0.0000 (   323 PWs)   bands (ev):

     6.7640   6.8594   9.4316   9.4316   9.6182  10.6448  25.1678  25.5883
    25.5883  29.9501

          k = 0.6667-0.0000 0.6667 (   323 PWs)   bands (ev):

     7.0579   7.6634   8.2635   9.0294   9.5893  16.0173  18.6795  20.4110
    27.1915  29.8688

     the Fermi energy is    10.7097 ev

!    total energy              =    -355.23003630 Ry
     Harris-Foulkes estimate   =    -355.23003631 Ry
     estimated scf accuracy    <          4.5E-09 Ry

     total all-electron energy =    -10632.196090 Ry

     The total energy is the sum of the following terms:

     one-electron contribution =       1.67423614 Ry
     hartree contribution      =      14.54871916 Ry
     xc contribution           =     -22.33320315 Ry
     ewald contribution        =     -71.86118020 Ry
     one-center paw contrib.   =    -277.25760957 Ry
     smearing contrib. (-TS)   =      -0.00099868 Ry

     convergence has been achieved in  13 iterations

     Forces acting on atoms (cartesian axes, Ry/au):

     atom    1 type  1   force =     0.00000000    0.00000000    0.00000000

     Total force =     0.000000     Total SCF correction =     0.000000


     Computing stress (Cartesian axis) and pressure

          total   stress  (Ry/bohr**3)                   (kbar)     P= -858.96
  -0.00583908   0.00000000   0.00000000       -858.96      0.00      0.00
   0.00000000  -0.00583908   0.00000000          0.00   -858.96      0.00
   0.00000000   0.00000000  -0.00583908          0.00      0.00   -858.96


     Writing output data file Ag.save/

     init_run     :      0.24s CPU      0.26s WALL (       1 calls)
     electrons    :      1.60s CPU      1.80s WALL (       1 calls)
     forces       :      0.01s CPU      0.01s WALL (       1 calls)
     stress       :      0.04s CPU      0.04s WALL (       1 calls)

     Called by init_run:
     wfcinit      :      0.01s CPU      0.01s WALL (       1 calls)
     potinit      :      0.11s CPU      0.13s WALL (       1 calls)
     hinit0       :      0.11s CPU      0.11s WALL (       1 calls)

     Called by electrons:
     c_bands      :      0.21s CPU      0.22s WALL (      14 calls)
     sum_band     :      0.08s CPU      0.09s WALL (      14 calls)
     v_of_rho     :      0.02s CPU      0.03s WALL (      14 calls)
     newd         :      0.04s CPU      0.04s WALL (      14 calls)
     PAW_pot      :      1.34s CPU      1.54s WALL (      14 calls)
     mix_rho      :      0.01s CPU      0.01s WALL (      14 calls)

     Called by c_bands:
     init_us_2    :      0.01s CPU      0.01s WALL (     124 calls)
     cegterg      :      0.20s CPU      0.21s WALL (      56 calls)

     Called by sum_band:
     sum_band:bec :      0.00s CPU      0.00s WALL (      56 calls)
     addusdens    :      0.03s CPU      0.03s WALL (      14 calls)

     Called by *egterg:
     h_psi        :      0.14s CPU      0.16s WALL (     172 calls)
     s_psi        :      0.00s CPU      0.00s WALL (     172 calls)
     g_psi        :      0.00s CPU      0.00s WALL (     112 calls)
     cdiaghg      :      0.03s CPU      0.03s WALL (     164 calls)

     Called by h_psi:
     h_psi:pot    :      0.14s CPU      0.16s WALL (     172 calls)
     h_psi:calbec :      0.01s CPU      0.01s WALL (     172 calls)
     vloc_psi     :      0.13s CPU      0.14s WALL (     172 calls)
     add_vuspsi   :      0.00s CPU      0.00s WALL (     172 calls)

     General routines
     calbec       :      0.01s CPU      0.01s WALL (     248 calls)
     fft          :      0.02s CPU      0.02s WALL (     181 calls)
     ffts         :      0.00s CPU      0.00s WALL (      14 calls)
     fftw         :      0.14s CPU      0.15s WALL (    3248 calls)

     Parallel routines
     fft_scatt_xy :      0.01s CPU      0.01s WALL (    3443 calls)
     fft_scatt_yz :      0.06s CPU      0.06s WALL (    3443 calls)

     PWSCF        :     2.74s CPU         2.98s WALL


   This run was terminated on:   0:12:41  27Mar2024            

=------------------------------------------------------------------------------=
   JOB DONE.
=------------------------------------------------------------------------------=
