
     Program PWSCF v.6.3MaX starts on 27Mar2024 at  0: 5:29 

     This program is part of the open-source Quantum ESPRESSO suite
     for quantum simulation of materials; please cite
         "P. Giannozzi et al., J. Phys.:Condens. Matter 21 395502 (2009);
         "P. Giannozzi et al., J. Phys.:Condens. Matter 29 465901 (2017);
          URL http://www.quantum-espresso.org", 
     in publications or presentations arising from this work. More details at
     http://www.quantum-espresso.org/quote

     Parallel version (MPI), running on     5 processors

     MPI processes distributed on     1 nodes
     R & G space division:  proc/nbgrp/npool/nimage =       5
     Waiting for input...
     Reading input from standard input

     Current dimensions of program PWSCF are:
     Max number of different atomic species (ntypx) = 10
     Max number of k-points (npk) =  40000
     Max angular momentum in pseudopotentials (lmaxx) =  3

     Subspace diagonalization in iterative solution of the eigenvalue problem:
     a serial algorithm will be used


     Parallelization info
     --------------------
     sticks:   dense  smooth     PW     G-vecs:    dense   smooth      PW
     Min          17      17      7                  106      106      27
     Max          17      17      8                  107      107      28
     Sum          85      85     37                  531      531     137



     bravais-lattice index     =            2
     lattice parameter (alat)  =       7.7200  a.u.
     unit-cell volume          =     115.0249 (a.u.)^3
     number of atoms/cell      =            1
     number of atomic types    =            1
     number of electrons       =        11.00
     number of Kohn-Sham states=           10
     kinetic-energy cutoff     =      10.0000  Ry
     charge density cutoff     =      40.0000  Ry
     convergence threshold     =      1.0E-08
     mixing beta               =       0.7000
     number of iterations used =            8  plain     mixing
     Exchange-correlation      = PBE ( 1  4  3  4 0 0)

     celldm(1)=   7.720000  celldm(2)=   0.000000  celldm(3)=   0.000000
     celldm(4)=   0.000000  celldm(5)=   0.000000  celldm(6)=   0.000000

     crystal axes: (cart. coord. in units of alat)
               a(1) = (  -0.500000   0.000000   0.500000 )  
               a(2) = (   0.000000   0.500000   0.500000 )  
               a(3) = (  -0.500000   0.500000   0.000000 )  

     reciprocal axes: (cart. coord. in units 2 pi/alat)
               b(1) = ( -1.000000 -1.000000  1.000000 )  
               b(2) = (  1.000000  1.000000  1.000000 )  
               b(3) = ( -1.000000  1.000000 -1.000000 )  


     PseudoPot. # 1 for Ag read from file:
     /home/lorenzo/pseudos/Ag/Ag.pbe-n-rrkjus_psl.1.0.0.UPF
     MD5 check sum: d841cbfac2b0861aec33b46768a516bf
     Pseudo is Ultrasoft + core correction, Zval = 11.0
     Generated using "atomic" code by A. Dal Corso v.6.2.2
     Using radial grid of 1237 points,  6 beta functions with: 
                l(1) =   0
                l(2) =   0
                l(3) =   1
                l(4) =   1
                l(5) =   2
                l(6) =   2
     Q(r) pseudized with 0 coefficients 


     atomic species   valence    mass     pseudopotential
        Ag            11.00   107.86820     Ag( 1.00)

     48 Sym. Ops., with inversion, found



   Cartesian axes

     site n.     atom                  positions (alat units)
         1           Ag  tau(   1) = (   0.0000000   0.0000000   0.0000000  )

     number of k points=    20  gaussian smearing, width (Ry)=  0.0100
                       cart. coord. in units 2pi/alat
        k(    1) = (   0.0000000   0.0000000   0.0000000), wk =   0.0058309
        k(    2) = (  -0.1428571   0.1428571  -0.1428571), wk =   0.0466472
        k(    3) = (  -0.2857143   0.2857143  -0.2857143), wk =   0.0466472
        k(    4) = (  -0.4285714   0.4285714  -0.4285714), wk =   0.0466472
        k(    5) = (   0.0000000   0.2857143   0.0000000), wk =   0.0349854
        k(    6) = (  -0.1428571   0.4285714  -0.1428571), wk =   0.1399417
        k(    7) = (  -0.2857143   0.5714286  -0.2857143), wk =   0.1399417
        k(    8) = (   0.5714286  -0.2857143   0.5714286), wk =   0.1399417
        k(    9) = (   0.4285714  -0.1428571   0.4285714), wk =   0.1399417
        k(   10) = (   0.2857143  -0.0000000   0.2857143), wk =   0.0699708
        k(   11) = (   0.0000000   0.5714286   0.0000000), wk =   0.0349854
        k(   12) = (  -0.1428571   0.7142857  -0.1428571), wk =   0.1399417
        k(   13) = (   0.7142857  -0.1428571   0.7142857), wk =   0.1399417
        k(   14) = (   0.5714286   0.0000000   0.5714286), wk =   0.0699708
        k(   15) = (   0.0000000   0.8571429   0.0000000), wk =   0.0349854
        k(   16) = (   0.8571429  -0.0000000   0.8571429), wk =   0.0699708
        k(   17) = (  -0.2857143   0.5714286   0.0000000), wk =   0.1399417
        k(   18) = (   0.5714286  -0.2857143   0.8571429), wk =   0.2798834
        k(   19) = (   0.7142857  -0.1428571   1.0000000), wk =   0.1399417
        k(   20) = (   0.5714286   0.0000000   0.8571429), wk =   0.1399417

     Dense  grid:      531 G-vectors     FFT dimensions: (  12,  12,  12)

     Estimated max dynamical RAM per process >       1.07 MB

     Estimated total dynamical RAM >       5.35 MB

     Initial potential from superposition of free atoms
     Check: negative starting charge=   -0.000240

     starting charge   10.99960, renormalised to   11.00000

     negative rho (up, down):  2.404E-04 0.000E+00
     Starting wfcs are    9 randomized atomic wfcs +    1 random wfcs

     total cpu time spent up to now is        0.9 secs

     Self-consistent Calculation

     iteration #  1     ecut=    10.00 Ry     beta= 0.70
     Davidson diagonalization with overlap
     ethr =  1.00E-02,  avg # of iterations =  4.2

     total cpu time spent up to now is        1.0 secs

     total energy              =     -69.25962749 Ry
     Harris-Foulkes estimate   =     -77.31705501 Ry
     estimated scf accuracy    <      10.38829012 Ry

     iteration #  2     ecut=    10.00 Ry     beta= 0.70
     Davidson diagonalization with overlap
     ethr =  1.00E-02,  avg # of iterations =  3.0

     total cpu time spent up to now is        1.1 secs

     total energy              =     -71.66511855 Ry
     Harris-Foulkes estimate   =     -71.73801255 Ry
     estimated scf accuracy    <       0.45905874 Ry

     iteration #  3     ecut=    10.00 Ry     beta= 0.70
     Davidson diagonalization with overlap
     ethr =  4.17E-03,  avg # of iterations =  1.0

     total cpu time spent up to now is        1.1 secs

     total energy              =     -71.68357582 Ry
     Harris-Foulkes estimate   =     -71.68047591 Ry
     estimated scf accuracy    <       0.03605164 Ry

     iteration #  4     ecut=    10.00 Ry     beta= 0.70
     Davidson diagonalization with overlap
     ethr =  3.28E-04,  avg # of iterations =  1.0

     total cpu time spent up to now is        1.2 secs

     total energy              =     -71.68423369 Ry
     Harris-Foulkes estimate   =     -71.68425976 Ry
     estimated scf accuracy    <       0.00005424 Ry

     iteration #  5     ecut=    10.00 Ry     beta= 0.70
     Davidson diagonalization with overlap
     ethr =  4.93E-07,  avg # of iterations =  4.0

     total cpu time spent up to now is        1.3 secs

     total energy              =     -71.68448030 Ry
     Harris-Foulkes estimate   =     -71.68448304 Ry
     estimated scf accuracy    <       0.00000445 Ry

     iteration #  6     ecut=    10.00 Ry     beta= 0.70
     Davidson diagonalization with overlap
     ethr =  4.04E-08,  avg # of iterations =  1.8

     total cpu time spent up to now is        1.3 secs

     total energy              =     -71.68448072 Ry
     Harris-Foulkes estimate   =     -71.68448080 Ry
     estimated scf accuracy    <       0.00000023 Ry

     iteration #  7     ecut=    10.00 Ry     beta= 0.70
     Davidson diagonalization with overlap
     ethr =  2.10E-09,  avg # of iterations =  2.9

     total cpu time spent up to now is        1.4 secs

     total energy              =     -71.68448077 Ry
     Harris-Foulkes estimate   =     -71.68448079 Ry
     estimated scf accuracy    <       0.00000004 Ry

     iteration #  8     ecut=    10.00 Ry     beta= 0.70
     Davidson diagonalization with overlap
     ethr =  3.26E-10,  avg # of iterations =  2.7

     total cpu time spent up to now is        1.4 secs

     End of self-consistent calculation

          k = 0.0000 0.0000 0.0000 (    59 PWs)   bands (ev):

     2.5458  10.7204  10.7204  10.7204  14.4443  14.4443  28.1940  28.1940
    28.1940  33.2909

          k =-0.1429 0.1429-0.1429 (    62 PWs)   bands (ev):

     3.1176  10.5248  10.9131  10.9131  11.9201  11.9201  25.6978  27.9373
    27.9373  34.1944

          k =-0.2857 0.2857-0.2857 (    61 PWs)   bands (ev):

     4.6844  10.7700  10.7700  11.4438  13.1245  13.1245  21.6224  27.2173
    27.2173  34.0575

          k =-0.4286 0.4286-0.4286 (    61 PWs)   bands (ev):

     6.3525  11.0003  11.0003  11.5217  14.7038  14.7038  17.0665  25.9332
    25.9332  32.6554

          k = 0.0000 0.2857 0.0000 (    60 PWs)   bands (ev):

     3.3238  10.4297  11.2642  11.2642  12.0160  14.8599  26.2654  27.1895
    27.1895  34.5701

          k =-0.1429 0.4286-0.1429 (    62 PWs)   bands (ev):

     4.5803  10.1502  10.7173  11.2485  12.2764  13.4639  22.4936  26.1837
    26.8258  34.9215

          k =-0.2857 0.5714-0.2857 (    67 PWs)   bands (ev):

     6.2592   8.9551   9.3936  10.3270  11.4928  12.6830  16.8457  24.5800
    25.2647  33.5712

          k = 0.5714-0.2857 0.5714 (    63 PWs)   bands (ev):

     7.1868  10.2718  10.4876  10.8413  12.6970  15.1994  16.4311  24.1458
    25.0492  33.3503

          k = 0.4286-0.1429 0.4286 (    59 PWs)   bands (ev):

     5.8096  11.3399  11.5605  11.7328  13.9436  15.9953  19.4175  25.1110
    27.1753  34.3564

          k = 0.2857-0.0000 0.2857 (    61 PWs)   bands (ev):

     4.0506  10.3436  11.2652  11.2834  11.6832  14.2224  23.4603  26.2592
    28.0910  35.7608

          k = 0.0000 0.5714 0.0000 (    60 PWs)   bands (ev):

     5.5136   9.9123  10.9255  12.8611  12.8611  16.0076  22.0192  24.8043
    24.8043  35.1794

          k =-0.1429 0.7143-0.1429 (    59 PWs)   bands (ev):

     7.1697  10.1213  12.4753  13.6149  14.3792  15.5988  17.6309  23.1199
    23.8490  36.5869

          k = 0.7143-0.1429 0.7143 (    60 PWs)   bands (ev):

     8.5522  10.1077  11.7282  13.1023  14.3241  14.4770  17.3221  22.6425
    23.5340  36.0030

          k = 0.5714 0.0000 0.5714 (    63 PWs)   bands (ev):

     7.5290   9.7169  10.4009  11.5752  13.1577  14.2994  18.9943  20.6950
    25.4512  35.0488

          k = 0.0000 0.8571 0.0000 (    64 PWs)   bands (ev):

     8.1112   9.3195  12.2384  12.2384  12.5459  13.7366  16.3850  20.7489
    20.7489  37.0688

          k = 0.8571-0.0000 0.8571 (    60 PWs)   bands (ev):

     8.9716  10.3046  12.2579  13.2071  14.4466  15.2297  17.4281  20.6194
    21.3263  37.5508

          k =-0.2857 0.5714 0.0000 (    60 PWs)   bands (ev):

     6.0344  10.7321  10.8035  13.0511  13.8609  14.4823  19.4369  24.4072
    26.0696  35.1784

          k = 0.5714-0.2857 0.8571 (    61 PWs)   bands (ev):

     7.8016   9.9020  11.2710  12.5387  13.9815  14.5548  17.6336  22.5989
    24.5120  35.4682

          k = 0.7143-0.1429 1.0000 (    58 PWs)   bands (ev):

     8.7218  10.3010  12.2805  13.9659  14.6475  15.4378  19.0294  20.5088
    23.3720  37.7027

          k = 0.5714 0.0000 0.8571 (    63 PWs)   bands (ev):

     9.4283   9.9059  10.3377  11.5846  13.3517  13.8793  18.2204  19.2531
    23.2377  37.3955

     the Fermi energy is    14.6006 ev

!    total energy              =     -71.68448078 Ry
     Harris-Foulkes estimate   =     -71.68448078 Ry
     estimated scf accuracy    <          6.6E-09 Ry

     The total energy is the sum of the following terms:

     one-electron contribution =      15.13958510 Ry
     hartree contribution      =       4.24734424 Ry
     xc contribution           =     -19.20856592 Ry
     ewald contribution        =     -71.86118018 Ry
     smearing contrib. (-TS)   =      -0.00166402 Ry

     convergence has been achieved in   8 iterations

     Forces acting on atoms (cartesian axes, Ry/au):

     atom    1 type  1   force =     0.00000000    0.00000000    0.00000000

     Total force =     0.000000     Total SCF correction =     0.000000


     Computing stress (Cartesian axis) and pressure

          total   stress  (Ry/bohr**3)                   (kbar)     P=********
  -0.10723002  -0.00000000  -0.00000000     -15774.08     -0.00     -0.00
  -0.00000000  -0.10723002   0.00000000         -0.00 -15774.08      0.00
  -0.00000000   0.00000000  -0.10723002         -0.00      0.00 -15774.08


     Writing output data file Ag.save/

     init_run     :      0.09s CPU      0.10s WALL (       1 calls)
     electrons    :      0.44s CPU      0.52s WALL (       1 calls)
     forces       :      0.01s CPU      0.01s WALL (       1 calls)
     stress       :      0.01s CPU      0.01s WALL (       1 calls)

     Called by init_run:
     wfcinit      :      0.01s CPU      0.01s WALL (       1 calls)
     potinit      :      0.00s CPU      0.00s WALL (       1 calls)
     hinit0       :      0.08s CPU      0.08s WALL (       1 calls)

     Called by electrons:
     c_bands      :      0.38s CPU      0.45s WALL (       8 calls)
     sum_band     :      0.05s CPU      0.06s WALL (       8 calls)
     v_of_rho     :      0.00s CPU      0.00s WALL (       9 calls)
     newd         :      0.00s CPU      0.00s WALL (       9 calls)
     mix_rho      :      0.00s CPU      0.00s WALL (       8 calls)

     Called by c_bands:
     init_us_2    :      0.01s CPU      0.01s WALL (     380 calls)
     cegterg      :      0.36s CPU      0.43s WALL (     160 calls)

     Called by sum_band:
     sum_band:bec :      0.00s CPU      0.00s WALL (     160 calls)
     addusdens    :      0.00s CPU      0.00s WALL (       8 calls)

     Called by *egterg:
     h_psi        :      0.20s CPU      0.24s WALL (     593 calls)
     s_psi        :      0.01s CPU      0.01s WALL (     593 calls)
     g_psi        :      0.00s CPU      0.00s WALL (     413 calls)
     cdiaghg      :      0.11s CPU      0.13s WALL (     573 calls)

     Called by h_psi:
     h_psi:pot    :      0.20s CPU      0.24s WALL (     593 calls)
     h_psi:calbec :      0.02s CPU      0.02s WALL (     593 calls)
     vloc_psi     :      0.18s CPU      0.21s WALL (     593 calls)
     add_vuspsi   :      0.01s CPU      0.01s WALL (     593 calls)

     General routines
     calbec       :      0.02s CPU      0.03s WALL (     853 calls)
     fft          :      0.00s CPU      0.00s WALL (     125 calls)
     ffts         :      0.00s CPU      0.00s WALL (       8 calls)
     fftw         :      0.19s CPU      0.22s WALL (   10402 calls)

     Parallel routines
     fft_scatt_xy :      0.02s CPU      0.02s WALL (   10535 calls)
     fft_scatt_yz :      0.10s CPU      0.11s WALL (   10535 calls)

     PWSCF        :     1.37s CPU         1.51s WALL


   This run was terminated on:   0: 5:30  27Mar2024            

=------------------------------------------------------------------------------=
   JOB DONE.
=------------------------------------------------------------------------------=
