
     Program PWSCF v.6.3MaX starts on 27Mar2024 at  0:36:10 

     This program is part of the open-source Quantum ESPRESSO suite
     for quantum simulation of materials; please cite
         "P. Giannozzi et al., J. Phys.:Condens. Matter 21 395502 (2009);
         "P. Giannozzi et al., J. Phys.:Condens. Matter 29 465901 (2017);
          URL http://www.quantum-espresso.org", 
     in publications or presentations arising from this work. More details at
     http://www.quantum-espresso.org/quote

     Parallel version (MPI), running on     5 processors

     MPI processes distributed on     1 nodes
     R & G space division:  proc/nbgrp/npool/nimage =       5
     Waiting for input...
     Reading input from standard input

     Current dimensions of program PWSCF are:
     Max number of different atomic species (ntypx) = 10
     Max number of k-points (npk) =  40000
     Max angular momentum in pseudopotentials (lmaxx) =  3

     Subspace diagonalization in iterative solution of the eigenvalue problem:
     a serial algorithm will be used


     Parallelization info
     --------------------
     sticks:   dense  smooth     PW     G-vecs:    dense   smooth      PW
     Min         131     131     39                 2222     2222     381
     Max         134     134     40                 2223     2223     384
     Sum         661     661    199                11113    11113    1917



     bravais-lattice index     =            2
     lattice parameter (alat)  =       7.7200  a.u.
     unit-cell volume          =     115.0249 (a.u.)^3
     number of atoms/cell      =            1
     number of atomic types    =            1
     number of electrons       =        11.00
     number of Kohn-Sham states=           10
     kinetic-energy cutoff     =      80.0000  Ry
     charge density cutoff     =     320.0000  Ry
     convergence threshold     =      1.0E-08
     mixing beta               =       0.7000
     number of iterations used =            8  plain     mixing
     Exchange-correlation      = PBESOL ( 1  4 10  8 0 0)

     celldm(1)=   7.720000  celldm(2)=   0.000000  celldm(3)=   0.000000
     celldm(4)=   0.000000  celldm(5)=   0.000000  celldm(6)=   0.000000

     crystal axes: (cart. coord. in units of alat)
               a(1) = (  -0.500000   0.000000   0.500000 )  
               a(2) = (   0.000000   0.500000   0.500000 )  
               a(3) = (  -0.500000   0.500000   0.000000 )  

     reciprocal axes: (cart. coord. in units 2 pi/alat)
               b(1) = ( -1.000000 -1.000000  1.000000 )  
               b(2) = (  1.000000  1.000000  1.000000 )  
               b(3) = ( -1.000000  1.000000 -1.000000 )  


     PseudoPot. # 1 for Ag read from file:
     /home/lorenzo/pseudos/Ag/Ag.pbesol-n-rrkjus_psl.1.0.0.UPF
     MD5 check sum: 3b43e8aa747a56f565f44d11355b8b45
     Pseudo is Ultrasoft + core correction, Zval = 11.0
     Generated using "atomic" code by A. Dal Corso v.6.2.2
     Using radial grid of 1237 points,  6 beta functions with: 
                l(1) =   0
                l(2) =   0
                l(3) =   1
                l(4) =   1
                l(5) =   2
                l(6) =   2
     Q(r) pseudized with 0 coefficients 


     atomic species   valence    mass     pseudopotential
        Ag            11.00   107.86820     Ag( 1.00)

     48 Sym. Ops., with inversion, found



   Cartesian axes

     site n.     atom                  positions (alat units)
         1           Ag  tau(   1) = (   0.0000000   0.0000000   0.0000000  )

     number of k points=    47  gaussian smearing, width (Ry)=  0.0100
                       cart. coord. in units 2pi/alat
        k(    1) = (   0.0000000   0.0000000   0.0000000), wk =   0.0020000
        k(    2) = (  -0.1000000   0.1000000  -0.1000000), wk =   0.0160000
        k(    3) = (  -0.2000000   0.2000000  -0.2000000), wk =   0.0160000
        k(    4) = (  -0.3000000   0.3000000  -0.3000000), wk =   0.0160000
        k(    5) = (  -0.4000000   0.4000000  -0.4000000), wk =   0.0160000
        k(    6) = (   0.5000000  -0.5000000   0.5000000), wk =   0.0080000
        k(    7) = (   0.0000000   0.2000000   0.0000000), wk =   0.0120000
        k(    8) = (  -0.1000000   0.3000000  -0.1000000), wk =   0.0480000
        k(    9) = (  -0.2000000   0.4000000  -0.2000000), wk =   0.0480000
        k(   10) = (  -0.3000000   0.5000000  -0.3000000), wk =   0.0480000
        k(   11) = (   0.6000000  -0.4000000   0.6000000), wk =   0.0480000
        k(   12) = (   0.5000000  -0.3000000   0.5000000), wk =   0.0480000
        k(   13) = (   0.4000000  -0.2000000   0.4000000), wk =   0.0480000
        k(   14) = (   0.3000000  -0.1000000   0.3000000), wk =   0.0480000
        k(   15) = (   0.2000000   0.0000000   0.2000000), wk =   0.0240000
        k(   16) = (   0.0000000   0.4000000   0.0000000), wk =   0.0120000
        k(   17) = (  -0.1000000   0.5000000  -0.1000000), wk =   0.0480000
        k(   18) = (  -0.2000000   0.6000000  -0.2000000), wk =   0.0480000
        k(   19) = (   0.7000000  -0.3000000   0.7000000), wk =   0.0480000
        k(   20) = (   0.6000000  -0.2000000   0.6000000), wk =   0.0480000
        k(   21) = (   0.5000000  -0.1000000   0.5000000), wk =   0.0480000
        k(   22) = (   0.4000000   0.0000000   0.4000000), wk =   0.0240000
        k(   23) = (   0.0000000   0.6000000   0.0000000), wk =   0.0120000
        k(   24) = (  -0.1000000   0.7000000  -0.1000000), wk =   0.0480000
        k(   25) = (   0.8000000  -0.2000000   0.8000000), wk =   0.0480000
        k(   26) = (   0.7000000  -0.1000000   0.7000000), wk =   0.0480000
        k(   27) = (   0.6000000  -0.0000000   0.6000000), wk =   0.0240000
        k(   28) = (   0.0000000   0.8000000   0.0000000), wk =   0.0120000
        k(   29) = (   0.9000000  -0.1000000   0.9000000), wk =   0.0480000
        k(   30) = (   0.8000000   0.0000000   0.8000000), wk =   0.0240000
        k(   31) = (   0.0000000  -1.0000000   0.0000000), wk =   0.0060000
        k(   32) = (  -0.2000000   0.4000000   0.0000000), wk =   0.0480000
        k(   33) = (  -0.3000000   0.5000000  -0.1000000), wk =   0.0960000
        k(   34) = (   0.6000000  -0.4000000   0.8000000), wk =   0.0960000
        k(   35) = (   0.5000000  -0.3000000   0.7000000), wk =   0.0480000
        k(   36) = (  -0.2000000   0.6000000   0.0000000), wk =   0.0480000
        k(   37) = (   0.7000000  -0.3000000   0.9000000), wk =   0.0960000
        k(   38) = (   0.6000000  -0.2000000   0.8000000), wk =   0.0960000
        k(   39) = (   0.5000000  -0.1000000   0.7000000), wk =   0.0960000
        k(   40) = (   0.4000000   0.0000000   0.6000000), wk =   0.0480000
        k(   41) = (   0.8000000  -0.2000000   1.0000000), wk =   0.0480000
        k(   42) = (   0.7000000  -0.1000000   0.9000000), wk =   0.0960000
        k(   43) = (   0.6000000   0.0000000   0.8000000), wk =   0.0480000
        k(   44) = (  -0.2000000  -1.0000000   0.0000000), wk =   0.0240000
        k(   45) = (   0.6000000  -0.2000000   1.0000000), wk =   0.0480000
        k(   46) = (   0.5000000  -0.1000000   0.9000000), wk =   0.0480000
        k(   47) = (  -0.4000000  -1.0000000   0.0000000), wk =   0.0240000

     Dense  grid:    11113 G-vectors     FFT dimensions: (  32,  32,  32)

     Estimated max dynamical RAM per process >      12.11 MB

     Estimated total dynamical RAM >      60.53 MB

     Initial potential from superposition of free atoms

     starting charge   10.99964, renormalised to   11.00000
     Starting wfcs are    9 randomized atomic wfcs +    1 random wfcs

     total cpu time spent up to now is        1.2 secs

     Self-consistent Calculation

     iteration #  1     ecut=    80.00 Ry     beta= 0.70
     Davidson diagonalization with overlap
     ethr =  1.00E-02,  avg # of iterations =  4.8

     Threshold (ethr) on eigenvalues was too large:
     Diagonalizing with lowered threshold

     Davidson diagonalization with overlap
     ethr =  4.12E-05,  avg # of iterations =  2.3

     total cpu time spent up to now is        2.6 secs

     total energy              =     -84.17919333 Ry
     Harris-Foulkes estimate   =     -84.18236406 Ry
     estimated scf accuracy    <       0.00490614 Ry

     iteration #  2     ecut=    80.00 Ry     beta= 0.70
     Davidson diagonalization with overlap
     ethr =  4.46E-05,  avg # of iterations =  2.1

     total cpu time spent up to now is        3.3 secs

     total energy              =     -84.18032794 Ry
     Harris-Foulkes estimate   =     -84.18218763 Ry
     estimated scf accuracy    <       0.00346947 Ry

     iteration #  3     ecut=    80.00 Ry     beta= 0.70
     Davidson diagonalization with overlap
     ethr =  3.15E-05,  avg # of iterations =  2.0

     total cpu time spent up to now is        3.9 secs

     total energy              =     -84.18109323 Ry
     Harris-Foulkes estimate   =     -84.18109532 Ry
     estimated scf accuracy    <       0.00002459 Ry

     iteration #  4     ecut=    80.00 Ry     beta= 0.70
     Davidson diagonalization with overlap
     ethr =  2.24E-07,  avg # of iterations =  2.6

     total cpu time spent up to now is        4.4 secs

     total energy              =     -84.18110117 Ry
     Harris-Foulkes estimate   =     -84.18110115 Ry
     estimated scf accuracy    <       0.00000046 Ry

     iteration #  5     ecut=    80.00 Ry     beta= 0.70
     Davidson diagonalization with overlap
     ethr =  4.14E-09,  avg # of iterations =  2.1

     total cpu time spent up to now is        5.0 secs

     total energy              =     -84.18110127 Ry
     Harris-Foulkes estimate   =     -84.18110129 Ry
     estimated scf accuracy    <       0.00000004 Ry

     iteration #  6     ecut=    80.00 Ry     beta= 0.70
     Davidson diagonalization with overlap
     ethr =  3.89E-10,  avg # of iterations =  1.9

     total cpu time spent up to now is        5.5 secs

     End of self-consistent calculation

          k = 0.0000 0.0000 0.0000 (  1411 PWs)   bands (ev):

     4.8082   7.9265   7.9265   7.9265   8.9772   8.9772  29.5450  32.8325
    32.8325  32.8325

          k =-0.1000 0.1000-0.1000 (  1393 PWs)   bands (ev):

     5.1155   7.8607   8.0092   8.0092   8.9497   8.9497  29.1922  30.7441
    32.8107  32.8107

          k =-0.2000 0.2000-0.2000 (  1387 PWs)   bands (ev):

     5.8870   7.8550   8.1338   8.1338   8.9873   8.9873  25.8244  30.2140
    32.6137  32.6137

          k =-0.3000 0.3000-0.3000 (  1387 PWs)   bands (ev):

     6.3758   8.0826   8.0826   8.7289   9.2780   9.2780  21.8895  29.5783
    32.0031  32.0031

          k =-0.4000 0.4000-0.4000 (  1392 PWs)   bands (ev):

     6.3401   7.9586   7.9586   9.6313   9.6313  10.6776  18.3005  28.8686
    31.1965  31.1965

          k = 0.5000-0.5000 0.5000 (  1404 PWs)   bands (ev):

     6.2865   7.9038   7.9038   9.7829   9.7829  12.1930  16.2602  28.5909
    30.8331  30.8331

          k = 0.0000 0.2000 0.0000 (  1399 PWs)   bands (ev):

     5.2187   7.7648   8.0797   8.0797   8.8215   9.0478  29.5592  31.4347
    31.4935  31.4936

          k =-0.1000 0.3000-0.1000 (  1392 PWs)   bands (ev):

     5.8572   7.6188   8.2239   8.2440   8.7818   9.1359  27.3470  29.9424
    30.4529  32.7100

          k =-0.2000 0.4000-0.2000 (  1381 PWs)   bands (ev):

     6.5124   7.8468   8.1016   8.2700   9.3590   9.3807  23.3788  29.4670
    29.6921  32.2319

          k =-0.3000 0.5000-0.3000 (  1390 PWs)   bands (ev):

     6.5403   7.8993   8.1577   8.6602   9.6860  10.7849  19.5978  28.7091
    29.3232  30.6116

          k = 0.6000-0.4000 0.6000 (  1401 PWs)   bands (ev):

     6.4632   7.7994   8.0595   9.1782   9.7934  12.7347  16.6423  27.9925
    29.5933  29.6574

          k = 0.5000-0.3000 0.5000 (  1397 PWs)   bands (ev):

     6.4936   7.8361   8.0574   9.1996   9.5928  12.1701  17.4548  27.5476
    29.6527  30.6998

          k = 0.4000-0.2000 0.4000 (  1391 PWs)   bands (ev):

     6.5975   7.9597   8.1607   8.5996   9.1738  10.4207  20.8323  27.5566
    30.5003  32.6375

          k = 0.3000-0.1000 0.3000 (  1379 PWs)   bands (ev):

     6.3811   7.7189   8.1932   8.2714   8.7869   9.4959  24.7129  27.9489
    31.9028  34.0678

          k = 0.2000 0.0000 0.2000 (  1391 PWs)   bands (ev):

     5.5960   7.7270   8.1321   8.1542   8.7932   9.0916  28.4922  28.6645
    32.0181  34.2579

          k = 0.0000 0.4000 0.0000 (  1375 PWs)   bands (ev):

     6.2471   7.3600   8.5141   8.5141   8.6154   9.2357  28.7785  28.7785
    29.6039  29.6754

          k =-0.1000 0.5000-0.1000 (  1382 PWs)   bands (ev):

     6.7500   7.2126   8.3410   8.6797   9.4365   9.4517  25.1965  27.6370
    28.6493  30.1627

          k =-0.2000 0.6000-0.2000 (  1403 PWs)   bands (ev):

     6.7983   7.4797   8.2016   8.6139   9.7291  11.1269  21.3239  26.9048
    27.1381  29.7264

          k = 0.7000-0.3000 0.7000 (  1398 PWs)   bands (ev):

     6.7731   7.5796   8.3755   8.4900   9.8219  13.4284  17.8728  25.3511
    27.4359  29.4456

          k = 0.6000-0.2000 0.6000 (  1389 PWs)   bands (ev):

     6.8708   7.5988   8.4201   8.4842   9.5952  14.2332  17.0399  24.2885
    28.6026  29.5196

          k = 0.5000-0.1000 0.5000 (  1389 PWs)   bands (ev):

     7.0688   7.6961   8.1952   8.4502   9.1412  12.1327  20.2631  23.8564
    30.1205  30.5266

          k = 0.4000 0.0000 0.4000 (  1384 PWs)   bands (ev):

     7.1027   7.5031   8.0806   8.5630   8.6654  10.5307  23.8945  24.1902
    31.2702  32.9233

          k = 0.0000 0.6000 0.0000 (  1383 PWs)   bands (ev):

     6.7098   6.8923   9.1352   9.1352   9.4745   9.6803  26.1111  26.1111
    26.4691  29.6695

          k =-0.1000 0.7000-0.1000 (  1392 PWs)   bands (ev):

     6.6624   6.8100   9.0313   9.2026   9.7371  11.4137  23.2472  24.3389
    25.3137  29.7332

          k = 0.8000-0.2000 0.8000 (  1390 PWs)   bands (ev):

     6.6711   7.0311   8.7209   9.0755   9.8626  13.8309  19.8118  22.5539
    25.4237  29.6043

          k = 0.7000-0.1000 0.7000 (  1397 PWs)   bands (ev):

     6.8491   7.3842   8.3263   8.9291   9.6599  16.4533  17.0569  21.2197
    26.4740  29.5630

          k = 0.6000-0.0000 0.6000 (  1392 PWs)   bands (ev):

     7.1445   7.7717   7.8520   8.7555   9.3086  14.2129  19.8023  20.7536
    28.2830  29.7344

          k = 0.0000 0.8000 0.0000 (  1391 PWs)   bands (ev):

     6.4149   6.5365   9.6734   9.7335   9.7335  12.2424  22.0033  24.1741
    24.1741  29.7278

          k = 0.9000-0.1000 0.9000 (  1382 PWs)   bands (ev):

     6.3964   6.5487   9.5771   9.5856   9.9219  14.0881  20.2478  22.1673
    23.9841  29.7409

          k = 0.8000 0.0000 0.8000 (  1384 PWs)   bands (ev):

     6.5678   6.8771   8.9762   9.3659   9.8087  16.1059  19.1223  19.8032
    24.8177  29.6509

          k = 0.0000-1.0000 0.0000 (  1362 PWs)   bands (ev):

     6.2543   6.4055   9.7509   9.9933   9.9933  14.2156  19.3825  23.4526
    23.4526  29.7509

          k =-0.2000 0.4000 0.0000 (  1379 PWs)   bands (ev):

     6.5289   7.4288   8.1636   8.5153   8.8223   9.5198  26.2969  26.5732
    31.0986  31.9763

          k =-0.3000 0.5000-0.1000 (  1389 PWs)   bands (ev):

     6.9215   7.6770   7.9171   8.5592   9.1922  10.5612  22.4777  25.9137
    29.2616  32.2566

          k = 0.6000-0.4000 0.8000 (  1396 PWs)   bands (ev):

     6.8119   7.6901   8.2553   8.5076   9.5919  12.3813  18.8313  25.8869
    27.6596  31.3744

          k = 0.5000-0.3000 0.7000 (  1396 PWs)   bands (ev):

     6.7570   7.6017   8.3271   8.6517   9.7235  14.1547  16.4548  26.4285
    26.5418  30.9736

          k =-0.2000 0.6000 0.0000 (  1387 PWs)   bands (ev):

     6.9704   7.0317   8.3105   9.1280   9.3277  10.7250  24.2897  24.5038
    26.7119  31.5314

          k = 0.7000-0.3000 0.9000 (  1389 PWs)   bands (ev):

     6.9205   7.2576   8.1583   9.0321   9.6447  12.7099  20.7022  24.1795
    24.8752  31.6156

          k = 0.6000-0.2000 0.8000 (  1393 PWs)   bands (ev):

     6.9940   7.3987   8.1290   8.8123   9.7431  15.2392  17.4580  23.3239
    24.7943  31.5558

          k = 0.5000-0.1000 0.7000 (  1391 PWs)   bands (ev):

     7.2181   7.4354   7.9664   8.7702   9.5351  14.4513  18.5737  22.3903
    25.9496  32.0221

          k = 0.4000 0.0000 0.6000 (  1388 PWs)   bands (ev):

     7.4089   7.5216   7.6279   8.8986   9.1422  12.2500  22.0646  22.1408
    27.5093  33.0698

          k = 0.8000-0.2000 1.0000 (  1390 PWs)   bands (ev):

     6.6409   6.7215   8.9326   9.5736   9.7299  13.1704  22.0644  22.8620
    23.0277  31.2495

          k = 0.7000-0.1000 0.9000 (  1392 PWs)   bands (ev):

     6.7294   6.9703   8.6021   9.2713   9.8782  15.5857  19.5947  20.7726
    23.2918  31.5025

          k = 0.6000 0.0000 0.8000 (  1390 PWs)   bands (ev):

     6.9668   7.3768   8.0980   9.0049   9.7260  16.8610  18.0755  20.0530
    24.4053  31.7203

          k =-0.2000-1.0000 0.0000 (  1380 PWs)   bands (ev):

     6.4702   6.6062   9.3053   9.5355   9.9937  15.2443  19.4379  22.2248
    22.3751  31.1641

          k = 0.6000-0.2000 1.0000 (  1382 PWs)   bands (ev):

     7.1152   7.2634   7.9231   9.1116   9.7223  14.8789  20.4754  20.9972
    23.1668  34.3689

          k = 0.5000-0.1000 0.9000 (  1400 PWs)   bands (ev):

     7.1029   7.5001   7.7486   8.9652   9.8656  17.4489  17.6308  21.2771
    22.1487  34.2874

          k =-0.4000-1.0000 0.0000 (  1396 PWs)   bands (ev):

     6.9178   7.2010   8.1524   9.0837   9.9942  17.3856  19.6221  19.8598
    21.0728  34.1874

     the Fermi energy is    12.5970 ev

!    total energy              =     -84.18110128 Ry
     Harris-Foulkes estimate   =     -84.18110128 Ry
     estimated scf accuracy    <          3.2E-10 Ry

     The total energy is the sum of the following terms:

     one-electron contribution =      -4.74151656 Ry
     hartree contribution      =      14.56354848 Ry
     xc contribution           =     -22.14174619 Ry
     ewald contribution        =     -71.86118018 Ry
     smearing contrib. (-TS)   =      -0.00020683 Ry

     convergence has been achieved in   6 iterations

     Forces acting on atoms (cartesian axes, Ry/au):

     atom    1 type  1   force =     0.00000000    0.00000000    0.00000000

     Total force =     0.000000     Total SCF correction =     0.000000


     Computing stress (Cartesian axis) and pressure

          total   stress  (Ry/bohr**3)                   (kbar)     P=  -18.93
  -0.00012871   0.00000000   0.00000000        -18.93      0.00      0.00
  -0.00000000  -0.00012871   0.00000000         -0.00    -18.93      0.00
   0.00000000   0.00000000  -0.00012871          0.00      0.00    -18.93


     Writing output data file Ag.save/

     init_run     :      0.43s CPU      0.46s WALL (       1 calls)
     electrons    :      3.93s CPU      4.30s WALL (       1 calls)
     forces       :      0.07s CPU      0.07s WALL (       1 calls)
     stress       :      0.23s CPU      0.24s WALL (       1 calls)

     Called by init_run:
     wfcinit      :      0.20s CPU      0.22s WALL (       1 calls)
     potinit      :      0.01s CPU      0.02s WALL (       1 calls)
     hinit0       :      0.20s CPU      0.20s WALL (       1 calls)

     Called by electrons:
     c_bands      :      3.19s CPU      3.50s WALL (       7 calls)
     sum_band     :      0.63s CPU      0.69s WALL (       7 calls)
     v_of_rho     :      0.04s CPU      0.05s WALL (       7 calls)
     newd         :      0.07s CPU      0.08s WALL (       7 calls)
     mix_rho      :      0.00s CPU      0.00s WALL (       7 calls)

     Called by c_bands:
     init_us_2    :      0.12s CPU      0.13s WALL (     799 calls)
     cegterg      :      3.02s CPU      3.32s WALL (     329 calls)

     Called by sum_band:
     sum_band:bec :      0.00s CPU      0.00s WALL (     329 calls)
     addusdens    :      0.07s CPU      0.08s WALL (       7 calls)

     Called by *egterg:
     h_psi        :      2.41s CPU      2.68s WALL (    1217 calls)
     s_psi        :      0.09s CPU      0.09s WALL (    1217 calls)
     g_psi        :      0.01s CPU      0.01s WALL (     841 calls)
     cdiaghg      :      0.24s CPU      0.25s WALL (    1123 calls)

     Called by h_psi:
     h_psi:pot    :      2.40s CPU      2.67s WALL (    1217 calls)
     h_psi:calbec :      0.14s CPU      0.15s WALL (    1217 calls)
     vloc_psi     :      2.17s CPU      2.41s WALL (    1217 calls)
     add_vuspsi   :      0.09s CPU      0.10s WALL (    1217 calls)

     General routines
     calbec       :      0.22s CPU      0.24s WALL (    1781 calls)
     fft          :      0.02s CPU      0.03s WALL (     104 calls)
     ffts         :      0.00s CPU      0.00s WALL (       7 calls)
     fftw         :      2.42s CPU      2.68s WALL (   20230 calls)

     Parallel routines
     fft_scatt_xy :      0.23s CPU      0.26s WALL (   20341 calls)
     fft_scatt_yz :      0.82s CPU      0.91s WALL (   20341 calls)

     PWSCF        :     5.48s CPU         5.94s WALL


   This run was terminated on:   0:36:16  27Mar2024            

=------------------------------------------------------------------------------=
   JOB DONE.
=------------------------------------------------------------------------------=
