
     Program PWSCF v.6.3MaX starts on 27Mar2024 at  0:20:15 

     This program is part of the open-source Quantum ESPRESSO suite
     for quantum simulation of materials; please cite
         "P. Giannozzi et al., J. Phys.:Condens. Matter 21 395502 (2009);
         "P. Giannozzi et al., J. Phys.:Condens. Matter 29 465901 (2017);
          URL http://www.quantum-espresso.org", 
     in publications or presentations arising from this work. More details at
     http://www.quantum-espresso.org/quote

     Parallel version (MPI), running on     5 processors

     MPI processes distributed on     1 nodes
     R & G space division:  proc/nbgrp/npool/nimage =       5
     Waiting for input...
     Reading input from standard input

     Current dimensions of program PWSCF are:
     Max number of different atomic species (ntypx) = 10
     Max number of k-points (npk) =  40000
     Max angular momentum in pseudopotentials (lmaxx) =  3
               file Ag.pbe-n-kjpaw_psl.1.0.0.UPF: wavefunction(s)  5S 5P renormalized

     Subspace diagonalization in iterative solution of the eigenvalue problem:
     a serial algorithm will be used


     Parallelization info
     --------------------
     sticks:   dense  smooth     PW     G-vecs:    dense   smooth      PW
     Min          84      84     27                 1115     1115     207
     Max          85      85     28                 1117     1117     208
     Sum         421     421    139                 5577     5577    1037



     bravais-lattice index     =            2
     lattice parameter (alat)  =       7.7200  a.u.
     unit-cell volume          =     115.0249 (a.u.)^3
     number of atoms/cell      =            1
     number of atomic types    =            1
     number of electrons       =        11.00
     number of Kohn-Sham states=           10
     kinetic-energy cutoff     =      50.0000  Ry
     charge density cutoff     =     200.0000  Ry
     convergence threshold     =      1.0E-08
     mixing beta               =       0.7000
     number of iterations used =            8  plain     mixing
     Exchange-correlation      = SLA PW PBX PBC ( 1  4  3  4 0 0)

     celldm(1)=   7.720000  celldm(2)=   0.000000  celldm(3)=   0.000000
     celldm(4)=   0.000000  celldm(5)=   0.000000  celldm(6)=   0.000000

     crystal axes: (cart. coord. in units of alat)
               a(1) = (  -0.500000   0.000000   0.500000 )  
               a(2) = (   0.000000   0.500000   0.500000 )  
               a(3) = (  -0.500000   0.500000   0.000000 )  

     reciprocal axes: (cart. coord. in units 2 pi/alat)
               b(1) = ( -1.000000 -1.000000  1.000000 )  
               b(2) = (  1.000000  1.000000  1.000000 )  
               b(3) = ( -1.000000  1.000000 -1.000000 )  


     PseudoPot. # 1 for Ag read from file:
     /home/lorenzo/pseudos/Ag/Ag.pbe-n-kjpaw_psl.1.0.0.UPF
     MD5 check sum: 51099775af2a3182a6a1caffb86952a3
     Pseudo is Projector augmented-wave + core cor, Zval = 11.0
     Generated using "atomic" code by A. Dal Corso v.6.2.2
     Shape of augmentation charge: PSQ
     Using radial grid of 1237 points,  6 beta functions with: 
                l(1) =   0
                l(2) =   0
                l(3) =   1
                l(4) =   1
                l(5) =   2
                l(6) =   2
     Q(r) pseudized with 0 coefficients 


     atomic species   valence    mass     pseudopotential
        Ag            11.00   107.86820     Ag( 1.00)

     48 Sym. Ops., with inversion, found



   Cartesian axes

     site n.     atom                  positions (alat units)
         1           Ag  tau(   1) = (   0.0000000   0.0000000   0.0000000  )

     number of k points=    47  gaussian smearing, width (Ry)=  0.0100
                       cart. coord. in units 2pi/alat
        k(    1) = (   0.0000000   0.0000000   0.0000000), wk =   0.0020000
        k(    2) = (  -0.1000000   0.1000000  -0.1000000), wk =   0.0160000
        k(    3) = (  -0.2000000   0.2000000  -0.2000000), wk =   0.0160000
        k(    4) = (  -0.3000000   0.3000000  -0.3000000), wk =   0.0160000
        k(    5) = (  -0.4000000   0.4000000  -0.4000000), wk =   0.0160000
        k(    6) = (   0.5000000  -0.5000000   0.5000000), wk =   0.0080000
        k(    7) = (   0.0000000   0.2000000   0.0000000), wk =   0.0120000
        k(    8) = (  -0.1000000   0.3000000  -0.1000000), wk =   0.0480000
        k(    9) = (  -0.2000000   0.4000000  -0.2000000), wk =   0.0480000
        k(   10) = (  -0.3000000   0.5000000  -0.3000000), wk =   0.0480000
        k(   11) = (   0.6000000  -0.4000000   0.6000000), wk =   0.0480000
        k(   12) = (   0.5000000  -0.3000000   0.5000000), wk =   0.0480000
        k(   13) = (   0.4000000  -0.2000000   0.4000000), wk =   0.0480000
        k(   14) = (   0.3000000  -0.1000000   0.3000000), wk =   0.0480000
        k(   15) = (   0.2000000   0.0000000   0.2000000), wk =   0.0240000
        k(   16) = (   0.0000000   0.4000000   0.0000000), wk =   0.0120000
        k(   17) = (  -0.1000000   0.5000000  -0.1000000), wk =   0.0480000
        k(   18) = (  -0.2000000   0.6000000  -0.2000000), wk =   0.0480000
        k(   19) = (   0.7000000  -0.3000000   0.7000000), wk =   0.0480000
        k(   20) = (   0.6000000  -0.2000000   0.6000000), wk =   0.0480000
        k(   21) = (   0.5000000  -0.1000000   0.5000000), wk =   0.0480000
        k(   22) = (   0.4000000   0.0000000   0.4000000), wk =   0.0240000
        k(   23) = (   0.0000000   0.6000000   0.0000000), wk =   0.0120000
        k(   24) = (  -0.1000000   0.7000000  -0.1000000), wk =   0.0480000
        k(   25) = (   0.8000000  -0.2000000   0.8000000), wk =   0.0480000
        k(   26) = (   0.7000000  -0.1000000   0.7000000), wk =   0.0480000
        k(   27) = (   0.6000000  -0.0000000   0.6000000), wk =   0.0240000
        k(   28) = (   0.0000000   0.8000000   0.0000000), wk =   0.0120000
        k(   29) = (   0.9000000  -0.1000000   0.9000000), wk =   0.0480000
        k(   30) = (   0.8000000   0.0000000   0.8000000), wk =   0.0240000
        k(   31) = (   0.0000000  -1.0000000   0.0000000), wk =   0.0060000
        k(   32) = (  -0.2000000   0.4000000   0.0000000), wk =   0.0480000
        k(   33) = (  -0.3000000   0.5000000  -0.1000000), wk =   0.0960000
        k(   34) = (   0.6000000  -0.4000000   0.8000000), wk =   0.0960000
        k(   35) = (   0.5000000  -0.3000000   0.7000000), wk =   0.0480000
        k(   36) = (  -0.2000000   0.6000000   0.0000000), wk =   0.0480000
        k(   37) = (   0.7000000  -0.3000000   0.9000000), wk =   0.0960000
        k(   38) = (   0.6000000  -0.2000000   0.8000000), wk =   0.0960000
        k(   39) = (   0.5000000  -0.1000000   0.7000000), wk =   0.0960000
        k(   40) = (   0.4000000   0.0000000   0.6000000), wk =   0.0480000
        k(   41) = (   0.8000000  -0.2000000   1.0000000), wk =   0.0480000
        k(   42) = (   0.7000000  -0.1000000   0.9000000), wk =   0.0960000
        k(   43) = (   0.6000000   0.0000000   0.8000000), wk =   0.0480000
        k(   44) = (  -0.2000000  -1.0000000   0.0000000), wk =   0.0240000
        k(   45) = (   0.6000000  -0.2000000   1.0000000), wk =   0.0480000
        k(   46) = (   0.5000000  -0.1000000   0.9000000), wk =   0.0480000
        k(   47) = (  -0.4000000  -1.0000000   0.0000000), wk =   0.0240000

     Dense  grid:     5577 G-vectors     FFT dimensions: (  25,  25,  25)

     Estimated max dynamical RAM per process >       6.54 MB

     Estimated total dynamical RAM >      32.70 MB

     Initial potential from superposition of free atoms

     starting charge   10.99960, renormalised to   11.00000
     Starting wfcs are    9 randomized atomic wfcs +    1 random wfcs
     Checking if some PAW data can be deallocated... 

     total cpu time spent up to now is        1.3 secs

     Self-consistent Calculation

     iteration #  1     ecut=    50.00 Ry     beta= 0.70
     Davidson diagonalization with overlap
     ethr =  1.00E-02,  avg # of iterations =  4.7

     Threshold (ethr) on eigenvalues was too large:
     Diagonalizing with lowered threshold

     Davidson diagonalization with overlap
     ethr =  2.67E-05,  avg # of iterations =  2.5

     total cpu time spent up to now is        2.4 secs

     total energy              =    -355.29933922 Ry
     Harris-Foulkes estimate   =    -355.30109558 Ry
     estimated scf accuracy    <       0.00323100 Ry

     iteration #  2     ecut=    50.00 Ry     beta= 0.70
     Davidson diagonalization with overlap
     ethr =  2.94E-05,  avg # of iterations =  2.0

     total cpu time spent up to now is        3.1 secs

     total energy              =    -355.30024122 Ry
     Harris-Foulkes estimate   =    -355.30132922 Ry
     estimated scf accuracy    <       0.00232568 Ry

     iteration #  3     ecut=    50.00 Ry     beta= 0.70
     Davidson diagonalization with overlap
     ethr =  2.11E-05,  avg # of iterations =  1.7

     total cpu time spent up to now is        3.6 secs

     total energy              =    -355.30070008 Ry
     Harris-Foulkes estimate   =    -355.30067742 Ry
     estimated scf accuracy    <       0.00001424 Ry

     iteration #  4     ecut=    50.00 Ry     beta= 0.70
     Davidson diagonalization with overlap
     ethr =  1.29E-07,  avg # of iterations =  2.9

     total cpu time spent up to now is        4.2 secs

     total energy              =    -355.30070590 Ry
     Harris-Foulkes estimate   =    -355.30070565 Ry
     estimated scf accuracy    <       0.00000033 Ry

     iteration #  5     ecut=    50.00 Ry     beta= 0.70
     Davidson diagonalization with overlap
     ethr =  2.98E-09,  avg # of iterations =  1.7

     total cpu time spent up to now is        4.7 secs

     End of self-consistent calculation

          k = 0.0000 0.0000 0.0000 (   701 PWs)   bands (ev):

     5.0665   8.0886   8.0886   8.0886   9.1289   9.1289  29.8025  33.0896
    33.0896  33.0896

          k =-0.1000 0.1000-0.1000 (   685 PWs)   bands (ev):

     5.3735   8.0248   8.1713   8.1713   9.1022   9.1022  29.4418  30.9975
    33.0650  33.0650

          k =-0.2000 0.2000-0.2000 (   685 PWs)   bands (ev):

     6.1369   8.0305   8.2947   8.2947   9.1399   9.1399  26.0642  30.4649
    32.8644  32.8644

          k =-0.3000 0.3000-0.3000 (   682 PWs)   bands (ev):

     6.5883   8.2439   8.2439   8.9461   9.4288   9.4288  22.1242  29.8278
    32.2584  32.2584

          k =-0.4000 0.4000-0.4000 (   679 PWs)   bands (ev):

     6.5357   8.1209   8.1209   9.7790   9.7790  10.9189  18.5283  29.1191
    31.4601  31.4601

          k = 0.5000-0.5000 0.5000 (   700 PWs)   bands (ev):

     6.4788   8.0661   8.0661   9.9281   9.9281  12.4487  16.4765  28.8417
    31.1000  31.1000

          k = 0.0000 0.2000 0.0000 (   693 PWs)   bands (ev):

     5.4767   7.9283   8.2415   8.2415   8.9753   9.1992  29.8106  31.6827
    31.7454  31.7454

          k =-0.1000 0.3000-0.1000 (   683 PWs)   bands (ev):

     6.1114   7.7862   8.3851   8.4046   8.9401   9.2871  27.5893  30.1887
    30.7032  32.9603

          k =-0.2000 0.4000-0.2000 (   691 PWs)   bands (ev):

     6.7341   8.0333   8.2636   8.4299   9.5302   9.5314  23.6163  29.7102
    29.9439  32.4848

          k =-0.3000 0.5000-0.3000 (   691 PWs)   bands (ev):

     6.7358   8.0623   8.3183   8.8382   9.8326  10.9942  19.8301  28.9531
    29.5793  30.8676

          k = 0.6000-0.4000 0.6000 (   689 PWs)   bands (ev):

     6.6537   7.9635   8.2211   9.3416   9.9390  12.9707  16.8640  28.2381
    29.8533  29.9153

          k = 0.5000-0.3000 0.5000 (   688 PWs)   bands (ev):

     6.6850   7.9999   8.2187   9.3663   9.7407  12.3966  17.6807  27.7939
    29.9102  30.9606

          k = 0.4000-0.2000 0.4000 (   678 PWs)   bands (ev):

     6.7985   8.1232   8.3216   8.7907   9.3258  10.6068  21.0663  27.8010
    30.7568  32.8968

          k = 0.3000-0.1000 0.3000 (   679 PWs)   bands (ev):

     6.6203   7.8948   8.3594   8.4312   8.9420   9.6536  24.9519  28.1920
    32.1583  34.3225

          k = 0.2000 0.0000 0.2000 (   682 PWs)   bands (ev):

     5.8525   7.8928   8.2929   8.3169   8.9476   9.2441  28.7352  28.9109
    32.2756  34.5119

          k = 0.0000 0.4000 0.0000 (   681 PWs)   bands (ev):

     6.4951   7.5284   8.6732   8.6732   8.7843   9.3858  29.0291  29.0291
    29.8430  29.9131

          k =-0.1000 0.5000-0.1000 (   683 PWs)   bands (ev):

     6.9689   7.3873   8.5111   8.8371   9.5852   9.6347  25.4395  27.8893
    28.8866  30.4054

          k =-0.2000 0.6000-0.2000 (   682 PWs)   bands (ev):

     6.9858   7.6571   8.3787   8.7715   9.8757  11.3336  21.5633  27.1448
    27.3930  29.9675

          k = 0.7000-0.3000 0.7000 (   691 PWs)   bands (ev):

     6.9570   7.7500   8.5491   8.6482   9.9672  13.6512  18.1060  25.5924
    27.6924  29.6885

          k = 0.6000-0.2000 0.6000 (   687 PWs)   bands (ev):

     7.0552   7.7683   8.5788   8.6562   9.7432  14.4601  17.2672  24.5306
    28.8584  29.7656

          k = 0.5000-0.1000 0.5000 (   686 PWs)   bands (ev):

     7.2572   7.8633   8.3788   8.6084   9.2933  12.3371  20.4978  24.0974
    30.3698  30.7802

          k = 0.4000 0.0000 0.4000 (   686 PWs)   bands (ev):

     7.3232   7.6740   8.2525   8.7197   8.8218  10.7075  24.1382  24.4248
    31.5224  33.1756

          k = 0.0000 0.6000 0.0000 (   689 PWs)   bands (ev):

     6.9095   7.0648   9.2888   9.2888   9.6225   9.9037  26.3657  26.3657
    26.7055  29.8977

          k =-0.1000 0.7000-0.1000 (   686 PWs)   bands (ev):

     6.8468   6.9875   9.1975   9.3548   9.8836  11.6371  23.4981  24.5733
    25.5708  29.9642

          k = 0.8000-0.2000 0.8000 (   688 PWs)   bands (ev):

     6.8503   7.2080   8.8901   9.2286  10.0078  14.0581  20.0570  22.7874
    25.6816  29.8366

          k = 0.7000-0.1000 0.7000 (   695 PWs)   bands (ev):

     7.0256   7.5607   8.4964   9.0834   9.8073  16.6850  17.2920  21.4547
    26.7302  29.7990

          k = 0.6000-0.0000 0.6000 (   684 PWs)   bands (ev):

     7.3203   7.9525   8.0240   8.9114   9.4597  14.4342  20.0357  20.9924
    28.5368  29.9762

          k = 0.0000 0.8000 0.0000 (   684 PWs)   bands (ev):

     6.5997   6.7122   9.8200   9.8810   9.8810  12.4896  22.2367  24.4345
    24.4345  29.9495

          k = 0.9000-0.1000 0.9000 (   689 PWs)   bands (ev):

     6.5779   6.7257   9.7316   9.7331  10.0669  14.3338  20.4793  22.4178
    24.2456  29.9668

          k = 0.8000 0.0000 0.8000 (   688 PWs)   bands (ev):

     6.7460   7.0546   9.1400   9.5160   9.9549  16.3472  19.3721  20.0246
    25.0769  29.8802

          k = 0.0000-1.0000 0.0000 (   692 PWs)   bands (ev):

     6.4365   6.5822   9.8965  10.1376  10.1376  14.4764  19.6053  23.7161
    23.7161  29.9706

          k =-0.2000 0.4000 0.0000 (   681 PWs)   bands (ev):

     6.7728   7.5979   8.3251   8.6739   8.9847   9.6780  26.5417  26.8121
    31.3455  32.2279

          k =-0.3000 0.5000-0.1000 (   685 PWs)   bands (ev):

     7.1218   7.8647   8.0810   8.7194   9.3485  10.7457  22.7160  26.1566
    29.5083  32.5097

          k = 0.6000-0.4000 0.8000 (   683 PWs)   bands (ev):

     7.0002   7.8565   8.4240   8.6760   9.7410  12.5956  19.0642  26.1320
    27.9062  31.6319

          k = 0.5000-0.3000 0.7000 (   684 PWs)   bands (ev):

     6.9436   7.7690   8.4869   8.8219   9.8704  14.3866  16.6781  26.6676
    26.7955  31.2326

          k =-0.2000 0.6000 0.0000 (   680 PWs)   bands (ev):

     7.1674   7.2047   8.4837   9.2818   9.4853  10.9231  24.5385  24.7462
    26.9514  31.7731

          k = 0.7000-0.3000 0.9000 (   686 PWs)   bands (ev):

     7.1005   7.4337   8.3327   9.1883   9.7931  12.9265  20.9438  24.4291
    25.1107  31.8616

          k = 0.6000-0.2000 0.8000 (   695 PWs)   bands (ev):

     7.1722   7.5725   8.3012   8.9685   9.8897  15.4664  17.6928  23.5653
    25.0380  31.8056

          k = 0.5000-0.1000 0.7000 (   687 PWs)   bands (ev):

     7.3962   7.6091   8.1414   8.9270   9.6839  14.6747  18.8077  22.6316
    26.1928  32.2756

          k = 0.4000 0.0000 0.6000 (   684 PWs)   bands (ev):

     7.5818   7.7155   7.7976   9.0573   9.2951  12.4557  22.2996  22.3850
    27.7529  33.3260

          k = 0.8000-0.2000 1.0000 (   687 PWs)   bands (ev):

     6.8234   6.8971   9.0959   9.7236   9.8773  13.4015  22.3108  23.1108
    23.2675  31.4845

          k = 0.7000-0.1000 0.9000 (   692 PWs)   bands (ev):

     6.9074   7.1467   8.7690   9.4232  10.0236  15.8203  19.8429  21.0019
    23.5386  31.7428

          k = 0.6000 0.0000 0.8000 (   693 PWs)   bands (ev):

     7.1419   7.5540   8.2684   9.1589   9.8731  17.0963  18.3120  20.2868
    24.6498  31.9660

          k =-0.2000-1.0000 0.0000 (   698 PWs)   bands (ev):

     6.6507   6.7823   9.4633   9.6838  10.1375  15.4919  19.6659  22.4769
    22.6247  31.3967

          k = 0.6000-0.2000 1.0000 (   696 PWs)   bands (ev):

     7.2914   7.4372   8.0979   9.2654   9.8694  15.1056  20.7144  21.2452
    23.3993  34.6191

          k = 0.5000-0.1000 0.9000 (   696 PWs)   bands (ev):

     7.2777   7.6751   7.9212   9.1201  10.0111  17.6812  17.8694  21.5270
    22.3755  34.5411

          k =-0.4000-1.0000 0.0000 (   692 PWs)   bands (ev):

     7.0948   7.3756   8.3222   9.2377  10.1383  17.6251  19.8672  20.1016
    21.2990  34.4356

     the Fermi energy is    12.8175 ev

!    total energy              =    -355.30070593 Ry
     Harris-Foulkes estimate   =    -355.30070593 Ry
     estimated scf accuracy    <          3.9E-09 Ry

     total all-electron energy =    -10632.266760 Ry

     The total energy is the sum of the following terms:

     one-electron contribution =       1.56365197 Ry
     hartree contribution      =      14.66749481 Ry
     xc contribution           =     -22.35417622 Ry
     ewald contribution        =     -71.86118022 Ry
     one-center paw contrib.   =    -277.31629642 Ry
     smearing contrib. (-TS)   =      -0.00019984 Ry

     convergence has been achieved in   5 iterations

     Forces acting on atoms (cartesian axes, Ry/au):

     atom    1 type  1   force =     0.00000000    0.00000000    0.00000000

     Total force =     0.000000     Total SCF correction =     0.000000


     Computing stress (Cartesian axis) and pressure

          total   stress  (Ry/bohr**3)                   (kbar)     P=   35.07
   0.00023837  -0.00000000  -0.00000000         35.07     -0.00     -0.00
  -0.00000000   0.00023837   0.00000000         -0.00     35.07      0.00
  -0.00000000   0.00000000   0.00023837         -0.00      0.00     35.07


     Writing output data file Ag.save/

     init_run     :      0.41s CPU      0.45s WALL (       1 calls)
     electrons    :      3.17s CPU      3.41s WALL (       1 calls)
     forces       :      0.05s CPU      0.06s WALL (       1 calls)
     stress       :      0.14s CPU      0.15s WALL (       1 calls)

     Called by init_run:
     wfcinit      :      0.12s CPU      0.13s WALL (       1 calls)
     potinit      :      0.12s CPU      0.14s WALL (       1 calls)
     hinit0       :      0.15s CPU      0.15s WALL (       1 calls)

     Called by electrons:
     c_bands      :      2.16s CPU      2.31s WALL (       6 calls)
     sum_band     :      0.37s CPU      0.39s WALL (       6 calls)
     v_of_rho     :      0.02s CPU      0.02s WALL (       6 calls)
     newd         :      0.04s CPU      0.05s WALL (       6 calls)
     PAW_pot      :      0.68s CPU      0.77s WALL (       6 calls)
     mix_rho      :      0.00s CPU      0.00s WALL (       6 calls)

     Called by c_bands:
     init_us_2    :      0.07s CPU      0.07s WALL (     705 calls)
     cegterg      :      2.06s CPU      2.21s WALL (     282 calls)

     Called by sum_band:
     sum_band:bec :      0.00s CPU      0.00s WALL (     282 calls)
     addusdens    :      0.03s CPU      0.03s WALL (       6 calls)

     Called by *egterg:
     h_psi        :      1.65s CPU      1.77s WALL (    1054 calls)
     s_psi        :      0.04s CPU      0.05s WALL (    1054 calls)
     g_psi        :      0.00s CPU      0.00s WALL (     725 calls)
     cdiaghg      :      0.21s CPU      0.23s WALL (     960 calls)

     Called by h_psi:
     h_psi:pot    :      1.64s CPU      1.76s WALL (    1054 calls)
     h_psi:calbec :      0.07s CPU      0.08s WALL (    1054 calls)
     vloc_psi     :      1.52s CPU      1.62s WALL (    1054 calls)
     add_vuspsi   :      0.04s CPU      0.05s WALL (    1054 calls)

     General routines
     calbec       :      0.14s CPU      0.14s WALL (    1571 calls)
     fft          :      0.02s CPU      0.02s WALL (      93 calls)
     ffts         :      0.00s CPU      0.00s WALL (       6 calls)
     fftw         :      1.67s CPU      1.79s WALL (   17638 calls)

     Parallel routines
     fft_scatt_xy :      0.13s CPU      0.14s WALL (   17737 calls)
     fft_scatt_yz :      0.53s CPU      0.56s WALL (   17737 calls)

     PWSCF        :     4.64s CPU         5.02s WALL


   This run was terminated on:   0:20:20  27Mar2024            

=------------------------------------------------------------------------------=
   JOB DONE.
=------------------------------------------------------------------------------=
