
     Program PWSCF v.6.3MaX starts on 27Mar2024 at  0: 8:34 

     This program is part of the open-source Quantum ESPRESSO suite
     for quantum simulation of materials; please cite
         "P. Giannozzi et al., J. Phys.:Condens. Matter 21 395502 (2009);
         "P. Giannozzi et al., J. Phys.:Condens. Matter 29 465901 (2017);
          URL http://www.quantum-espresso.org", 
     in publications or presentations arising from this work. More details at
     http://www.quantum-espresso.org/quote

     Parallel version (MPI), running on     5 processors

     MPI processes distributed on     1 nodes
     R & G space division:  proc/nbgrp/npool/nimage =       5
     Waiting for input...
     Reading input from standard input

     Current dimensions of program PWSCF are:
     Max number of different atomic species (ntypx) = 10
     Max number of k-points (npk) =  40000
     Max angular momentum in pseudopotentials (lmaxx) =  3
               file Ag.pbesol-n-kjpaw_psl.1.0.0.UPF: wavefunction(s)  5S 5P renormalized

     Subspace diagonalization in iterative solution of the eigenvalue problem:
     a serial algorithm will be used


     Parallelization info
     --------------------
     sticks:   dense  smooth     PW     G-vecs:    dense   smooth      PW
     Min          32      32     11                  280      280      56
     Max          33      33     11                  283      283      58
     Sum         163     163     55                 1411     1411     283



     bravais-lattice index     =            2
     lattice parameter (alat)  =       7.7200  a.u.
     unit-cell volume          =     115.0249 (a.u.)^3
     number of atoms/cell      =            1
     number of atomic types    =            1
     number of electrons       =        11.00
     number of Kohn-Sham states=           10
     kinetic-energy cutoff     =      20.0000  Ry
     charge density cutoff     =      80.0000  Ry
     convergence threshold     =      1.0E-08
     mixing beta               =       0.7000
     number of iterations used =            8  plain     mixing
     Exchange-correlation      = SLA PW PSX PSC ( 1  4 10  8 0 0)

     celldm(1)=   7.720000  celldm(2)=   0.000000  celldm(3)=   0.000000
     celldm(4)=   0.000000  celldm(5)=   0.000000  celldm(6)=   0.000000

     crystal axes: (cart. coord. in units of alat)
               a(1) = (  -0.500000   0.000000   0.500000 )  
               a(2) = (   0.000000   0.500000   0.500000 )  
               a(3) = (  -0.500000   0.500000   0.000000 )  

     reciprocal axes: (cart. coord. in units 2 pi/alat)
               b(1) = ( -1.000000 -1.000000  1.000000 )  
               b(2) = (  1.000000  1.000000  1.000000 )  
               b(3) = ( -1.000000  1.000000 -1.000000 )  


     PseudoPot. # 1 for Ag read from file:
     /home/lorenzo/pseudos/Ag/Ag.pbesol-n-kjpaw_psl.1.0.0.UPF
     MD5 check sum: 3b245e14fa22881b2ac493bfd23f605f
     Pseudo is Projector augmented-wave + core cor, Zval = 11.0
     Generated using "atomic" code by A. Dal Corso v.6.2.2
     Shape of augmentation charge: PSQ
     Using radial grid of 1237 points,  6 beta functions with: 
                l(1) =   0
                l(2) =   0
                l(3) =   1
                l(4) =   1
                l(5) =   2
                l(6) =   2
     Q(r) pseudized with 0 coefficients 


     atomic species   valence    mass     pseudopotential
        Ag            11.00   107.86820     Ag( 1.00)

     48 Sym. Ops., with inversion, found



   Cartesian axes

     site n.     atom                  positions (alat units)
         1           Ag  tau(   1) = (   0.0000000   0.0000000   0.0000000  )

     number of k points=     4  gaussian smearing, width (Ry)=  0.0100
                       cart. coord. in units 2pi/alat
        k(    1) = (   0.0000000   0.0000000   0.0000000), wk =   0.0740741
        k(    2) = (  -0.3333333   0.3333333  -0.3333333), wk =   0.5925926
        k(    3) = (   0.0000000   0.6666667   0.0000000), wk =   0.4444444
        k(    4) = (   0.6666667  -0.0000000   0.6666667), wk =   0.8888889

     Dense  grid:     1411 G-vectors     FFT dimensions: (  15,  15,  15)

     Estimated max dynamical RAM per process >       1.95 MB

     Estimated total dynamical RAM >       9.73 MB

     Initial potential from superposition of free atoms

     starting charge   10.99964, renormalised to   11.00000
     Starting wfcs are    9 randomized atomic wfcs +    1 random wfcs
     Checking if some PAW data can be deallocated... 

     total cpu time spent up to now is        1.0 secs

     Self-consistent Calculation

     iteration #  1     ecut=    20.00 Ry     beta= 0.70
     Davidson diagonalization with overlap
     ethr =  1.00E-02,  avg # of iterations =  5.8

     total cpu time spent up to now is        1.2 secs

     total energy              =    -348.16192546 Ry
     Harris-Foulkes estimate   =    -348.73784936 Ry
     estimated scf accuracy    <       0.70924496 Ry

     iteration #  2     ecut=    20.00 Ry     beta= 0.70
     Davidson diagonalization with overlap
     ethr =  6.45E-03,  avg # of iterations =  2.0

     total cpu time spent up to now is        1.3 secs

     total energy              =    -348.42134367 Ry
     Harris-Foulkes estimate   =    -348.58280879 Ry
     estimated scf accuracy    <       0.33002003 Ry

     iteration #  3     ecut=    20.00 Ry     beta= 0.70
     Davidson diagonalization with overlap
     ethr =  3.00E-03,  avg # of iterations =  1.8

     total cpu time spent up to now is        1.4 secs

     total energy              =    -348.46473575 Ry
     Harris-Foulkes estimate   =    -348.46797891 Ry
     estimated scf accuracy    <       0.00757238 Ry

     iteration #  4     ecut=    20.00 Ry     beta= 0.70
     Davidson diagonalization with overlap
     ethr =  6.88E-05,  avg # of iterations =  3.2

     total cpu time spent up to now is        1.6 secs

     total energy              =    -348.46694859 Ry
     Harris-Foulkes estimate   =    -348.46727707 Ry
     estimated scf accuracy    <       0.00100034 Ry

     iteration #  5     ecut=    20.00 Ry     beta= 0.70
     Davidson diagonalization with overlap
     ethr =  9.09E-06,  avg # of iterations =  1.0

     total cpu time spent up to now is        1.7 secs

     total energy              =    -348.46692294 Ry
     Harris-Foulkes estimate   =    -348.46700596 Ry
     estimated scf accuracy    <       0.00018380 Ry

     iteration #  6     ecut=    20.00 Ry     beta= 0.70
     Davidson diagonalization with overlap
     ethr =  1.67E-06,  avg # of iterations =  1.8

     total cpu time spent up to now is        1.8 secs

     total energy              =    -348.46695278 Ry
     Harris-Foulkes estimate   =    -348.46695294 Ry
     estimated scf accuracy    <       0.00000040 Ry

     iteration #  7     ecut=    20.00 Ry     beta= 0.70
     Davidson diagonalization with overlap
     ethr =  3.66E-09,  avg # of iterations =  3.0

     total cpu time spent up to now is        1.9 secs

     End of self-consistent calculation

          k = 0.0000 0.0000 0.0000 (   169 PWs)   bands (ev):

     4.8686   7.9302   7.9302   7.9302   8.5277   8.5277  29.9385  32.8130
    32.8130  32.8130

          k =-0.3333 0.3333-0.3333 (   171 PWs)   bands (ev):

     6.0953   8.2270   8.2270   9.1759   9.4232   9.4232  20.5294  29.7010
    31.6011  31.6011

          k = 0.0000 0.6667 0.0000 (   174 PWs)   bands (ev):

     6.4816   7.0507   9.0889   9.1559   9.1559  10.3772  24.9926  25.2891
    25.2891  29.8682

          k = 0.6667-0.0000 0.6667 (   172 PWs)   bands (ev):

     7.1070   7.4405   8.1484   8.8948   9.2952  15.7671  18.5532  20.2187
    26.9309  30.1968

     the Fermi energy is    10.4421 ev

!    total energy              =    -348.46695309 Ry
     Harris-Foulkes estimate   =    -348.46695309 Ry
     estimated scf accuracy    <          3.4E-09 Ry

     total all-electron energy =    -10625.477362 Ry

     The total energy is the sum of the following terms:

     one-electron contribution =       4.01681118 Ry
     hartree contribution      =      12.75350797 Ry
     xc contribution           =     -21.73144992 Ry
     ewald contribution        =     -71.86118020 Ry
     one-center paw contrib.   =    -271.64364344 Ry
     smearing contrib. (-TS)   =      -0.00099868 Ry

     convergence has been achieved in   7 iterations

     Forces acting on atoms (cartesian axes, Ry/au):

     atom    1 type  1   force =     0.00000000    0.00000000    0.00000000

     Total force =     0.000000     Total SCF correction =     0.000000


     Computing stress (Cartesian axis) and pressure

          total   stress  (Ry/bohr**3)                   (kbar)     P=-7540.06
  -0.05125632   0.00000000  -0.00000000      -7540.06      0.00     -0.00
   0.00000000  -0.05125632  -0.00000000          0.00  -7540.06     -0.00
  -0.00000000   0.00000000  -0.05125632         -0.00      0.00  -7540.06


     Writing output data file Ag.save/

     init_run     :      0.21s CPU      0.23s WALL (       1 calls)
     electrons    :      0.78s CPU      0.90s WALL (       1 calls)
     forces       :      0.01s CPU      0.01s WALL (       1 calls)
     stress       :      0.02s CPU      0.02s WALL (       1 calls)

     Called by init_run:
     wfcinit      :      0.01s CPU      0.01s WALL (       1 calls)
     potinit      :      0.11s CPU      0.12s WALL (       1 calls)
     hinit0       :      0.08s CPU      0.09s WALL (       1 calls)

     Called by electrons:
     c_bands      :      0.08s CPU      0.09s WALL (       7 calls)
     sum_band     :      0.02s CPU      0.02s WALL (       7 calls)
     v_of_rho     :      0.01s CPU      0.01s WALL (       8 calls)
     newd         :      0.01s CPU      0.01s WALL (       8 calls)
     PAW_pot      :      0.76s CPU      0.87s WALL (       8 calls)
     mix_rho      :      0.00s CPU      0.00s WALL (       7 calls)

     Called by c_bands:
     init_us_2    :      0.00s CPU      0.00s WALL (      68 calls)
     cegterg      :      0.07s CPU      0.09s WALL (      28 calls)

     Called by sum_band:
     sum_band:bec :      0.00s CPU      0.00s WALL (      28 calls)
     addusdens    :      0.01s CPU      0.01s WALL (       7 calls)

     Called by *egterg:
     h_psi        :      0.04s CPU      0.05s WALL (     106 calls)
     s_psi        :      0.00s CPU      0.00s WALL (     106 calls)
     g_psi        :      0.00s CPU      0.00s WALL (      74 calls)
     cdiaghg      :      0.02s CPU      0.02s WALL (     102 calls)

     Called by h_psi:
     h_psi:pot    :      0.04s CPU      0.05s WALL (     106 calls)
     h_psi:calbec :      0.00s CPU      0.01s WALL (     106 calls)
     vloc_psi     :      0.04s CPU      0.04s WALL (     106 calls)
     add_vuspsi   :      0.00s CPU      0.00s WALL (     106 calls)

     General routines
     calbec       :      0.01s CPU      0.01s WALL (     154 calls)
     fft          :      0.01s CPU      0.01s WALL (     114 calls)
     ffts         :      0.00s CPU      0.00s WALL (       7 calls)
     fftw         :      0.04s CPU      0.05s WALL (    1788 calls)

     Parallel routines
     fft_scatt_xy :      0.00s CPU      0.01s WALL (    1909 calls)
     fft_scatt_yz :      0.02s CPU      0.02s WALL (    1909 calls)

     PWSCF        :     1.81s CPU         1.99s WALL


   This run was terminated on:   0: 8:36  27Mar2024            

=------------------------------------------------------------------------------=
   JOB DONE.
=------------------------------------------------------------------------------=
