
     Program PWSCF v.6.3MaX starts on 27Mar2024 at  0: 8:26 

     This program is part of the open-source Quantum ESPRESSO suite
     for quantum simulation of materials; please cite
         "P. Giannozzi et al., J. Phys.:Condens. Matter 21 395502 (2009);
         "P. Giannozzi et al., J. Phys.:Condens. Matter 29 465901 (2017);
          URL http://www.quantum-espresso.org", 
     in publications or presentations arising from this work. More details at
     http://www.quantum-espresso.org/quote

     Parallel version (MPI), running on     5 processors

     MPI processes distributed on     1 nodes
     R & G space division:  proc/nbgrp/npool/nimage =       5
     Waiting for input...
     Reading input from standard input

     Current dimensions of program PWSCF are:
     Max number of different atomic species (ntypx) = 10
     Max number of k-points (npk) =  40000
     Max angular momentum in pseudopotentials (lmaxx) =  3
               file Ag.pbesol-n-kjpaw_psl.1.0.0.UPF: wavefunction(s)  5S 5P renormalized

     Subspace diagonalization in iterative solution of the eigenvalue problem:
     a serial algorithm will be used


     Parallelization info
     --------------------
     sticks:   dense  smooth     PW     G-vecs:    dense   smooth      PW
     Min          32      32     11                  280      280      56
     Max          33      33     11                  283      283      58
     Sum         163     163     55                 1411     1411     283



     bravais-lattice index     =            2
     lattice parameter (alat)  =       7.7200  a.u.
     unit-cell volume          =     115.0249 (a.u.)^3
     number of atoms/cell      =            1
     number of atomic types    =            1
     number of electrons       =        11.00
     number of Kohn-Sham states=           10
     kinetic-energy cutoff     =      20.0000  Ry
     charge density cutoff     =      80.0000  Ry
     convergence threshold     =      1.0E-08
     mixing beta               =       0.7000
     number of iterations used =            8  plain     mixing
     Exchange-correlation      = SLA PW PSX PSC ( 1  4 10  8 0 0)

     celldm(1)=   7.720000  celldm(2)=   0.000000  celldm(3)=   0.000000
     celldm(4)=   0.000000  celldm(5)=   0.000000  celldm(6)=   0.000000

     crystal axes: (cart. coord. in units of alat)
               a(1) = (  -0.500000   0.000000   0.500000 )  
               a(2) = (   0.000000   0.500000   0.500000 )  
               a(3) = (  -0.500000   0.500000   0.000000 )  

     reciprocal axes: (cart. coord. in units 2 pi/alat)
               b(1) = ( -1.000000 -1.000000  1.000000 )  
               b(2) = (  1.000000  1.000000  1.000000 )  
               b(3) = ( -1.000000  1.000000 -1.000000 )  


     PseudoPot. # 1 for Ag read from file:
     /home/lorenzo/pseudos/Ag/Ag.pbesol-n-kjpaw_psl.1.0.0.UPF
     MD5 check sum: 3b245e14fa22881b2ac493bfd23f605f
     Pseudo is Projector augmented-wave + core cor, Zval = 11.0
     Generated using "atomic" code by A. Dal Corso v.6.2.2
     Shape of augmentation charge: PSQ
     Using radial grid of 1237 points,  6 beta functions with: 
                l(1) =   0
                l(2) =   0
                l(3) =   1
                l(4) =   1
                l(5) =   2
                l(6) =   2
     Q(r) pseudized with 0 coefficients 


     atomic species   valence    mass     pseudopotential
        Ag            11.00   107.86820     Ag( 1.00)

     48 Sym. Ops., with inversion, found



   Cartesian axes

     site n.     atom                  positions (alat units)
         1           Ag  tau(   1) = (   0.0000000   0.0000000   0.0000000  )

     number of k points=     3  gaussian smearing, width (Ry)=  0.0100
                       cart. coord. in units 2pi/alat
        k(    1) = (   0.0000000   0.0000000   0.0000000), wk =   0.2500000
        k(    2) = (   0.5000000  -0.5000000   0.5000000), wk =   1.0000000
        k(    3) = (   0.0000000  -1.0000000   0.0000000), wk =   0.7500000

     Dense  grid:     1411 G-vectors     FFT dimensions: (  15,  15,  15)

     Estimated max dynamical RAM per process >       1.94 MB

     Estimated total dynamical RAM >       9.71 MB

     Initial potential from superposition of free atoms

     starting charge   10.99964, renormalised to   11.00000
     Starting wfcs are    9 randomized atomic wfcs +    1 random wfcs
     Checking if some PAW data can be deallocated... 

     total cpu time spent up to now is        1.0 secs

     Self-consistent Calculation

     iteration #  1     ecut=    20.00 Ry     beta= 0.70
     Davidson diagonalization with overlap
     ethr =  1.00E-02,  avg # of iterations =  6.0

     total cpu time spent up to now is        1.1 secs

     total energy              =    -348.24624732 Ry
     Harris-Foulkes estimate   =    -348.65923889 Ry
     estimated scf accuracy    <       0.50910948 Ry

     iteration #  2     ecut=    20.00 Ry     beta= 0.70
     Davidson diagonalization with overlap
     ethr =  4.63E-03,  avg # of iterations =  2.0

     total cpu time spent up to now is        1.3 secs

     total energy              =    -348.45391551 Ry
     Harris-Foulkes estimate   =    -348.55534303 Ry
     estimated scf accuracy    <       0.20613788 Ry

     iteration #  3     ecut=    20.00 Ry     beta= 0.70
     Davidson diagonalization with overlap
     ethr =  1.87E-03,  avg # of iterations =  2.0

     total cpu time spent up to now is        1.4 secs

     total energy              =    -348.47706341 Ry
     Harris-Foulkes estimate   =    -348.48068489 Ry
     estimated scf accuracy    <       0.00764420 Ry

     iteration #  4     ecut=    20.00 Ry     beta= 0.70
     Davidson diagonalization with overlap
     ethr =  6.95E-05,  avg # of iterations =  3.7

     total cpu time spent up to now is        1.5 secs

     total energy              =    -348.47903320 Ry
     Harris-Foulkes estimate   =    -348.47946268 Ry
     estimated scf accuracy    <       0.00100464 Ry

     iteration #  5     ecut=    20.00 Ry     beta= 0.70
     Davidson diagonalization with overlap
     ethr =  9.13E-06,  avg # of iterations =  1.3

     total cpu time spent up to now is        1.6 secs

     total energy              =    -348.47906975 Ry
     Harris-Foulkes estimate   =    -348.47911993 Ry
     estimated scf accuracy    <       0.00008734 Ry

     iteration #  6     ecut=    20.00 Ry     beta= 0.70
     Davidson diagonalization with overlap
     ethr =  7.94E-07,  avg # of iterations =  2.0

     total cpu time spent up to now is        1.8 secs

     total energy              =    -348.47909241 Ry
     Harris-Foulkes estimate   =    -348.47909440 Ry
     estimated scf accuracy    <       0.00000407 Ry

     iteration #  7     ecut=    20.00 Ry     beta= 0.70
     Davidson diagonalization with overlap
     ethr =  3.70E-08,  avg # of iterations =  2.0

     total cpu time spent up to now is        1.9 secs

     total energy              =    -348.47909302 Ry
     Harris-Foulkes estimate   =    -348.47909305 Ry
     estimated scf accuracy    <       0.00000006 Ry

     iteration #  8     ecut=    20.00 Ry     beta= 0.70
     Davidson diagonalization with overlap
     ethr =  5.05E-10,  avg # of iterations =  3.0

     total cpu time spent up to now is        2.0 secs

     End of self-consistent calculation

          k = 0.0000 0.0000 0.0000 (   169 PWs)   bands (ev):

     4.8705   8.3439   8.3439   8.3439   9.0268   9.0268  29.8326  32.8519
    32.8519  32.8519

          k = 0.5000-0.5000 0.5000 (   168 PWs)   bands (ev):

     6.5270   8.7059   8.7059  10.1212  10.1212  12.2124  16.4971  28.8820
    30.6325  30.6325

          k = 0.0000-1.0000 0.0000 (   190 PWs)   bands (ev):

     6.2001   6.6832   8.7831   9.2979   9.2979  14.1825  19.3611  23.3683
    23.3683  29.9550

     the Fermi energy is    12.2773 ev

!    total energy              =    -348.47909305 Ry
     Harris-Foulkes estimate   =    -348.47909305 Ry
     estimated scf accuracy    <          6.0E-10 Ry

     total all-electron energy =    -10625.489502 Ry

     The total energy is the sum of the following terms:

     one-electron contribution =       3.86707034 Ry
     hartree contribution      =      13.08688879 Ry
     xc contribution           =     -21.82575182 Ry
     ewald contribution        =     -71.86118020 Ry
     one-center paw contrib.   =    -271.74387314 Ry
     smearing contrib. (-TS)   =      -0.00224702 Ry

     convergence has been achieved in   8 iterations

     Forces acting on atoms (cartesian axes, Ry/au):

     atom    1 type  1   force =     0.00000000    0.00000000    0.00000000

     Total force =     0.000000     Total SCF correction =     0.000000


     Computing stress (Cartesian axis) and pressure

          total   stress  (Ry/bohr**3)                   (kbar)     P=-6785.53
  -0.04612708   0.00000000  -0.00000000      -6785.53      0.00     -0.00
  -0.00000000  -0.04612708   0.00000000         -0.00  -6785.53      0.00
  -0.00000000   0.00000000  -0.04612708         -0.00      0.00  -6785.53


     Writing output data file Ag.save/

     init_run     :      0.19s CPU      0.20s WALL (       1 calls)
     electrons    :      0.89s CPU      1.02s WALL (       1 calls)
     forces       :      0.01s CPU      0.01s WALL (       1 calls)
     stress       :      0.02s CPU      0.02s WALL (       1 calls)

     Called by init_run:
     wfcinit      :      0.00s CPU      0.00s WALL (       1 calls)
     potinit      :      0.09s CPU      0.10s WALL (       1 calls)
     hinit0       :      0.08s CPU      0.08s WALL (       1 calls)

     Called by electrons:
     c_bands      :      0.07s CPU      0.08s WALL (       8 calls)
     sum_band     :      0.03s CPU      0.03s WALL (       8 calls)
     v_of_rho     :      0.01s CPU      0.01s WALL (       9 calls)
     newd         :      0.02s CPU      0.02s WALL (       9 calls)
     PAW_pot      :      0.86s CPU      0.98s WALL (       9 calls)
     mix_rho      :      0.00s CPU      0.00s WALL (       8 calls)

     Called by c_bands:
     init_us_2    :      0.00s CPU      0.00s WALL (      57 calls)
     cegterg      :      0.06s CPU      0.07s WALL (      24 calls)

     Called by sum_band:
     sum_band:bec :      0.00s CPU      0.00s WALL (      24 calls)
     addusdens    :      0.01s CPU      0.01s WALL (       8 calls)

     Called by *egterg:
     h_psi        :      0.04s CPU      0.04s WALL (      93 calls)
     s_psi        :      0.00s CPU      0.00s WALL (      93 calls)
     g_psi        :      0.00s CPU      0.00s WALL (      66 calls)
     cdiaghg      :      0.02s CPU      0.02s WALL (      90 calls)

     Called by h_psi:
     h_psi:pot    :      0.04s CPU      0.04s WALL (      93 calls)
     h_psi:calbec :      0.00s CPU      0.00s WALL (      93 calls)
     vloc_psi     :      0.03s CPU      0.04s WALL (      93 calls)
     add_vuspsi   :      0.00s CPU      0.00s WALL (      93 calls)

     General routines
     calbec       :      0.00s CPU      0.00s WALL (     132 calls)
     fft          :      0.01s CPU      0.01s WALL (     125 calls)
     ffts         :      0.00s CPU      0.00s WALL (       8 calls)
     fftw         :      0.03s CPU      0.04s WALL (    1516 calls)

     Parallel routines
     fft_scatt_xy :      0.00s CPU      0.00s WALL (    1649 calls)
     fft_scatt_yz :      0.02s CPU      0.02s WALL (    1649 calls)

     PWSCF        :     1.91s CPU         2.10s WALL


   This run was terminated on:   0: 8:29  27Mar2024            

=------------------------------------------------------------------------------=
   JOB DONE.
=------------------------------------------------------------------------------=
