
     Program PWSCF v.6.3MaX starts on 27Mar2024 at  0:16: 6 

     This program is part of the open-source Quantum ESPRESSO suite
     for quantum simulation of materials; please cite
         "P. Giannozzi et al., J. Phys.:Condens. Matter 21 395502 (2009);
         "P. Giannozzi et al., J. Phys.:Condens. Matter 29 465901 (2017);
          URL http://www.quantum-espresso.org", 
     in publications or presentations arising from this work. More details at
     http://www.quantum-espresso.org/quote

     Parallel version (MPI), running on     5 processors

     MPI processes distributed on     1 nodes
     R & G space division:  proc/nbgrp/npool/nimage =       5
     Waiting for input...
     Reading input from standard input

     Current dimensions of program PWSCF are:
     Max number of different atomic species (ntypx) = 10
     Max number of k-points (npk) =  40000
     Max angular momentum in pseudopotentials (lmaxx) =  3

     Subspace diagonalization in iterative solution of the eigenvalue problem:
     a serial algorithm will be used


     Parallelization info
     --------------------
     sticks:   dense  smooth     PW     G-vecs:    dense   smooth      PW
     Min          62      62     21                  765      765     148
     Max          63      63     22                  770      770     151
     Sum         313     313    109                 3839     3839     749



     bravais-lattice index     =            2
     lattice parameter (alat)  =       7.7200  a.u.
     unit-cell volume          =     115.0249 (a.u.)^3
     number of atoms/cell      =            1
     number of atomic types    =            1
     number of electrons       =        11.00
     number of Kohn-Sham states=           10
     kinetic-energy cutoff     =      40.0000  Ry
     charge density cutoff     =     160.0000  Ry
     convergence threshold     =      1.0E-08
     mixing beta               =       0.7000
     number of iterations used =            8  plain     mixing
     Exchange-correlation      = PBE ( 1  4  3  4 0 0)

     celldm(1)=   7.720000  celldm(2)=   0.000000  celldm(3)=   0.000000
     celldm(4)=   0.000000  celldm(5)=   0.000000  celldm(6)=   0.000000

     crystal axes: (cart. coord. in units of alat)
               a(1) = (  -0.500000   0.000000   0.500000 )  
               a(2) = (   0.000000   0.500000   0.500000 )  
               a(3) = (  -0.500000   0.500000   0.000000 )  

     reciprocal axes: (cart. coord. in units 2 pi/alat)
               b(1) = ( -1.000000 -1.000000  1.000000 )  
               b(2) = (  1.000000  1.000000  1.000000 )  
               b(3) = ( -1.000000  1.000000 -1.000000 )  


     PseudoPot. # 1 for Ag read from file:
     /home/lorenzo/pseudos/Ag/Ag.pbe-n-rrkjus_psl.1.0.0.UPF
     MD5 check sum: d841cbfac2b0861aec33b46768a516bf
     Pseudo is Ultrasoft + core correction, Zval = 11.0
     Generated using "atomic" code by A. Dal Corso v.6.2.2
     Using radial grid of 1237 points,  6 beta functions with: 
                l(1) =   0
                l(2) =   0
                l(3) =   1
                l(4) =   1
                l(5) =   2
                l(6) =   2
     Q(r) pseudized with 0 coefficients 


     atomic species   valence    mass     pseudopotential
        Ag            11.00   107.86820     Ag( 1.00)

     48 Sym. Ops., with inversion, found



   Cartesian axes

     site n.     atom                  positions (alat units)
         1           Ag  tau(   1) = (   0.0000000   0.0000000   0.0000000  )

     number of k points=    47  gaussian smearing, width (Ry)=  0.0100
                       cart. coord. in units 2pi/alat
        k(    1) = (   0.0000000   0.0000000   0.0000000), wk =   0.0020000
        k(    2) = (  -0.1000000   0.1000000  -0.1000000), wk =   0.0160000
        k(    3) = (  -0.2000000   0.2000000  -0.2000000), wk =   0.0160000
        k(    4) = (  -0.3000000   0.3000000  -0.3000000), wk =   0.0160000
        k(    5) = (  -0.4000000   0.4000000  -0.4000000), wk =   0.0160000
        k(    6) = (   0.5000000  -0.5000000   0.5000000), wk =   0.0080000
        k(    7) = (   0.0000000   0.2000000   0.0000000), wk =   0.0120000
        k(    8) = (  -0.1000000   0.3000000  -0.1000000), wk =   0.0480000
        k(    9) = (  -0.2000000   0.4000000  -0.2000000), wk =   0.0480000
        k(   10) = (  -0.3000000   0.5000000  -0.3000000), wk =   0.0480000
        k(   11) = (   0.6000000  -0.4000000   0.6000000), wk =   0.0480000
        k(   12) = (   0.5000000  -0.3000000   0.5000000), wk =   0.0480000
        k(   13) = (   0.4000000  -0.2000000   0.4000000), wk =   0.0480000
        k(   14) = (   0.3000000  -0.1000000   0.3000000), wk =   0.0480000
        k(   15) = (   0.2000000   0.0000000   0.2000000), wk =   0.0240000
        k(   16) = (   0.0000000   0.4000000   0.0000000), wk =   0.0120000
        k(   17) = (  -0.1000000   0.5000000  -0.1000000), wk =   0.0480000
        k(   18) = (  -0.2000000   0.6000000  -0.2000000), wk =   0.0480000
        k(   19) = (   0.7000000  -0.3000000   0.7000000), wk =   0.0480000
        k(   20) = (   0.6000000  -0.2000000   0.6000000), wk =   0.0480000
        k(   21) = (   0.5000000  -0.1000000   0.5000000), wk =   0.0480000
        k(   22) = (   0.4000000   0.0000000   0.4000000), wk =   0.0240000
        k(   23) = (   0.0000000   0.6000000   0.0000000), wk =   0.0120000
        k(   24) = (  -0.1000000   0.7000000  -0.1000000), wk =   0.0480000
        k(   25) = (   0.8000000  -0.2000000   0.8000000), wk =   0.0480000
        k(   26) = (   0.7000000  -0.1000000   0.7000000), wk =   0.0480000
        k(   27) = (   0.6000000  -0.0000000   0.6000000), wk =   0.0240000
        k(   28) = (   0.0000000   0.8000000   0.0000000), wk =   0.0120000
        k(   29) = (   0.9000000  -0.1000000   0.9000000), wk =   0.0480000
        k(   30) = (   0.8000000   0.0000000   0.8000000), wk =   0.0240000
        k(   31) = (   0.0000000  -1.0000000   0.0000000), wk =   0.0060000
        k(   32) = (  -0.2000000   0.4000000   0.0000000), wk =   0.0480000
        k(   33) = (  -0.3000000   0.5000000  -0.1000000), wk =   0.0960000
        k(   34) = (   0.6000000  -0.4000000   0.8000000), wk =   0.0960000
        k(   35) = (   0.5000000  -0.3000000   0.7000000), wk =   0.0480000
        k(   36) = (  -0.2000000   0.6000000   0.0000000), wk =   0.0480000
        k(   37) = (   0.7000000  -0.3000000   0.9000000), wk =   0.0960000
        k(   38) = (   0.6000000  -0.2000000   0.8000000), wk =   0.0960000
        k(   39) = (   0.5000000  -0.1000000   0.7000000), wk =   0.0960000
        k(   40) = (   0.4000000   0.0000000   0.6000000), wk =   0.0480000
        k(   41) = (   0.8000000  -0.2000000   1.0000000), wk =   0.0480000
        k(   42) = (   0.7000000  -0.1000000   0.9000000), wk =   0.0960000
        k(   43) = (   0.6000000   0.0000000   0.8000000), wk =   0.0480000
        k(   44) = (  -0.2000000  -1.0000000   0.0000000), wk =   0.0240000
        k(   45) = (   0.6000000  -0.2000000   1.0000000), wk =   0.0480000
        k(   46) = (   0.5000000  -0.1000000   0.9000000), wk =   0.0480000
        k(   47) = (  -0.4000000  -1.0000000   0.0000000), wk =   0.0240000

     Dense  grid:     3839 G-vectors     FFT dimensions: (  24,  24,  24)

     Estimated max dynamical RAM per process >       4.87 MB

     Estimated total dynamical RAM >      24.36 MB

     Initial potential from superposition of free atoms

     starting charge   10.99960, renormalised to   11.00000
     Starting wfcs are    9 randomized atomic wfcs +    1 random wfcs

     total cpu time spent up to now is        1.0 secs

     Self-consistent Calculation

     iteration #  1     ecut=    40.00 Ry     beta= 0.70
     Davidson diagonalization with overlap
     ethr =  1.00E-02,  avg # of iterations =  4.7

     Threshold (ethr) on eigenvalues was too large:
     Diagonalizing with lowered threshold

     Davidson diagonalization with overlap
     ethr =  2.38E-05,  avg # of iterations =  2.4

     total cpu time spent up to now is        1.7 secs

     total energy              =     -84.26455622 Ry
     Harris-Foulkes estimate   =     -84.26600258 Ry
     estimated scf accuracy    <       0.00287629 Ry

     iteration #  2     ecut=    40.00 Ry     beta= 0.70
     Davidson diagonalization with overlap
     ethr =  2.61E-05,  avg # of iterations =  2.0

     total cpu time spent up to now is        2.0 secs

     total energy              =     -84.26513822 Ry
     Harris-Foulkes estimate   =     -84.26606019 Ry
     estimated scf accuracy    <       0.00169059 Ry

     iteration #  3     ecut=    40.00 Ry     beta= 0.70
     Davidson diagonalization with overlap
     ethr =  1.54E-05,  avg # of iterations =  2.0

     total cpu time spent up to now is        2.3 secs

     total energy              =     -84.26554796 Ry
     Harris-Foulkes estimate   =     -84.26554550 Ry
     estimated scf accuracy    <       0.00003306 Ry

     iteration #  4     ecut=    40.00 Ry     beta= 0.70
     Davidson diagonalization with overlap
     ethr =  3.01E-07,  avg # of iterations =  2.3

     total cpu time spent up to now is        2.7 secs

     total energy              =     -84.26555422 Ry
     Harris-Foulkes estimate   =     -84.26555408 Ry
     estimated scf accuracy    <       0.00000020 Ry

     iteration #  5     ecut=    40.00 Ry     beta= 0.70
     Davidson diagonalization with overlap
     ethr =  1.80E-09,  avg # of iterations =  2.7

     total cpu time spent up to now is        3.0 secs

     total energy              =     -84.26555434 Ry
     Harris-Foulkes estimate   =     -84.26555437 Ry
     estimated scf accuracy    <       0.00000007 Ry

     iteration #  6     ecut=    40.00 Ry     beta= 0.70
     Davidson diagonalization with overlap
     ethr =  6.14E-10,  avg # of iterations =  2.1

     total cpu time spent up to now is        3.3 secs

     End of self-consistent calculation

          k = 0.0000 0.0000 0.0000 (   531 PWs)   bands (ev):

     5.0698   8.1017   8.1017   8.1017   9.1394   9.1394  29.8023  33.0939
    33.0939  33.0939

          k =-0.1000 0.1000-0.1000 (   513 PWs)   bands (ev):

     5.3769   8.0372   8.1839   8.1839   9.1124   9.1124  29.4445  31.0010
    33.0702  33.0702

          k =-0.2000 0.2000-0.2000 (   501 PWs)   bands (ev):

     6.1412   8.0416   8.3069   8.3069   9.1505   9.1505  26.0719  30.4665
    32.8716  32.8716

          k =-0.3000 0.3000-0.3000 (   492 PWs)   bands (ev):

     6.5959   8.2551   8.2551   8.9537   9.4402   9.4402  22.1324  29.8294
    32.2666  32.2666

          k =-0.4000 0.4000-0.4000 (   486 PWs)   bands (ev):

     6.5447   8.1314   8.1314   9.7912   9.7912  10.9247  18.5371  29.1205
    31.4670  31.4670

          k = 0.5000-0.5000 0.5000 (   476 PWs)   bands (ev):

     6.4884   8.0770   8.0770   9.9418   9.9418  12.4532  16.4868  28.8430
    31.1063  31.1063

          k = 0.0000 0.2000 0.0000 (   515 PWs)   bands (ev):

     5.4801   7.9415   8.2541   8.2541   8.9856   9.2094  29.8116  31.6870
    31.7519  31.7519

          k =-0.1000 0.3000-0.1000 (   501 PWs)   bands (ev):

     6.1153   7.7983   8.3971   8.4169   8.9501   9.2974  27.5962  30.1917
    30.7105  32.9644

          k =-0.2000 0.4000-0.2000 (   496 PWs)   bands (ev):

     6.7411   8.0436   8.2743   8.4416   9.5415   9.5422  23.6244  29.7133
    29.9515  32.4924

          k =-0.3000 0.5000-0.3000 (   494 PWs)   bands (ev):

     6.7449   8.0729   8.3294   8.8488   9.8450  11.0024  19.8384  28.9561
    29.5866  30.8751

          k = 0.6000-0.4000 0.6000 (   485 PWs)   bands (ev):

     6.6635   7.9739   8.2317   9.3530   9.9521  12.9768  16.8735  28.2422
    29.8601  29.9210

          k = 0.5000-0.3000 0.5000 (   490 PWs)   bands (ev):

     6.6947   8.0103   8.2293   9.3773   9.7532  12.4036  17.6897  27.7992
    29.9143  30.9675

          k = 0.4000-0.2000 0.4000 (   497 PWs)   bands (ev):

     6.8070   8.1340   8.3319   8.7994   9.3375  10.6164  21.0744  27.8073
    30.7604  32.9045

          k = 0.3000-0.1000 0.3000 (   497 PWs)   bands (ev):

     6.6256   7.9057   8.3699   8.4430   8.9523   9.6645  24.9599  28.1984
    32.1619  34.3257

          k = 0.2000 0.0000 0.2000 (   505 PWs)   bands (ev):

     5.8561   7.9048   8.3058   8.3289   8.9574   9.2544  28.7405  28.9171
    32.2787  34.5168

          k = 0.0000 0.4000 0.0000 (   496 PWs)   bands (ev):

     6.4993   7.5402   8.6858   8.6858   8.7933   9.3958  29.0367  29.0367
    29.8470  29.9175

          k =-0.1000 0.5000-0.1000 (   494 PWs)   bands (ev):

     6.9753   7.3981   8.5217   8.8492   9.5961   9.6445  25.4472  27.8965
    28.8919  30.4123

          k =-0.2000 0.6000-0.2000 (   496 PWs)   bands (ev):

     6.9953   7.6660   8.3894   8.7826   9.8874  11.3420  21.5710  27.1512
    27.3998  29.9741

          k = 0.7000-0.3000 0.7000 (   490 PWs)   bands (ev):

     6.9671   7.7592   8.5605   8.6590   9.9804  13.6588  18.1142  25.5995
    27.6989  29.6943

          k = 0.6000-0.2000 0.6000 (   492 PWs)   bands (ev):

     7.0654   7.7777   8.5893   8.6670   9.7560  14.4674  17.2759  24.5378
    28.8653  29.7703

          k = 0.5000-0.1000 0.5000 (   497 PWs)   bands (ev):

     7.2669   7.8738   8.3879   8.6187   9.3060  12.3459  20.5057  24.1048
    30.3738  30.7876

          k = 0.4000 0.0000 0.4000 (   497 PWs)   bands (ev):

     7.3303   7.6853   8.2615   8.7294   8.8351  10.7179  24.1455  24.4332
    31.5261  33.1834

          k = 0.0000 0.6000 0.0000 (   488 PWs)   bands (ev):

     6.9166   7.0762   9.3022   9.3022   9.6328   9.9098  26.3724  26.3724
    26.7123  29.9055

          k =-0.1000 0.7000-0.1000 (   487 PWs)   bands (ev):

     6.8554   6.9974   9.2097   9.3666   9.8953  11.6442  23.5052  24.5811
    25.5770  29.9723

          k = 0.8000-0.2000 0.8000 (   484 PWs)   bands (ev):

     6.8597   7.2173   8.9021   9.2396  10.0210  14.0654  20.0641  22.7951
    25.6877  29.8443

          k = 0.7000-0.1000 0.7000 (   489 PWs)   bands (ev):

     7.0356   7.5704   8.5083   9.0940   9.8208  16.6921  17.3001  21.4625
    26.7366  29.8057

          k = 0.6000-0.0000 0.6000 (   492 PWs)   bands (ev):

     7.3301   7.9614   8.0354   8.9212   9.4729  14.4422  20.0436  21.0000
    28.5440  29.9814

          k = 0.0000 0.8000 0.0000 (   488 PWs)   bands (ev):

     6.6072   6.7230   9.8299   9.8947   9.8947  12.4947  22.2446  24.4401
    24.4401  29.9585

          k = 0.9000-0.1000 0.9000 (   482 PWs)   bands (ev):

     6.5861   6.7360   9.7438   9.7449  10.0807  14.3396  20.4875  22.4240
    24.2511  29.9761

          k = 0.8000 0.0000 0.8000 (   486 PWs)   bands (ev):

     6.7551   7.0642   9.1524   9.5260   9.9689  16.3537  19.3794  20.0323
    25.0827  29.8884

          k = 0.0000-1.0000 0.0000 (   468 PWs)   bands (ev):

     6.4447   6.5930   9.9068  10.1522  10.1522  14.4808  19.6143  23.7213
    23.7213  29.9821

          k =-0.2000 0.4000 0.0000 (   496 PWs)   bands (ev):

     6.7775   7.6095   8.3358   8.6866   8.9944   9.6888  26.5487  26.8199
    31.3507  32.2313

          k =-0.3000 0.5000-0.1000 (   497 PWs)   bands (ev):

     7.1303   7.8741   8.0915   8.7305   9.3598  10.7555  22.7240  26.1641
    29.5140  32.5153

          k = 0.6000-0.4000 0.8000 (   492 PWs)   bands (ev):

     7.0098   7.8663   8.4344   8.6866   9.7533  12.6037  19.0723  26.1390
    27.9125  31.6368

          k = 0.5000-0.3000 0.7000 (   486 PWs)   bands (ev):

     6.9538   7.7785   8.4975   8.8328   9.8831  14.3932  16.6876  26.6734
    26.8030  31.2370

          k =-0.2000 0.6000 0.0000 (   491 PWs)   bands (ev):

     7.1746   7.2157   8.4942   9.2949   9.4949  10.9319  24.5455  24.7541
    26.9582  31.7793

          k = 0.7000-0.3000 0.9000 (   491 PWs)   bands (ev):

     7.1101   7.4429   8.3436   9.1994   9.8057  12.9345  20.9512  24.4362
    25.1180  31.8676

          k = 0.6000-0.2000 0.8000 (   489 PWs)   bands (ev):

     7.1824   7.5820   8.3126   8.9792   9.9033  15.4740  17.7007  23.5728
    25.0450  31.8110

          k = 0.5000-0.1000 0.7000 (   493 PWs)   bands (ev):

     7.4064   7.6183   8.1521   8.9371   9.6973  14.6825  18.8155  22.6389
    26.1998  32.2806

          k = 0.4000 0.0000 0.6000 (   489 PWs)   bands (ev):

     7.5928   7.7248   7.8067   9.0670   9.3084  12.4645  22.3077  22.3925
    27.7598  33.3315

          k = 0.8000-0.2000 1.0000 (   483 PWs)   bands (ev):

     6.8311   6.9078   9.1079   9.7344   9.8912  13.4084  22.3185  23.1176
    23.2742  31.4917

          k = 0.7000-0.1000 0.9000 (   486 PWs)   bands (ev):

     6.9162   7.1568   8.7812   9.4335  10.0379  15.8274  19.8499  21.0096
    23.5452  31.7496

          k = 0.6000 0.0000 0.8000 (   493 PWs)   bands (ev):

     7.1511   7.5640   8.2802   9.1689   9.8872  17.1037  18.3193  20.2945
    24.6567  31.9720

          k =-0.2000-1.0000 0.0000 (   484 PWs)   bands (ev):

     6.6590   6.7932   9.4764   9.6940  10.1523  15.4977  19.6744  22.4832
    22.6307  31.4041

          k = 0.6000-0.2000 1.0000 (   487 PWs)   bands (ev):

     7.2998   7.4486   8.1091   9.2758   9.8837  15.1134  20.7219  21.2524
    23.4067  34.6231

          k = 0.5000-0.1000 0.9000 (   490 PWs)   bands (ev):

     7.2861   7.6863   7.9328   9.1303  10.0255  17.6883  17.8771  21.5345
    22.3826  34.5460

          k =-0.4000-1.0000 0.0000 (   492 PWs)   bands (ev):

     7.1029   7.3866   8.3340   9.2476  10.1529  17.6320  19.8749  20.1086
    21.3060  34.4403

     the Fermi energy is    12.8252 ev

!    total energy              =     -84.26555435 Ry
     Harris-Foulkes estimate   =     -84.26555435 Ry
     estimated scf accuracy    <          7.6E-10 Ry

     The total energy is the sum of the following terms:

     one-electron contribution =      -4.71031830 Ry
     hartree contribution      =      14.65729486 Ry
     xc contribution           =     -22.35115025 Ry
     ewald contribution        =     -71.86118024 Ry
     smearing contrib. (-TS)   =      -0.00020042 Ry

     convergence has been achieved in   6 iterations

     Forces acting on atoms (cartesian axes, Ry/au):

     atom    1 type  1   force =     0.00000000    0.00000000    0.00000000

     Total force =     0.000000     Total SCF correction =     0.000000


     Computing stress (Cartesian axis) and pressure

          total   stress  (Ry/bohr**3)                   (kbar)     P=   48.15
   0.00032729   0.00000000   0.00000000         48.15      0.00      0.00
   0.00000000   0.00032729  -0.00000000          0.00     48.15     -0.00
   0.00000000  -0.00000000   0.00032729          0.00     -0.00     48.15


     Writing output data file Ag.save/

     init_run     :      0.24s CPU      0.25s WALL (       1 calls)
     electrons    :      2.20s CPU      2.34s WALL (       1 calls)
     forces       :      0.03s CPU      0.03s WALL (       1 calls)
     stress       :      0.10s CPU      0.10s WALL (       1 calls)

     Called by init_run:
     wfcinit      :      0.10s CPU      0.11s WALL (       1 calls)
     potinit      :      0.01s CPU      0.01s WALL (       1 calls)
     hinit0       :      0.13s CPU      0.13s WALL (       1 calls)

     Called by electrons:
     c_bands      :      1.82s CPU      1.94s WALL (       7 calls)
     sum_band     :      0.33s CPU      0.34s WALL (       7 calls)
     v_of_rho     :      0.02s CPU      0.02s WALL (       7 calls)
     newd         :      0.03s CPU      0.03s WALL (       7 calls)
     mix_rho      :      0.00s CPU      0.00s WALL (       7 calls)

     Called by c_bands:
     init_us_2    :      0.05s CPU      0.05s WALL (     799 calls)
     cegterg      :      1.74s CPU      1.86s WALL (     329 calls)

     Called by sum_band:
     sum_band:bec :      0.00s CPU      0.00s WALL (     329 calls)
     addusdens    :      0.03s CPU      0.03s WALL (       7 calls)

     Called by *egterg:
     h_psi        :      1.33s CPU      1.43s WALL (    1230 calls)
     s_psi        :      0.04s CPU      0.04s WALL (    1230 calls)
     g_psi        :      0.00s CPU      0.00s WALL (     854 calls)
     cdiaghg      :      0.24s CPU      0.25s WALL (    1136 calls)

     Called by h_psi:
     h_psi:pot    :      1.33s CPU      1.42s WALL (    1230 calls)
     h_psi:calbec :      0.06s CPU      0.07s WALL (    1230 calls)
     vloc_psi     :      1.22s CPU      1.30s WALL (    1230 calls)
     add_vuspsi   :      0.04s CPU      0.04s WALL (    1230 calls)

     General routines
     calbec       :      0.10s CPU      0.11s WALL (    1794 calls)
     fft          :      0.01s CPU      0.01s WALL (     104 calls)
     ffts         :      0.00s CPU      0.00s WALL (       7 calls)
     fftw         :      1.35s CPU      1.44s WALL (   20628 calls)

     Parallel routines
     fft_scatt_xy :      0.12s CPU      0.13s WALL (   20739 calls)
     fft_scatt_yz :      0.46s CPU      0.49s WALL (   20739 calls)

     PWSCF        :     3.33s CPU         3.54s WALL


   This run was terminated on:   0:16:10  27Mar2024            

=------------------------------------------------------------------------------=
   JOB DONE.
=------------------------------------------------------------------------------=
