
     Program PWSCF v.6.3MaX starts on 27Mar2024 at  0: 2:30 

     This program is part of the open-source Quantum ESPRESSO suite
     for quantum simulation of materials; please cite
         "P. Giannozzi et al., J. Phys.:Condens. Matter 21 395502 (2009);
         "P. Giannozzi et al., J. Phys.:Condens. Matter 29 465901 (2017);
          URL http://www.quantum-espresso.org", 
     in publications or presentations arising from this work. More details at
     http://www.quantum-espresso.org/quote

     Parallel version (MPI), running on     5 processors

     MPI processes distributed on     1 nodes
     R & G space division:  proc/nbgrp/npool/nimage =       5
     Waiting for input...
     Reading input from standard input

     Current dimensions of program PWSCF are:
     Max number of different atomic species (ntypx) = 10
     Max number of k-points (npk) =  40000
     Max angular momentum in pseudopotentials (lmaxx) =  3
               file Ag.pbe-n-kjpaw_psl.1.0.0.UPF: wavefunction(s)  5S 5P renormalized

     Subspace diagonalization in iterative solution of the eigenvalue problem:
     a serial algorithm will be used


     Parallelization info
     --------------------
     sticks:   dense  smooth     PW     G-vecs:    dense   smooth      PW
     Min         164     164     50                 3117     3117     527
     Max         165     165     51                 3120     3120     528
     Sum         823     823    253                15593    15593    2637



     bravais-lattice index     =            2
     lattice parameter (alat)  =       7.7200  a.u.
     unit-cell volume          =     115.0249 (a.u.)^3
     number of atoms/cell      =            1
     number of atomic types    =            1
     number of electrons       =        11.00
     number of Kohn-Sham states=           10
     kinetic-energy cutoff     =     100.0000  Ry
     charge density cutoff     =     400.0000  Ry
     convergence threshold     =      1.0E-08
     mixing beta               =       0.7000
     number of iterations used =            8  plain     mixing
     Exchange-correlation      = SLA PW PBX PBC ( 1  4  3  4 0 0)

     celldm(1)=   7.720000  celldm(2)=   0.000000  celldm(3)=   0.000000
     celldm(4)=   0.000000  celldm(5)=   0.000000  celldm(6)=   0.000000

     crystal axes: (cart. coord. in units of alat)
               a(1) = (  -0.500000   0.000000   0.500000 )  
               a(2) = (   0.000000   0.500000   0.500000 )  
               a(3) = (  -0.500000   0.500000   0.000000 )  

     reciprocal axes: (cart. coord. in units 2 pi/alat)
               b(1) = ( -1.000000 -1.000000  1.000000 )  
               b(2) = (  1.000000  1.000000  1.000000 )  
               b(3) = ( -1.000000  1.000000 -1.000000 )  


     PseudoPot. # 1 for Ag read from file:
     /home/lorenzo/pseudos/Ag/Ag.pbe-n-kjpaw_psl.1.0.0.UPF
     MD5 check sum: 51099775af2a3182a6a1caffb86952a3
     Pseudo is Projector augmented-wave + core cor, Zval = 11.0
     Generated using "atomic" code by A. Dal Corso v.6.2.2
     Shape of augmentation charge: PSQ
     Using radial grid of 1237 points,  6 beta functions with: 
                l(1) =   0
                l(2) =   0
                l(3) =   1
                l(4) =   1
                l(5) =   2
                l(6) =   2
     Q(r) pseudized with 0 coefficients 


     atomic species   valence    mass     pseudopotential
        Ag            11.00   107.86820     Ag( 1.00)

     48 Sym. Ops., with inversion, found



   Cartesian axes

     site n.     atom                  positions (alat units)
         1           Ag  tau(   1) = (   0.0000000   0.0000000   0.0000000  )

     number of k points=    10  gaussian smearing, width (Ry)=  0.0100
                       cart. coord. in units 2pi/alat
        k(    1) = (   0.0000000   0.0000000   0.0000000), wk =   0.0160000
        k(    2) = (  -0.2000000   0.2000000  -0.2000000), wk =   0.1280000
        k(    3) = (  -0.4000000   0.4000000  -0.4000000), wk =   0.1280000
        k(    4) = (   0.0000000   0.4000000   0.0000000), wk =   0.0960000
        k(    5) = (  -0.2000000   0.6000000  -0.2000000), wk =   0.3840000
        k(    6) = (   0.6000000  -0.2000000   0.6000000), wk =   0.3840000
        k(    7) = (   0.4000000   0.0000000   0.4000000), wk =   0.1920000
        k(    8) = (   0.0000000   0.8000000   0.0000000), wk =   0.0960000
        k(    9) = (   0.8000000   0.0000000   0.8000000), wk =   0.1920000
        k(   10) = (   0.6000000  -0.2000000   1.0000000), wk =   0.3840000

     Dense  grid:    15593 G-vectors     FFT dimensions: (  36,  36,  36)

     Estimated max dynamical RAM per process >      14.31 MB

     Estimated total dynamical RAM >      71.54 MB

     Initial potential from superposition of free atoms

     starting charge   10.99960, renormalised to   11.00000
     Starting wfcs are    9 randomized atomic wfcs +    1 random wfcs
     Checking if some PAW data can be deallocated... 

     total cpu time spent up to now is        1.3 secs

     Self-consistent Calculation

     iteration #  1     ecut=   100.00 Ry     beta= 0.70
     Davidson diagonalization with overlap
     ethr =  1.00E-02,  avg # of iterations =  5.0

     Threshold (ethr) on eigenvalues was too large:
     Diagonalizing with lowered threshold

     Davidson diagonalization with overlap
     ethr =  2.43E-05,  avg # of iterations =  2.3

     total cpu time spent up to now is        1.8 secs

     total energy              =    -355.31452125 Ry
     Harris-Foulkes estimate   =    -355.31624143 Ry
     estimated scf accuracy    <       0.00306848 Ry

     iteration #  2     ecut=   100.00 Ry     beta= 0.70
     Davidson diagonalization with overlap
     ethr =  2.79E-05,  avg # of iterations =  2.0

     total cpu time spent up to now is        2.2 secs

     total energy              =    -355.31541449 Ry
     Harris-Foulkes estimate   =    -355.31644517 Ry
     estimated scf accuracy    <       0.00222083 Ry

     iteration #  3     ecut=   100.00 Ry     beta= 0.70
     Davidson diagonalization with overlap
     ethr =  2.02E-05,  avg # of iterations =  1.6

     total cpu time spent up to now is        2.5 secs

     total energy              =    -355.31584317 Ry
     Harris-Foulkes estimate   =    -355.31582192 Ry
     estimated scf accuracy    <       0.00001489 Ry

     iteration #  4     ecut=   100.00 Ry     beta= 0.70
     Davidson diagonalization with overlap
     ethr =  1.35E-07,  avg # of iterations =  2.9

     total cpu time spent up to now is        2.8 secs

     total energy              =    -355.31584895 Ry
     Harris-Foulkes estimate   =    -355.31584876 Ry
     estimated scf accuracy    <       0.00000032 Ry

     iteration #  5     ecut=   100.00 Ry     beta= 0.70
     Davidson diagonalization with overlap
     ethr =  2.90E-09,  avg # of iterations =  1.5

     total cpu time spent up to now is        3.0 secs

     End of self-consistent calculation

          k = 0.0000 0.0000 0.0000 (  1917 PWs)   bands (ev):

     5.0663   8.0869   8.0869   8.0869   9.1256   9.1256  29.8004  33.0882
    33.0882  33.0882

          k =-0.2000 0.2000-0.2000 (  1943 PWs)   bands (ev):

     6.1364   8.0284   8.2923   8.2923   9.1364   9.1364  26.0627  30.4634
    32.8632  32.8632

          k =-0.4000 0.4000-0.4000 (  1937 PWs)   bands (ev):

     6.5342   8.1176   8.1176   9.7756   9.7756  10.9179  18.5271  29.1184
    31.4604  31.4604

          k = 0.0000 0.4000 0.0000 (  1956 PWs)   bands (ev):

     6.4944   7.5262   8.6706   8.6706   8.7809   9.3819  29.0280  29.0280
    29.8402  29.9122

          k =-0.2000 0.6000-0.2000 (  1958 PWs)   bands (ev):

     6.9839   7.6542   8.3765   8.7683   9.8723  11.3318  21.5621  27.1437
    27.3923  29.9660

          k = 0.6000-0.2000 0.6000 (  1941 PWs)   bands (ev):

     7.0536   7.7651   8.5755   8.6539   9.7403  14.4587  17.2662  24.5296
    28.8579  29.7648

          k = 0.4000 0.0000 0.4000 (  1947 PWs)   bands (ev):

     7.3222   7.6717   8.2492   8.7161   8.8196  10.7053  24.1376  24.4228
    31.5222  33.1749

          k = 0.0000 0.8000 0.0000 (  1964 PWs)   bands (ev):

     6.5969   6.7101   9.8158   9.8787   9.8787  12.4884  22.2355  24.4340
    24.4340  29.9459

          k = 0.8000 0.0000 0.8000 (  1930 PWs)   bands (ev):

     6.7435   7.0522   9.1381   9.5122   9.9524  16.3457  19.3718  20.0230
    25.0764  29.8783

          k = 0.6000-0.2000 1.0000 (  1928 PWs)   bands (ev):

     7.2885   7.4354   8.0961   9.2622   9.8675  15.1043  20.7128  21.2449
    23.3979  34.6167

     the Fermi energy is    12.5086 ev

!    total energy              =    -355.31584897 Ry
     Harris-Foulkes estimate   =    -355.31584898 Ry
     estimated scf accuracy    <          1.0E-08 Ry

     total all-electron energy =    -10632.281903 Ry

     The total energy is the sum of the following terms:

     one-electron contribution =       1.54576820 Ry
     hartree contribution      =      14.67213707 Ry
     xc contribution           =     -22.35529540 Ry
     ewald contribution        =     -71.86118018 Ry
     one-center paw contrib.   =    -277.31701378 Ry
     smearing contrib. (-TS)   =      -0.00026488 Ry

     convergence has been achieved in   5 iterations

     Forces acting on atoms (cartesian axes, Ry/au):

     atom    1 type  1   force =     0.00000000    0.00000000    0.00000000

     Total force =     0.000000     Total SCF correction =     0.000000


     Computing stress (Cartesian axis) and pressure

          total   stress  (Ry/bohr**3)                   (kbar)     P=   42.80
   0.00029098  -0.00000000  -0.00000000         42.80     -0.00     -0.00
  -0.00000000   0.00029098   0.00000000         -0.00     42.80      0.00
  -0.00000000   0.00000000   0.00029098         -0.00      0.00     42.80


     Writing output data file Ag.save/

     init_run     :      0.41s CPU      0.45s WALL (       1 calls)
     electrons    :      1.70s CPU      1.79s WALL (       1 calls)
     forces       :      0.06s CPU      0.06s WALL (       1 calls)
     stress       :      0.18s CPU      0.18s WALL (       1 calls)

     Called by init_run:
     wfcinit      :      0.06s CPU      0.07s WALL (       1 calls)
     potinit      :      0.11s CPU      0.12s WALL (       1 calls)
     hinit0       :      0.21s CPU      0.21s WALL (       1 calls)

     Called by electrons:
     c_bands      :      0.87s CPU      0.92s WALL (       6 calls)
     sum_band     :      0.25s CPU      0.26s WALL (       6 calls)
     v_of_rho     :      0.05s CPU      0.05s WALL (       6 calls)
     newd         :      0.08s CPU      0.09s WALL (       6 calls)
     PAW_pot      :      0.55s CPU      0.58s WALL (       6 calls)
     mix_rho      :      0.00s CPU      0.00s WALL (       6 calls)

     Called by c_bands:
     init_us_2    :      0.03s CPU      0.03s WALL (     150 calls)
     cegterg      :      0.83s CPU      0.88s WALL (      60 calls)

     Called by sum_band:
     sum_band:bec :      0.00s CPU      0.00s WALL (      60 calls)
     addusdens    :      0.09s CPU      0.09s WALL (       6 calls)

     Called by *egterg:
     h_psi        :      0.71s CPU      0.76s WALL (     223 calls)
     s_psi        :      0.02s CPU      0.02s WALL (     223 calls)
     g_psi        :      0.00s CPU      0.00s WALL (     153 calls)
     cdiaghg      :      0.04s CPU      0.05s WALL (     203 calls)

     Called by h_psi:
     h_psi:pot    :      0.71s CPU      0.75s WALL (     223 calls)
     h_psi:calbec :      0.04s CPU      0.04s WALL (     223 calls)
     vloc_psi     :      0.65s CPU      0.69s WALL (     223 calls)
     add_vuspsi   :      0.02s CPU      0.02s WALL (     223 calls)

     General routines
     calbec       :      0.06s CPU      0.06s WALL (     333 calls)
     fft          :      0.03s CPU      0.04s WALL (      93 calls)
     ffts         :      0.00s CPU      0.00s WALL (       6 calls)
     fftw         :      0.72s CPU      0.76s WALL (    3774 calls)

     Parallel routines
     fft_scatt_xy :      0.06s CPU      0.06s WALL (    3873 calls)
     fft_scatt_yz :      0.18s CPU      0.20s WALL (    3873 calls)

     PWSCF        :     3.18s CPU         3.34s WALL


   This run was terminated on:   0: 2:34  27Mar2024            

=------------------------------------------------------------------------------=
   JOB DONE.
=------------------------------------------------------------------------------=
