
     Program PWSCF v.6.3MaX starts on 27Mar2024 at  0: 4:36 

     This program is part of the open-source Quantum ESPRESSO suite
     for quantum simulation of materials; please cite
         "P. Giannozzi et al., J. Phys.:Condens. Matter 21 395502 (2009);
         "P. Giannozzi et al., J. Phys.:Condens. Matter 29 465901 (2017);
          URL http://www.quantum-espresso.org", 
     in publications or presentations arising from this work. More details at
     http://www.quantum-espresso.org/quote

     Parallel version (MPI), running on     5 processors

     MPI processes distributed on     1 nodes
     R & G space division:  proc/nbgrp/npool/nimage =       5
     Waiting for input...
     Reading input from standard input

     Current dimensions of program PWSCF are:
     Max number of different atomic species (ntypx) = 10
     Max number of k-points (npk) =  40000
     Max angular momentum in pseudopotentials (lmaxx) =  3

     Subspace diagonalization in iterative solution of the eigenvalue problem:
     a serial algorithm will be used


     Parallelization info
     --------------------
     sticks:   dense  smooth     PW     G-vecs:    dense   smooth      PW
     Min          17      17      7                  106      106      27
     Max          17      17      8                  107      107      28
     Sum          85      85     37                  531      531     137



     bravais-lattice index     =            2
     lattice parameter (alat)  =       7.7200  a.u.
     unit-cell volume          =     115.0249 (a.u.)^3
     number of atoms/cell      =            1
     number of atomic types    =            1
     number of electrons       =        11.00
     number of Kohn-Sham states=           10
     kinetic-energy cutoff     =      10.0000  Ry
     charge density cutoff     =      40.0000  Ry
     convergence threshold     =      1.0E-08
     mixing beta               =       0.7000
     number of iterations used =            8  plain     mixing
     Exchange-correlation      = PBESOL ( 1  4 10  8 0 0)

     celldm(1)=   7.720000  celldm(2)=   0.000000  celldm(3)=   0.000000
     celldm(4)=   0.000000  celldm(5)=   0.000000  celldm(6)=   0.000000

     crystal axes: (cart. coord. in units of alat)
               a(1) = (  -0.500000   0.000000   0.500000 )  
               a(2) = (   0.000000   0.500000   0.500000 )  
               a(3) = (  -0.500000   0.500000   0.000000 )  

     reciprocal axes: (cart. coord. in units 2 pi/alat)
               b(1) = ( -1.000000 -1.000000  1.000000 )  
               b(2) = (  1.000000  1.000000  1.000000 )  
               b(3) = ( -1.000000  1.000000 -1.000000 )  


     PseudoPot. # 1 for Ag read from file:
     /home/lorenzo/pseudos/Ag/Ag.pbesol-n-rrkjus_psl.1.0.0.UPF
     MD5 check sum: 3b43e8aa747a56f565f44d11355b8b45
     Pseudo is Ultrasoft + core correction, Zval = 11.0
     Generated using "atomic" code by A. Dal Corso v.6.2.2
     Using radial grid of 1237 points,  6 beta functions with: 
                l(1) =   0
                l(2) =   0
                l(3) =   1
                l(4) =   1
                l(5) =   2
                l(6) =   2
     Q(r) pseudized with 0 coefficients 


     atomic species   valence    mass     pseudopotential
        Ag            11.00   107.86820     Ag( 1.00)

     48 Sym. Ops., with inversion, found



   Cartesian axes

     site n.     atom                  positions (alat units)
         1           Ag  tau(   1) = (   0.0000000   0.0000000   0.0000000  )

     number of k points=    56  gaussian smearing, width (Ry)=  0.0100
                       cart. coord. in units 2pi/alat
        k(    1) = (   0.0000000   0.0000000   0.0000000), wk =   0.0015026
        k(    2) = (  -0.0909091   0.0909091  -0.0909091), wk =   0.0120210
        k(    3) = (  -0.1818182   0.1818182  -0.1818182), wk =   0.0120210
        k(    4) = (  -0.2727273   0.2727273  -0.2727273), wk =   0.0120210
        k(    5) = (  -0.3636364   0.3636364  -0.3636364), wk =   0.0120210
        k(    6) = (  -0.4545455   0.4545455  -0.4545455), wk =   0.0120210
        k(    7) = (   0.0000000   0.1818182   0.0000000), wk =   0.0090158
        k(    8) = (  -0.0909091   0.2727273  -0.0909091), wk =   0.0360631
        k(    9) = (  -0.1818182   0.3636364  -0.1818182), wk =   0.0360631
        k(   10) = (  -0.2727273   0.4545455  -0.2727273), wk =   0.0360631
        k(   11) = (  -0.3636364   0.5454545  -0.3636364), wk =   0.0360631
        k(   12) = (   0.5454545  -0.3636364   0.5454545), wk =   0.0360631
        k(   13) = (   0.4545455  -0.2727273   0.4545455), wk =   0.0360631
        k(   14) = (   0.3636364  -0.1818182   0.3636364), wk =   0.0360631
        k(   15) = (   0.2727273  -0.0909091   0.2727273), wk =   0.0360631
        k(   16) = (   0.1818182  -0.0000000   0.1818182), wk =   0.0180316
        k(   17) = (   0.0000000   0.3636364   0.0000000), wk =   0.0090158
        k(   18) = (  -0.0909091   0.4545455  -0.0909091), wk =   0.0360631
        k(   19) = (  -0.1818182   0.5454545  -0.1818182), wk =   0.0360631
        k(   20) = (  -0.2727273   0.6363636  -0.2727273), wk =   0.0360631
        k(   21) = (   0.6363636  -0.2727273   0.6363636), wk =   0.0360631
        k(   22) = (   0.5454545  -0.1818182   0.5454545), wk =   0.0360631
        k(   23) = (   0.4545455  -0.0909091   0.4545455), wk =   0.0360631
        k(   24) = (   0.3636364   0.0000000   0.3636364), wk =   0.0180316
        k(   25) = (   0.0000000   0.5454545   0.0000000), wk =   0.0090158
        k(   26) = (  -0.0909091   0.6363636  -0.0909091), wk =   0.0360631
        k(   27) = (  -0.1818182   0.7272727  -0.1818182), wk =   0.0360631
        k(   28) = (   0.7272727  -0.1818182   0.7272727), wk =   0.0360631
        k(   29) = (   0.6363636  -0.0909091   0.6363636), wk =   0.0360631
        k(   30) = (   0.5454545   0.0000000   0.5454545), wk =   0.0180316
        k(   31) = (   0.0000000   0.7272727   0.0000000), wk =   0.0090158
        k(   32) = (  -0.0909091   0.8181818  -0.0909091), wk =   0.0360631
        k(   33) = (   0.8181818  -0.0909091   0.8181818), wk =   0.0360631
        k(   34) = (   0.7272727   0.0000000   0.7272727), wk =   0.0180316
        k(   35) = (   0.0000000   0.9090909   0.0000000), wk =   0.0090158
        k(   36) = (   0.9090909  -0.0000000   0.9090909), wk =   0.0180316
        k(   37) = (  -0.1818182   0.3636364   0.0000000), wk =   0.0360631
        k(   38) = (  -0.2727273   0.4545455  -0.0909091), wk =   0.0721262
        k(   39) = (  -0.3636364   0.5454545  -0.1818182), wk =   0.0721262
        k(   40) = (   0.5454545  -0.3636364   0.7272727), wk =   0.0721262
        k(   41) = (  -0.1818182   0.5454545   0.0000000), wk =   0.0360631
        k(   42) = (  -0.2727273   0.6363636  -0.0909091), wk =   0.0721262
        k(   43) = (   0.6363636  -0.2727273   0.8181818), wk =   0.0721262
        k(   44) = (   0.5454545  -0.1818182   0.7272727), wk =   0.0721262
        k(   45) = (   0.4545455  -0.0909091   0.6363636), wk =   0.0721262
        k(   46) = (   0.3636364   0.0000000   0.5454545), wk =   0.0360631
        k(   47) = (  -0.1818182   0.7272727   0.0000000), wk =   0.0360631
        k(   48) = (   0.7272727  -0.1818182   0.9090909), wk =   0.0721262
        k(   49) = (   0.6363636  -0.0909091   0.8181818), wk =   0.0721262
        k(   50) = (   0.5454545   0.0000000   0.7272727), wk =   0.0360631
        k(   51) = (   0.8181818  -0.0909091   1.0000000), wk =   0.0360631
        k(   52) = (   0.7272727   0.0000000   0.9090909), wk =   0.0360631
        k(   53) = (   0.6363636  -0.2727273   1.0000000), wk =   0.0360631
        k(   54) = (   0.5454545  -0.1818182   0.9090909), wk =   0.0721262
        k(   55) = (   0.6363636  -0.0909091   1.0000000), wk =   0.0360631
        k(   56) = (   0.5454545   0.0000000   0.9090909), wk =   0.0360631

     Dense  grid:      531 G-vectors     FFT dimensions: (  12,  12,  12)

     Estimated max dynamical RAM per process >       1.14 MB

     Estimated total dynamical RAM >       5.68 MB

     Initial potential from superposition of free atoms
     Check: negative starting charge=   -0.000249

     starting charge   10.99964, renormalised to   11.00000

     negative rho (up, down):  2.491E-04 0.000E+00
     Starting wfcs are    9 randomized atomic wfcs +    1 random wfcs

     total cpu time spent up to now is        0.8 secs

     Self-consistent Calculation

     iteration #  1     ecut=    10.00 Ry     beta= 0.70
     Davidson diagonalization with overlap
     ethr =  1.00E-02,  avg # of iterations =  4.2

     total cpu time spent up to now is        1.1 secs

     total energy              =     -69.15260940 Ry
     Harris-Foulkes estimate   =     -77.30145434 Ry
     estimated scf accuracy    <      10.42816275 Ry

     iteration #  2     ecut=    10.00 Ry     beta= 0.70
     Davidson diagonalization with overlap
     ethr =  1.00E-02,  avg # of iterations =  3.0

     total cpu time spent up to now is        1.2 secs

     total energy              =     -71.55821285 Ry
     Harris-Foulkes estimate   =     -71.69024338 Ry
     estimated scf accuracy    <       0.47240195 Ry

     iteration #  3     ecut=    10.00 Ry     beta= 0.70
     Davidson diagonalization with overlap
     ethr =  4.29E-03,  avg # of iterations =  1.0

     total cpu time spent up to now is        1.3 secs

     total energy              =     -71.57661036 Ry
     Harris-Foulkes estimate   =     -71.57861660 Ry
     estimated scf accuracy    <       0.03450413 Ry

     iteration #  4     ecut=    10.00 Ry     beta= 0.70
     Davidson diagonalization with overlap
     ethr =  3.14E-04,  avg # of iterations =  1.1

     total cpu time spent up to now is        1.5 secs

     total energy              =     -71.57735480 Ry
     Harris-Foulkes estimate   =     -71.57737960 Ry
     estimated scf accuracy    <       0.00004424 Ry

     iteration #  5     ecut=    10.00 Ry     beta= 0.70
     Davidson diagonalization with overlap
     ethr =  4.02E-07,  avg # of iterations =  4.0

     total cpu time spent up to now is        1.7 secs

     total energy              =     -71.57785184 Ry
     Harris-Foulkes estimate   =     -71.57785833 Ry
     estimated scf accuracy    <       0.00001244 Ry

     iteration #  6     ecut=    10.00 Ry     beta= 0.70
     Davidson diagonalization with overlap
     ethr =  1.13E-07,  avg # of iterations =  1.0

     total cpu time spent up to now is        1.8 secs

     total energy              =     -71.57785064 Ry
     Harris-Foulkes estimate   =     -71.57785245 Ry
     estimated scf accuracy    <       0.00000260 Ry

     iteration #  7     ecut=    10.00 Ry     beta= 0.70
     Davidson diagonalization with overlap
     ethr =  2.37E-08,  avg # of iterations =  3.0

     total cpu time spent up to now is        2.0 secs

     total energy              =     -71.57785127 Ry
     Harris-Foulkes estimate   =     -71.57785146 Ry
     estimated scf accuracy    <       0.00000028 Ry

     iteration #  8     ecut=    10.00 Ry     beta= 0.70
     Davidson diagonalization with overlap
     ethr =  2.58E-09,  avg # of iterations =  2.5

     total cpu time spent up to now is        2.1 secs

     total energy              =     -71.57785132 Ry
     Harris-Foulkes estimate   =     -71.57785134 Ry
     estimated scf accuracy    <       0.00000003 Ry

     iteration #  9     ecut=    10.00 Ry     beta= 0.70
     Davidson diagonalization with overlap
     ethr =  2.91E-10,  avg # of iterations =  2.1

     total cpu time spent up to now is        2.2 secs

     End of self-consistent calculation

          k = 0.0000 0.0000 0.0000 (    59 PWs)   bands (ev):

     2.3749  10.7141  10.7141  10.7141  14.4591  14.4591  28.1645  28.1645
    28.1645  32.8948

          k =-0.0909 0.0909-0.0909 (    59 PWs)   bands (ev):

     2.6127  10.6349  10.8654  10.8654  14.4516  14.4516  27.0692  28.1067
    28.1067  33.2953

          k =-0.1818 0.1818-0.1818 (    62 PWs)   bands (ev):

     3.2951  10.3979  10.9065  10.9065  12.1101  12.1101  24.4537  27.7819
    27.7819  34.1468

          k =-0.2727 0.2727-0.2727 (    61 PWs)   bands (ev):

     4.3538  10.7788  10.7788  11.4433  12.9684  12.9684  21.9190  27.2758
    27.2758  33.8305

          k =-0.3636 0.3636-0.3636 (    64 PWs)   bands (ev):

     5.3902   9.8761  10.6682  10.6682  13.0246  13.0246  17.5573  26.3821
    26.3821  32.6942

          k =-0.4545 0.4545-0.4545 (    64 PWs)   bands (ev):

     6.4108  10.3771  10.3771  11.2741  12.9295  12.9295  16.6232  25.4671
    25.4671  32.1415

          k = 0.0000 0.1818 0.0000 (    60 PWs)   bands (ev):

     2.6916  10.5823  10.9334  10.9334  12.3981  14.6301  27.2639  27.7333
    27.7333  33.4283

          k =-0.0909 0.2727-0.0909 (    60 PWs)   bands (ev):

     3.2359  10.4184  11.1821  11.2795  12.2401  14.8112  25.2784  27.2705
    27.7076  34.2841

          k =-0.1818 0.3636-0.1818 (    61 PWs)   bands (ev):

     4.1740  10.7421  10.9773  11.2429  12.7146  13.1799  22.6829  26.6733
    27.4445  34.3742

          k =-0.2727 0.4545-0.2727 (    62 PWs)   bands (ev):

     5.3304  10.4155  10.8862  10.9827  13.1367  14.1163  19.0646  25.8775
    26.7738  33.2838

          k =-0.3636 0.5455-0.3636 (    65 PWs)   bands (ev):

     6.3862   9.5257   9.8896  10.7796  12.4769  12.8355  16.6913  24.9353
    25.4721  32.5729

          k = 0.5455-0.3636 0.5455 (    63 PWs)   bands (ev):

     6.7786  10.3826  10.5038  10.8634  12.6472  15.5011  15.9540  24.8040
    25.1541  32.4669

          k = 0.4545-0.2727 0.4545 (    65 PWs)   bands (ev):

     6.0245   9.0919  10.3607  10.3920  12.1573  13.6172  16.8328  24.8616
    26.2754  32.7551

          k = 0.3636-0.1818 0.3636 (    62 PWs)   bands (ev):

     4.9346  10.5620  10.8837  10.9071  12.9366  13.1875  20.2946  26.0091
    27.4246  33.6213

          k = 0.2727-0.0909 0.2727 (    61 PWs)   bands (ev):

     3.8226  10.3056  11.0946  11.2880  11.8979  14.1303  23.3128  26.6028
    28.0179  34.7642

          k = 0.1818-0.0000 0.1818 (    61 PWs)   bands (ev):

     2.9994  10.5095  11.0310  11.1100  11.5176  13.7616  25.7611  27.3092
    28.1943  33.9545

          k = 0.0000 0.3636 0.0000 (    60 PWs)   bands (ev):

     3.6290  10.2604  11.5866  11.5866  11.6924  15.1272  25.2312  26.5610
    26.5610  34.9140

          k =-0.0909 0.4545-0.0909 (    60 PWs)   bands (ev):

     4.4472  10.0892  11.1690  12.1026  12.3791  15.4878  22.9808  25.8418
    26.2732  35.0706

          k =-0.1818 0.5455-0.1818 (    62 PWs)   bands (ev):

     5.5403  10.1305  10.7580  11.4680  13.3723  14.1048  19.6402  25.0153
    25.7293  34.1565

          k =-0.2727 0.6364-0.2727 (    63 PWs)   bands (ev):

     6.6115   9.5865  10.8665  11.6892  13.9661  14.5261  16.4312  24.0520
    24.4561  33.7525

          k = 0.6364-0.2727 0.6364 (    63 PWs)   bands (ev):

     7.4498  10.1364  10.4315  10.4939  13.0799  15.1090  16.2160  23.6998
    24.4064  33.4310

          k = 0.5455-0.1818 0.5455 (    61 PWs)   bands (ev):

     6.9430  10.0273  11.6629  11.6993  13.8172  14.8631  17.3124  23.4515
    25.6604  33.8560

          k = 0.4545-0.0909 0.4545 (    61 PWs)   bands (ev):

     5.8550  10.9209  10.9860  11.4481  13.5866  13.7805  19.0095  24.5253
    26.8639  34.2355

          k = 0.3636 0.0000 0.3636 (    61 PWs)   bands (ev):

     4.7275  11.1934  11.2932  11.5176  12.2613  13.8203  21.0373  25.3653
    27.7582  34.9232

          k = 0.0000 0.5455 0.0000 (    60 PWs)   bands (ev):

     5.1073   9.9138  10.9721  12.6576  12.6576  15.9007  22.3911  24.9510
    24.9510  34.8228

          k =-0.0909 0.6364-0.0909 (    60 PWs)   bands (ev):

     6.0774   9.9593  11.8032  13.4490  13.7920  15.4551  19.4394  23.8600
    24.1145  35.5284

          k =-0.1818 0.7273-0.1818 (    59 PWs)   bands (ev):

     7.2938  10.1013  12.1582  13.7064  14.7298  15.3526  16.9510  23.1148
    23.8281  35.9792

          k = 0.7273-0.1818 0.7273 (    60 PWs)   bands (ev):

     8.1999   9.9764  11.7609  12.9915  14.6065  14.7029  16.7265  22.9874
    23.3724  35.4451

          k = 0.6364-0.0909 0.6364 (    61 PWs)   bands (ev):

     8.0078   9.9032  11.2722  11.8967  13.6392  14.4621  18.1979  21.9044
    24.6366  34.9348

          k = 0.5455 0.0000 0.5455 (    59 PWs)   bands (ev):

     7.0693  11.0900  11.2309  12.1037  14.2283  14.6435  19.3090  23.2119
    25.9418  34.6502

          k = 0.0000 0.7273 0.0000 (    56 PWs)   bands (ev):

     6.8552  10.7113  12.5066  16.1665  16.1665  16.5563  18.6657  23.0355
    23.0355  36.2317

          k =-0.0909 0.8182-0.0909 (    60 PWs)   bands (ev):

     7.8501   9.9052  12.1004  13.2624  14.9892  16.0120  16.6565  21.5490
    21.7516  36.6117

          k = 0.8182-0.0909 0.8182 (    59 PWs)   bands (ev):

     8.8453  10.2609  11.2292  14.2918  14.5504  16.0254  17.0228  21.2109
    22.2008  36.7722

          k = 0.7273 0.0000 0.7273 (    63 PWs)   bands (ev):

     8.6964   9.8561  10.1229  11.9563  13.1321  14.6366  18.0827  19.6586
    23.2756  35.6593

          k = 0.0000 0.9091 0.0000 (    64 PWs)   bands (ev):

     8.3156   9.2024  12.2926  12.2926  12.4673  13.7704  15.7229  20.3742
    20.3742  36.7618

          k = 0.9091-0.0000 0.9091 (    64 PWs)   bands (ev):

     8.7054   9.2248  11.4904  12.3113  13.6572  13.6833  14.8435  20.3590
    20.5053  36.9729

          k =-0.1818 0.3636 0.0000 (    61 PWs)   bands (ev):

     3.9112  10.2542  11.1234  11.4492  11.7345  14.2434  23.6462  26.1814
    27.5294  35.3906

          k =-0.2727 0.4545-0.0909 (    61 PWs)   bands (ev):

     4.9496  10.6654  10.8360  11.6449  12.7736  14.3162  20.8881  25.4065
    27.1044  34.4920

          k =-0.3636 0.5455-0.1818 (    61 PWs)   bands (ev):

     6.1099  10.4618  10.8429  11.9461  13.8201  15.1379  17.9990  24.4193
    26.3155  33.5941

          k = 0.5455-0.3636 0.7273 (    61 PWs)   bands (ev):

     7.0829  10.5357  11.0717  11.5745  14.2853  15.4112  16.6356  24.0400
    24.9802  33.3069

          k =-0.1818 0.5455 0.0000 (    61 PWs)   bands (ev):

     5.3305  10.5064  10.5172  12.6331  13.4060  14.0453  20.7814  24.8025
    25.6814  34.6795

          k =-0.2727 0.6364-0.0909 (    62 PWs)   bands (ev):

     6.4445  10.0824  10.3269  12.5862  13.3337  14.4596  18.1271  23.2873
    25.0407  34.6750

          k = 0.6364-0.2727 0.8182 (    63 PWs)   bands (ev):

     7.5685   9.6274  10.4366  11.5691  13.0687  14.7539  16.4952  22.8038
    24.0879  34.8292

          k = 0.5455-0.1818 0.7273 (    60 PWs)   bands (ev):

     8.0805  10.3363  11.4141  12.2655  13.9928  15.0012  17.4314  22.8061
    24.3022  34.9611

          k = 0.4545-0.0909 0.6364 (    61 PWs)   bands (ev):

     7.2025   9.8548  11.1179  12.1762  13.8099  14.7469  18.1784  22.5733
    25.3521  34.6941

          k = 0.3636 0.0000 0.5455 (    60 PWs)   bands (ev):

     6.0065  10.8626  10.8955  12.5267  13.6291  14.7198  19.1043  24.1649
    26.5114  34.6532

          k =-0.1818 0.7273 0.0000 (    61 PWs)   bands (ev):

     7.1122   9.7670  11.9266  12.7171  14.2214  14.9460  17.7214  21.6264
    23.6366  36.3220

          k = 0.7273-0.1818 0.9091 (    61 PWs)   bands (ev):

     8.1889  10.0071  11.3867  13.3023  13.3961  14.8313  16.9590  21.0478
    23.3846  36.5235

          k = 0.6364-0.0909 0.8182 (    61 PWs)   bands (ev):

     9.0349  10.0500  10.9761  12.3970  13.5549  14.4703  18.0758  20.4255
    23.4680  36.5717

          k = 0.5455 0.0000 0.7273 (    61 PWs)   bands (ev):

     8.3999  10.3955  10.6954  12.4746  13.3837  13.7800  19.3084  20.3163
    24.3751  35.9853

          k = 0.8182-0.0909 1.0000 (    62 PWs)   bands (ev):

     8.6509   9.5814  11.7004  12.6717  13.5655  15.3106  15.9095  20.2392
    21.6432  37.0464

          k = 0.7273 0.0000 0.9091 (    60 PWs)   bands (ev):

     9.1469  10.4714  11.6267  12.8406  14.3405  14.3683  18.0331  20.1481
    22.3361  37.2674

          k = 0.6364-0.2727 1.0000 (    61 PWs)   bands (ev):

     7.6538  10.3541  11.5574  12.3532  12.8321  14.8175  18.3170  21.0820
    24.4486  36.2927

          k = 0.5455-0.1818 0.9091 (    62 PWs)   bands (ev):

     8.7443   9.8018  11.1516  11.7747  13.2169  14.0785  18.0608  20.1162
    23.8125  36.6564

          k = 0.6364-0.0909 1.0000 (    59 PWs)   bands (ev):

     9.3694  10.3546  11.7337  12.2173  14.2135  15.5855  18.5327  19.9660
    23.3598  37.7803

          k = 0.5455 0.0000 0.9091 (    63 PWs)   bands (ev):

     9.7473   9.7915  10.3067  11.1263  13.4229  14.0206  18.0390  18.9451
    23.0246  37.5371

     the Fermi energy is    14.7036 ev

!    total energy              =     -71.57785133 Ry
     Harris-Foulkes estimate   =     -71.57785133 Ry
     estimated scf accuracy    <          3.1E-11 Ry

     The total energy is the sum of the following terms:

     one-electron contribution =      15.12645536 Ry
     hartree contribution      =       4.18395969 Ry
     xc contribution           =     -19.02594968 Ry
     ewald contribution        =     -71.86118018 Ry
     smearing contrib. (-TS)   =      -0.00113651 Ry

     convergence has been achieved in   9 iterations

     Forces acting on atoms (cartesian axes, Ry/au):

     atom    1 type  1   force =     0.00000000    0.00000000    0.00000000

     Total force =     0.000000     Total SCF correction =     0.000000


     Computing stress (Cartesian axis) and pressure

          total   stress  (Ry/bohr**3)                   (kbar)     P=********
  -0.10949416  -0.00000000  -0.00000000     -16107.14     -0.00     -0.00
  -0.00000000  -0.10949416   0.00000000         -0.00 -16107.14      0.00
  -0.00000000   0.00000000  -0.10949416         -0.00      0.00 -16107.14


     Writing output data file Ag.save/

     init_run     :      0.08s CPU      0.09s WALL (       1 calls)
     electrons    :      1.20s CPU      1.41s WALL (       1 calls)
     forces       :      0.01s CPU      0.01s WALL (       1 calls)
     stress       :      0.03s CPU      0.03s WALL (       1 calls)

     Called by init_run:
     wfcinit      :      0.03s CPU      0.03s WALL (       1 calls)
     potinit      :      0.00s CPU      0.00s WALL (       1 calls)
     hinit0       :      0.06s CPU      0.06s WALL (       1 calls)

     Called by electrons:
     c_bands      :      1.07s CPU      1.24s WALL (       9 calls)
     sum_band     :      0.12s CPU      0.15s WALL (       9 calls)
     v_of_rho     :      0.00s CPU      0.01s WALL (      10 calls)
     newd         :      0.01s CPU      0.01s WALL (      10 calls)
     mix_rho      :      0.00s CPU      0.00s WALL (       9 calls)

     Called by c_bands:
     init_us_2    :      0.01s CPU      0.02s WALL (    1176 calls)
     cegterg      :      1.04s CPU      1.21s WALL (     504 calls)

     Called by sum_band:
     sum_band:bec :      0.00s CPU      0.00s WALL (     504 calls)
     addusdens    :      0.01s CPU      0.01s WALL (       9 calls)

     Called by *egterg:
     h_psi        :      0.58s CPU      0.68s WALL (    1788 calls)
     s_psi        :      0.02s CPU      0.02s WALL (    1788 calls)
     g_psi        :      0.00s CPU      0.00s WALL (    1228 calls)
     cdiaghg      :      0.33s CPU      0.37s WALL (    1732 calls)

     Called by h_psi:
     h_psi:pot    :      0.58s CPU      0.68s WALL (    1788 calls)
     h_psi:calbec :      0.03s CPU      0.04s WALL (    1788 calls)
     vloc_psi     :      0.51s CPU      0.60s WALL (    1788 calls)
     add_vuspsi   :      0.02s CPU      0.02s WALL (    1788 calls)

     General routines
     calbec       :      0.05s CPU      0.06s WALL (    2572 calls)
     fft          :      0.00s CPU      0.00s WALL (     136 calls)
     ffts         :      0.00s CPU      0.00s WALL (       9 calls)
     fftw         :      0.54s CPU      0.64s WALL (   32386 calls)

     Parallel routines
     fft_scatt_xy :      0.06s CPU      0.07s WALL (   32531 calls)
     fft_scatt_yz :      0.26s CPU      0.30s WALL (   32531 calls)

     PWSCF        :     2.09s CPU         2.37s WALL


   This run was terminated on:   0: 4:38  27Mar2024            

=------------------------------------------------------------------------------=
   JOB DONE.
=------------------------------------------------------------------------------=
