
     Program PWSCF v.6.3MaX starts on 27Mar2024 at  0:48:39 

     This program is part of the open-source Quantum ESPRESSO suite
     for quantum simulation of materials; please cite
         "P. Giannozzi et al., J. Phys.:Condens. Matter 21 395502 (2009);
         "P. Giannozzi et al., J. Phys.:Condens. Matter 29 465901 (2017);
          URL http://www.quantum-espresso.org", 
     in publications or presentations arising from this work. More details at
     http://www.quantum-espresso.org/quote

     Parallel version (MPI), running on     5 processors

     MPI processes distributed on     1 nodes
     R & G space division:  proc/nbgrp/npool/nimage =       5
     Waiting for input...
     Reading input from standard input

     Current dimensions of program PWSCF are:
     Max number of different atomic species (ntypx) = 10
     Max number of k-points (npk) =  40000
     Max angular momentum in pseudopotentials (lmaxx) =  3
               file Ag.pbe-n-kjpaw_psl.1.0.0.UPF: wavefunction(s)  5S 5P renormalized

     Subspace diagonalization in iterative solution of the eigenvalue problem:
     a serial algorithm will be used


     Parallelization info
     --------------------
     sticks:   dense  smooth     PW     G-vecs:    dense   smooth      PW
     Min         153     153     48                 2863     2863     484
     Max         154     154     49                 2867     2867     485
     Sum         769     769    241                14331    14331    2421



     bravais-lattice index     =            2
     lattice parameter (alat)  =       7.7200  a.u.
     unit-cell volume          =     115.0249 (a.u.)^3
     number of atoms/cell      =            1
     number of atomic types    =            1
     number of electrons       =        11.00
     number of Kohn-Sham states=           10
     kinetic-energy cutoff     =      95.0000  Ry
     charge density cutoff     =     380.0000  Ry
     convergence threshold     =      1.0E-08
     mixing beta               =       0.7000
     number of iterations used =            8  plain     mixing
     Exchange-correlation      = SLA PW PBX PBC ( 1  4  3  4 0 0)

     celldm(1)=   7.720000  celldm(2)=   0.000000  celldm(3)=   0.000000
     celldm(4)=   0.000000  celldm(5)=   0.000000  celldm(6)=   0.000000

     crystal axes: (cart. coord. in units of alat)
               a(1) = (  -0.500000   0.000000   0.500000 )  
               a(2) = (   0.000000   0.500000   0.500000 )  
               a(3) = (  -0.500000   0.500000   0.000000 )  

     reciprocal axes: (cart. coord. in units 2 pi/alat)
               b(1) = ( -1.000000 -1.000000  1.000000 )  
               b(2) = (  1.000000  1.000000  1.000000 )  
               b(3) = ( -1.000000  1.000000 -1.000000 )  


     PseudoPot. # 1 for Ag read from file:
     /home/lorenzo/pseudos/Ag/Ag.pbe-n-kjpaw_psl.1.0.0.UPF
     MD5 check sum: 51099775af2a3182a6a1caffb86952a3
     Pseudo is Projector augmented-wave + core cor, Zval = 11.0
     Generated using "atomic" code by A. Dal Corso v.6.2.2
     Shape of augmentation charge: PSQ
     Using radial grid of 1237 points,  6 beta functions with: 
                l(1) =   0
                l(2) =   0
                l(3) =   1
                l(4) =   1
                l(5) =   2
                l(6) =   2
     Q(r) pseudized with 0 coefficients 


     atomic species   valence    mass     pseudopotential
        Ag            11.00   107.86820     Ag( 1.00)

     48 Sym. Ops., with inversion, found



   Cartesian axes

     site n.     atom                  positions (alat units)
         1           Ag  tau(   1) = (   0.0000000   0.0000000   0.0000000  )

     number of k points=    29  gaussian smearing, width (Ry)=  0.0100
                       cart. coord. in units 2pi/alat
        k(    1) = (   0.0000000   0.0000000   0.0000000), wk =   0.0039062
        k(    2) = (  -0.1250000   0.1250000  -0.1250000), wk =   0.0312500
        k(    3) = (  -0.2500000   0.2500000  -0.2500000), wk =   0.0312500
        k(    4) = (  -0.3750000   0.3750000  -0.3750000), wk =   0.0312500
        k(    5) = (   0.5000000  -0.5000000   0.5000000), wk =   0.0156250
        k(    6) = (   0.0000000   0.2500000   0.0000000), wk =   0.0234375
        k(    7) = (  -0.1250000   0.3750000  -0.1250000), wk =   0.0937500
        k(    8) = (  -0.2500000   0.5000000  -0.2500000), wk =   0.0937500
        k(    9) = (   0.6250000  -0.3750000   0.6250000), wk =   0.0937500
        k(   10) = (   0.5000000  -0.2500000   0.5000000), wk =   0.0937500
        k(   11) = (   0.3750000  -0.1250000   0.3750000), wk =   0.0937500
        k(   12) = (   0.2500000   0.0000000   0.2500000), wk =   0.0468750
        k(   13) = (   0.0000000   0.5000000   0.0000000), wk =   0.0234375
        k(   14) = (  -0.1250000   0.6250000  -0.1250000), wk =   0.0937500
        k(   15) = (   0.7500000  -0.2500000   0.7500000), wk =   0.0937500
        k(   16) = (   0.6250000  -0.1250000   0.6250000), wk =   0.0937500
        k(   17) = (   0.5000000   0.0000000   0.5000000), wk =   0.0468750
        k(   18) = (   0.0000000   0.7500000   0.0000000), wk =   0.0234375
        k(   19) = (   0.8750000  -0.1250000   0.8750000), wk =   0.0937500
        k(   20) = (   0.7500000   0.0000000   0.7500000), wk =   0.0468750
        k(   21) = (   0.0000000  -1.0000000   0.0000000), wk =   0.0117188
        k(   22) = (  -0.2500000   0.5000000   0.0000000), wk =   0.0937500
        k(   23) = (   0.6250000  -0.3750000   0.8750000), wk =   0.1875000
        k(   24) = (   0.5000000  -0.2500000   0.7500000), wk =   0.0937500
        k(   25) = (   0.7500000  -0.2500000   1.0000000), wk =   0.0937500
        k(   26) = (   0.6250000  -0.1250000   0.8750000), wk =   0.1875000
        k(   27) = (   0.5000000   0.0000000   0.7500000), wk =   0.0937500
        k(   28) = (  -0.2500000  -1.0000000   0.0000000), wk =   0.0468750
        k(   29) = (  -0.5000000  -1.0000000   0.0000000), wk =   0.0234375

     Dense  grid:    14331 G-vectors     FFT dimensions: (  36,  36,  36)

     Estimated max dynamical RAM per process >      14.36 MB

     Estimated total dynamical RAM >      71.80 MB

     Initial potential from superposition of free atoms

     starting charge   10.99960, renormalised to   11.00000
     Starting wfcs are    9 randomized atomic wfcs +    1 random wfcs
     Checking if some PAW data can be deallocated... 

     total cpu time spent up to now is        1.6 secs

     Self-consistent Calculation

     iteration #  1     ecut=    95.00 Ry     beta= 0.70
     Davidson diagonalization with overlap
     ethr =  1.00E-02,  avg # of iterations =  4.6

     Threshold (ethr) on eigenvalues was too large:
     Diagonalizing with lowered threshold

     Davidson diagonalization with overlap
     ethr =  2.47E-05,  avg # of iterations =  3.0

     total cpu time spent up to now is        3.0 secs

     total energy              =    -355.30343304 Ry
     Harris-Foulkes estimate   =    -355.30512730 Ry
     estimated scf accuracy    <       0.00302507 Ry

     iteration #  2     ecut=    95.00 Ry     beta= 0.70
     Davidson diagonalization with overlap
     ethr =  2.75E-05,  avg # of iterations =  2.2

     total cpu time spent up to now is        3.7 secs

     total energy              =    -355.30430232 Ry
     Harris-Foulkes estimate   =    -355.30533238 Ry
     estimated scf accuracy    <       0.00222392 Ry

     iteration #  3     ecut=    95.00 Ry     beta= 0.70
     Davidson diagonalization with overlap
     ethr =  2.02E-05,  avg # of iterations =  1.6

     total cpu time spent up to now is        4.3 secs

     total energy              =    -355.30473311 Ry
     Harris-Foulkes estimate   =    -355.30471215 Ry
     estimated scf accuracy    <       0.00001419 Ry

     iteration #  4     ecut=    95.00 Ry     beta= 0.70
     Davidson diagonalization with overlap
     ethr =  1.29E-07,  avg # of iterations =  2.9

     total cpu time spent up to now is        4.9 secs

     total energy              =    -355.30473867 Ry
     Harris-Foulkes estimate   =    -355.30473845 Ry
     estimated scf accuracy    <       0.00000031 Ry

     iteration #  5     ecut=    95.00 Ry     beta= 0.70
     Davidson diagonalization with overlap
     ethr =  2.81E-09,  avg # of iterations =  1.6

     total cpu time spent up to now is        5.5 secs

     End of self-consistent calculation

          k = 0.0000 0.0000 0.0000 (  1807 PWs)   bands (ev):

     5.0655   8.0870   8.0870   8.0870   9.1273   9.1273  29.8005  33.0878
    33.0878  33.0878

          k =-0.1250 0.1250-0.1250 (  1817 PWs)   bands (ev):

     5.5363   7.9985   8.2063   8.2063   9.0936   9.0936  28.8298  30.6981
    33.0396  33.0396

          k =-0.2500 0.2500-0.2500 (  1811 PWs)   bands (ev):

     6.4596   8.2891   8.2891   8.3106   9.2546   9.2546  24.0783  30.2017
    32.6158  32.6158

          k =-0.3750 0.3750-0.3750 (  1814 PWs)   bands (ev):

     6.5587   8.1462   8.1462   9.6998   9.6998  10.3775  19.3630  29.2649
    31.6412  31.6412

          k = 0.5000-0.5000 0.5000 (  1802 PWs)   bands (ev):

     6.4774   8.0642   8.0642   9.9268   9.9268  12.4469  16.4754  28.8395
    31.1000  31.1000

          k = 0.0000 0.2500 0.0000 (  1812 PWs)   bands (ev):

     5.6952   7.8432   8.3231   8.3231   8.9026   9.2349  29.8139  31.1179
    31.1179  31.2143

          k =-0.1250 0.3750-0.1250 (  1807 PWs)   bands (ev):

     6.5524   7.6910   8.3768   8.5142   9.1288   9.4068  26.0473  29.7635
    29.9236  32.4016

          k =-0.2500 0.5000-0.2500 (  1824 PWs)   bands (ev):

     6.8417   8.0794   8.3893   8.4403   9.7792  10.6265  21.1446  28.9648
    29.0573  30.7572

          k = 0.6250-0.3750 0.6250 (  1793 PWs)   bands (ev):

     6.7373   7.9132   8.3032   9.1070   9.9428  13.1616  17.0909  27.7009
    29.3324  29.7444

          k = 0.5000-0.2500 0.5000 (  1795 PWs)   bands (ev):

     6.7968   7.9669   8.2980   9.1162   9.6411  12.3764  18.2760  26.9427
    29.9616  30.9056

          k = 0.3750-0.1250 0.3750 (  1812 PWs)   bands (ev):

     6.9282   8.0334   8.3797   8.4475   9.0728  10.3405  22.7716  27.0177
    31.3649  33.6793

          k = 0.2500 0.0000 0.2500 (  1807 PWs)   bands (ev):

     6.2374   7.8119   8.3612   8.3993   8.8706   9.4048  27.6301  27.7809
    32.6357  34.0952

          k = 0.0000 0.5000 0.0000 (  1812 PWs)   bands (ev):

     6.8707   7.2904   8.9655   8.9655   9.0756   9.5011  27.6391  27.6391
    28.7058  29.8665

          k =-0.1250 0.6250-0.1250 (  1785 PWs)   bands (ev):

     6.9699   7.2241   8.7694   9.0798   9.8156  10.9545  23.4792  26.3190
    26.4973  29.9967

          k = 0.7500-0.2500 0.7500 (  1796 PWs)   bands (ev):

     6.9533   7.5197   8.5644   8.9286   9.9844  13.8799  19.0180  24.1372
    26.6374  29.7548

          k = 0.6250-0.1250 0.6250 (  1802 PWs)   bands (ev):

     7.1800   7.7459   8.3696   8.8050   9.6685  15.0569  17.8824  22.6939
    28.1655  29.8298

          k = 0.5000 0.0000 0.5000 (  1796 PWs)   bands (ev):

     7.5210   7.7503   8.1389   8.7465   9.1413  12.3268  22.1712  22.2927
    30.4906  30.7525

          k = 0.0000 0.7500 0.0000 (  1764 PWs)   bands (ev):

     6.6782   6.7804   9.7497   9.7497   9.7771  11.7852  23.2990  24.8193
    24.8193  29.9363

          k = 0.8750-0.1250 0.8750 (  1787 PWs)   bands (ev):

     6.6413   6.8118   9.5328   9.6295  10.0463  14.2701  20.8780  21.9247
    24.5303  29.9384

          k = 0.7500 0.0000 0.7500 (  1790 PWs)   bands (ev):

     6.8743   7.2953   8.8023   9.3498   9.8536  17.1699  18.1676  20.0254
    25.7853  29.8388

          k = 0.0000-1.0000 0.0000 (  1772 PWs)   bands (ev):

     6.4351   6.5799   9.8945  10.1357  10.1357  14.4750  19.6041  23.7153
    23.7153  29.9681

          k =-0.2500 0.5000 0.0000 (  1802 PWs)   bands (ev):

     7.2600   7.4528   8.1663   8.9624   9.1528  10.4288  24.8565  25.1414
    29.3585  32.7538

          k = 0.6250-0.3750 0.8750 (  1798 PWs)   bands (ev):

     7.1999   7.7778   8.1128   8.8695   9.6382  12.6002  20.2655  24.7379
    27.1217  32.4066

          k = 0.5000-0.2500 0.7500 (  1800 PWs)   bands (ev):

     7.1436   7.6327   8.5139   8.6928   9.8523  15.1566  16.8346  25.3816
    25.5802  31.8722

          k = 0.7500-0.2500 1.0000 (  1791 PWs)   bands (ev):

     7.0246   7.0543   8.6890   9.5976   9.7422  13.0898  22.7298  22.8702
    23.8384  32.2418

          k = 0.6250-0.1250 0.8750 (  1794 PWs)   bands (ev):

     7.1050   7.4005   8.3536   9.2279   9.9691  16.2226  18.7399  21.7005
    23.5073  32.5661

          k = 0.5000 0.0000 0.7500 (  1797 PWs)   bands (ev):

     7.4074   7.7656   7.8273   9.0841   9.7391  15.3170  19.8190  20.8553
    25.0337  33.0630

          k =-0.2500-1.0000 0.0000 (  1790 PWs)   bands (ev):

     6.7567   6.8924   9.1788   9.5743  10.1362  15.9633  19.7025  21.9260
    22.2302  32.0578

          k =-0.5000-1.0000 0.0000 (  1800 PWs)   bands (ev):

     7.1904   7.8078   7.8078   9.1373  10.1367  18.8451  18.8451  19.9362
    21.0700  36.2706

     the Fermi energy is    12.7018 ev

!    total energy              =    -355.30473869 Ry
     Harris-Foulkes estimate   =    -355.30473870 Ry
     estimated scf accuracy    <          7.8E-09 Ry

     total all-electron energy =    -10632.270792 Ry

     The total energy is the sum of the following terms:

     one-electron contribution =       1.55760121 Ry
     hartree contribution      =      14.67305563 Ry
     xc contribution           =     -22.35580208 Ry
     ewald contribution        =     -71.86118018 Ry
     one-center paw contrib.   =    -277.31810832 Ry
     smearing contrib. (-TS)   =      -0.00030496 Ry

     convergence has been achieved in   5 iterations

     Forces acting on atoms (cartesian axes, Ry/au):

     atom    1 type  1   force =     0.00000000    0.00000000    0.00000000

     Total force =     0.000000     Total SCF correction =     0.000000


     Computing stress (Cartesian axis) and pressure

          total   stress  (Ry/bohr**3)                   (kbar)     P=   56.95
   0.00038715  -0.00000000  -0.00000000         56.95     -0.00     -0.00
  -0.00000000   0.00038715   0.00000000         -0.00     56.95      0.00
  -0.00000000   0.00000000   0.00038715         -0.00      0.00     56.95


     Writing output data file Ag.save/

     init_run     :      0.50s CPU      0.53s WALL (       1 calls)
     electrons    :      3.63s CPU      3.82s WALL (       1 calls)
     forces       :      0.07s CPU      0.07s WALL (       1 calls)
     stress       :      0.23s CPU      0.23s WALL (       1 calls)

     Called by init_run:
     wfcinit      :      0.15s CPU      0.16s WALL (       1 calls)
     potinit      :      0.11s CPU      0.13s WALL (       1 calls)
     hinit0       :      0.20s CPU      0.20s WALL (       1 calls)

     Called by electrons:
     c_bands      :      2.50s CPU      2.64s WALL (       6 calls)
     sum_band     :      0.54s CPU      0.58s WALL (       6 calls)
     v_of_rho     :      0.06s CPU      0.06s WALL (       6 calls)
     newd         :      0.08s CPU      0.08s WALL (       6 calls)
     PAW_pot      :      0.56s CPU      0.59s WALL (       6 calls)
     mix_rho      :      0.00s CPU      0.00s WALL (       6 calls)

     Called by c_bands:
     init_us_2    :      0.09s CPU      0.09s WALL (     435 calls)
     cegterg      :      2.38s CPU      2.52s WALL (     174 calls)

     Called by sum_band:
     sum_band:bec :      0.00s CPU      0.00s WALL (     174 calls)
     addusdens    :      0.08s CPU      0.08s WALL (       6 calls)

     Called by *egterg:
     h_psi        :      2.03s CPU      2.15s WALL (     663 calls)
     s_psi        :      0.06s CPU      0.06s WALL (     663 calls)
     g_psi        :      0.01s CPU      0.01s WALL (     460 calls)
     cdiaghg      :      0.13s CPU      0.13s WALL (     605 calls)

     Called by h_psi:
     h_psi:pot    :      2.02s CPU      2.14s WALL (     663 calls)
     h_psi:calbec :      0.09s CPU      0.09s WALL (     663 calls)
     vloc_psi     :      1.87s CPU      1.98s WALL (     663 calls)
     add_vuspsi   :      0.06s CPU      0.07s WALL (     663 calls)

     General routines
     calbec       :      0.15s CPU      0.16s WALL (     982 calls)
     fft          :      0.03s CPU      0.04s WALL (      93 calls)
     ffts         :      0.00s CPU      0.00s WALL (       6 calls)
     fftw         :      2.09s CPU      2.22s WALL (   10896 calls)

     Parallel routines
     fft_scatt_xy :      0.17s CPU      0.18s WALL (   10995 calls)
     fft_scatt_yz :      0.51s CPU      0.54s WALL (   10995 calls)

     PWSCF        :     5.58s CPU         5.88s WALL


   This run was terminated on:   0:48:45  27Mar2024            

=------------------------------------------------------------------------------=
   JOB DONE.
=------------------------------------------------------------------------------=
