
     Program PWSCF v.6.3MaX starts on 27Mar2024 at  0:14:47 

     This program is part of the open-source Quantum ESPRESSO suite
     for quantum simulation of materials; please cite
         "P. Giannozzi et al., J. Phys.:Condens. Matter 21 395502 (2009);
         "P. Giannozzi et al., J. Phys.:Condens. Matter 29 465901 (2017);
          URL http://www.quantum-espresso.org", 
     in publications or presentations arising from this work. More details at
     http://www.quantum-espresso.org/quote

     Parallel version (MPI), running on     5 processors

     MPI processes distributed on     1 nodes
     R & G space division:  proc/nbgrp/npool/nimage =       5
     Waiting for input...
     Reading input from standard input

     Current dimensions of program PWSCF are:
     Max number of different atomic species (ntypx) = 10
     Max number of k-points (npk) =  40000
     Max angular momentum in pseudopotentials (lmaxx) =  3
               file Ag.pbe-n-kjpaw_psl.1.0.0.UPF: wavefunction(s)  5S 5P renormalized

     Subspace diagonalization in iterative solution of the eigenvalue problem:
     a serial algorithm will be used


     Parallelization info
     --------------------
     sticks:   dense  smooth     PW     G-vecs:    dense   smooth      PW
     Min          58      58     17                  643      643     112
     Max          60      60     19                  643      643     113
     Sum         295     295     91                 3215     3215     561



     bravais-lattice index     =            2
     lattice parameter (alat)  =       7.7200  a.u.
     unit-cell volume          =     115.0249 (a.u.)^3
     number of atoms/cell      =            1
     number of atomic types    =            1
     number of electrons       =        11.00
     number of Kohn-Sham states=           10
     kinetic-energy cutoff     =      35.0000  Ry
     charge density cutoff     =     140.0000  Ry
     convergence threshold     =      1.0E-08
     mixing beta               =       0.7000
     number of iterations used =            8  plain     mixing
     Exchange-correlation      = SLA PW PBX PBC ( 1  4  3  4 0 0)

     celldm(1)=   7.720000  celldm(2)=   0.000000  celldm(3)=   0.000000
     celldm(4)=   0.000000  celldm(5)=   0.000000  celldm(6)=   0.000000

     crystal axes: (cart. coord. in units of alat)
               a(1) = (  -0.500000   0.000000   0.500000 )  
               a(2) = (   0.000000   0.500000   0.500000 )  
               a(3) = (  -0.500000   0.500000   0.000000 )  

     reciprocal axes: (cart. coord. in units 2 pi/alat)
               b(1) = ( -1.000000 -1.000000  1.000000 )  
               b(2) = (  1.000000  1.000000  1.000000 )  
               b(3) = ( -1.000000  1.000000 -1.000000 )  


     PseudoPot. # 1 for Ag read from file:
     /home/lorenzo/pseudos/Ag/Ag.pbe-n-kjpaw_psl.1.0.0.UPF
     MD5 check sum: 51099775af2a3182a6a1caffb86952a3
     Pseudo is Projector augmented-wave + core cor, Zval = 11.0
     Generated using "atomic" code by A. Dal Corso v.6.2.2
     Shape of augmentation charge: PSQ
     Using radial grid of 1237 points,  6 beta functions with: 
                l(1) =   0
                l(2) =   0
                l(3) =   1
                l(4) =   1
                l(5) =   2
                l(6) =   2
     Q(r) pseudized with 0 coefficients 


     atomic species   valence    mass     pseudopotential
        Ag            11.00   107.86820     Ag( 1.00)

     48 Sym. Ops., with inversion, found



   Cartesian axes

     site n.     atom                  positions (alat units)
         1           Ag  tau(   1) = (   0.0000000   0.0000000   0.0000000  )

     number of k points=     4  gaussian smearing, width (Ry)=  0.0100
                       cart. coord. in units 2pi/alat
        k(    1) = (   0.0000000   0.0000000   0.0000000), wk =   0.0740741
        k(    2) = (  -0.3333333   0.3333333  -0.3333333), wk =   0.5925926
        k(    3) = (   0.0000000   0.6666667   0.0000000), wk =   0.4444444
        k(    4) = (   0.6666667  -0.0000000   0.6666667), wk =   0.8888889

     Dense  grid:     3215 G-vectors     FFT dimensions: (  24,  24,  24)

     Estimated max dynamical RAM per process >       3.69 MB

     Estimated total dynamical RAM >      18.44 MB

     Initial potential from superposition of free atoms

     starting charge   10.99960, renormalised to   11.00000
     Starting wfcs are    9 randomized atomic wfcs +    1 random wfcs
     Checking if some PAW data can be deallocated... 

     total cpu time spent up to now is        1.1 secs

     Self-consistent Calculation

     iteration #  1     ecut=    35.00 Ry     beta= 0.70
     Davidson diagonalization with overlap
     ethr =  1.00E-02,  avg # of iterations =  5.5

     Threshold (ethr) on eigenvalues was too large:
     Diagonalizing with lowered threshold

     Davidson diagonalization with overlap
     ethr =  3.35E-05,  avg # of iterations =  2.0

     total cpu time spent up to now is        1.2 secs

     total energy              =    -355.31351467 Ry
     Harris-Foulkes estimate   =    -355.31576395 Ry
     estimated scf accuracy    <       0.00402302 Ry

     iteration #  2     ecut=    35.00 Ry     beta= 0.70
     Davidson diagonalization with overlap
     ethr =  3.66E-05,  avg # of iterations =  3.0

     total cpu time spent up to now is        1.4 secs

     total energy              =    -355.31478444 Ry
     Harris-Foulkes estimate   =    -355.31612922 Ry
     estimated scf accuracy    <       0.00291176 Ry

     iteration #  3     ecut=    35.00 Ry     beta= 0.70
     Davidson diagonalization with overlap
     ethr =  2.65E-05,  avg # of iterations =  1.8

     total cpu time spent up to now is        1.5 secs

     total energy              =    -355.31534301 Ry
     Harris-Foulkes estimate   =    -355.31530902 Ry
     estimated scf accuracy    <       0.00001619 Ry

     iteration #  4     ecut=    35.00 Ry     beta= 0.70
     Davidson diagonalization with overlap
     ethr =  1.47E-07,  avg # of iterations =  3.8

     total cpu time spent up to now is        1.7 secs

     total energy              =    -355.31535088 Ry
     Harris-Foulkes estimate   =    -355.31535069 Ry
     estimated scf accuracy    <       0.00000042 Ry

     iteration #  5     ecut=    35.00 Ry     beta= 0.70
     Davidson diagonalization with overlap
     ethr =  3.77E-09,  avg # of iterations =  1.2

     total cpu time spent up to now is        1.8 secs

     total energy              =    -355.31535090 Ry
     Harris-Foulkes estimate   =    -355.31535090 Ry
     estimated scf accuracy    <       0.00000004 Ry

     iteration #  6     ecut=    35.00 Ry     beta= 0.70
     Davidson diagonalization with overlap
     ethr =  3.61E-10,  avg # of iterations =  3.0

     total cpu time spent up to now is        1.9 secs

     End of self-consistent calculation

          k = 0.0000 0.0000 0.0000 (   411 PWs)   bands (ev):

     5.0656   8.0764   8.0764   8.0764   9.1071   9.1071  29.8061  33.0876
    33.0876  33.0876

          k =-0.3333 0.3333-0.3333 (   401 PWs)   bands (ev):

     6.5836   8.1928   8.1928   9.5263   9.5381   9.5381  20.8585  29.5687
    31.9792  31.9792

          k = 0.0000 0.6667 0.0000 (   419 PWs)   bands (ev):

     6.8092   6.9186   9.4833   9.4833   9.6738  10.6700  25.1786  25.6090
    25.6090  29.9294

          k = 0.6667-0.0000 0.6667 (   403 PWs)   bands (ev):

     7.1120   7.6902   8.3061   9.0682   9.6351  16.0283  18.6970  20.4290
    27.2096  29.8561

     the Fermi energy is    10.7349 ev

!    total energy              =    -355.31535090 Ry
     Harris-Foulkes estimate   =    -355.31535091 Ry
     estimated scf accuracy    <          1.8E-10 Ry

     total all-electron energy =    -10632.281405 Ry

     The total energy is the sum of the following terms:

     one-electron contribution =       1.55569500 Ry
     hartree contribution      =      14.64820277 Ry
     xc contribution           =     -22.35041446 Ry
     ewald contribution        =     -71.86118026 Ry
     one-center paw contrib.   =    -277.30665528 Ry
     smearing contrib. (-TS)   =      -0.00099868 Ry

     convergence has been achieved in   6 iterations

     Forces acting on atoms (cartesian axes, Ry/au):

     atom    1 type  1   force =     0.00000000    0.00000000    0.00000000

     Total force =     0.000000     Total SCF correction =     0.000000


     Computing stress (Cartesian axis) and pressure

          total   stress  (Ry/bohr**3)                   (kbar)     P= -127.84
  -0.00086903   0.00000000   0.00000000       -127.84      0.00      0.00
   0.00000000  -0.00086903  -0.00000000          0.00   -127.84     -0.00
   0.00000000  -0.00000000  -0.00086903          0.00     -0.00   -127.84


     Writing output data file Ag.save/

     init_run     :      0.25s CPU      0.26s WALL (       1 calls)
     electrons    :      0.78s CPU      0.88s WALL (       1 calls)
     forces       :      0.01s CPU      0.01s WALL (       1 calls)
     stress       :      0.04s CPU      0.04s WALL (       1 calls)

     Called by init_run:
     wfcinit      :      0.01s CPU      0.01s WALL (       1 calls)
     potinit      :      0.10s CPU      0.12s WALL (       1 calls)
     hinit0       :      0.12s CPU      0.12s WALL (       1 calls)

     Called by electrons:
     c_bands      :      0.15s CPU      0.16s WALL (       7 calls)
     sum_band     :      0.05s CPU      0.06s WALL (       7 calls)
     v_of_rho     :      0.02s CPU      0.02s WALL (       7 calls)
     newd         :      0.02s CPU      0.02s WALL (       7 calls)
     PAW_pot      :      0.64s CPU      0.74s WALL (       7 calls)
     mix_rho      :      0.00s CPU      0.00s WALL (       7 calls)

     Called by c_bands:
     init_us_2    :      0.00s CPU      0.01s WALL (      68 calls)
     cegterg      :      0.14s CPU      0.15s WALL (      28 calls)

     Called by sum_band:
     sum_band:bec :      0.00s CPU      0.00s WALL (      28 calls)
     addusdens    :      0.02s CPU      0.02s WALL (       7 calls)

     Called by *egterg:
     h_psi        :      0.11s CPU      0.11s WALL (     113 calls)
     s_psi        :      0.00s CPU      0.00s WALL (     113 calls)
     g_psi        :      0.00s CPU      0.00s WALL (      81 calls)
     cdiaghg      :      0.02s CPU      0.03s WALL (     105 calls)

     Called by h_psi:
     h_psi:pot    :      0.11s CPU      0.11s WALL (     113 calls)
     h_psi:calbec :      0.00s CPU      0.01s WALL (     113 calls)
     vloc_psi     :      0.10s CPU      0.10s WALL (     113 calls)
     add_vuspsi   :      0.00s CPU      0.00s WALL (     113 calls)

     General routines
     calbec       :      0.01s CPU      0.01s WALL (     161 calls)
     fft          :      0.01s CPU      0.01s WALL (     104 calls)
     ffts         :      0.00s CPU      0.00s WALL (       7 calls)
     fftw         :      0.11s CPU      0.11s WALL (    1738 calls)

     Parallel routines
     fft_scatt_xy :      0.01s CPU      0.01s WALL (    1849 calls)
     fft_scatt_yz :      0.04s CPU      0.04s WALL (    1849 calls)

     PWSCF        :     1.88s CPU         2.03s WALL


   This run was terminated on:   0:14:49  27Mar2024            

=------------------------------------------------------------------------------=
   JOB DONE.
=------------------------------------------------------------------------------=
