
     Program PWSCF v.6.3MaX starts on 27Mar2024 at  0: 9:51 

     This program is part of the open-source Quantum ESPRESSO suite
     for quantum simulation of materials; please cite
         "P. Giannozzi et al., J. Phys.:Condens. Matter 21 395502 (2009);
         "P. Giannozzi et al., J. Phys.:Condens. Matter 29 465901 (2017);
          URL http://www.quantum-espresso.org", 
     in publications or presentations arising from this work. More details at
     http://www.quantum-espresso.org/quote

     Parallel version (MPI), running on     5 processors

     MPI processes distributed on     1 nodes
     R & G space division:  proc/nbgrp/npool/nimage =       5
     Waiting for input...
     Reading input from standard input

     Current dimensions of program PWSCF are:
     Max number of different atomic species (ntypx) = 10
     Max number of k-points (npk) =  40000
     Max angular momentum in pseudopotentials (lmaxx) =  3

     Subspace diagonalization in iterative solution of the eigenvalue problem:
     a serial algorithm will be used


     Parallelization info
     --------------------
     sticks:   dense  smooth     PW     G-vecs:    dense   smooth      PW
     Min          39      39     14                  381      381      82
     Max          40      40     15                  384      384      83
     Sum         199     199     73                 1917     1917     411



     bravais-lattice index     =            2
     lattice parameter (alat)  =       7.7200  a.u.
     unit-cell volume          =     115.0249 (a.u.)^3
     number of atoms/cell      =            1
     number of atomic types    =            1
     number of electrons       =        11.00
     number of Kohn-Sham states=           10
     kinetic-energy cutoff     =      25.0000  Ry
     charge density cutoff     =     100.0000  Ry
     convergence threshold     =      1.0E-08
     mixing beta               =       0.7000
     number of iterations used =            8  plain     mixing
     Exchange-correlation      = PBESOL ( 1  4 10  8 0 0)

     celldm(1)=   7.720000  celldm(2)=   0.000000  celldm(3)=   0.000000
     celldm(4)=   0.000000  celldm(5)=   0.000000  celldm(6)=   0.000000

     crystal axes: (cart. coord. in units of alat)
               a(1) = (  -0.500000   0.000000   0.500000 )  
               a(2) = (   0.000000   0.500000   0.500000 )  
               a(3) = (  -0.500000   0.500000   0.000000 )  

     reciprocal axes: (cart. coord. in units 2 pi/alat)
               b(1) = ( -1.000000 -1.000000  1.000000 )  
               b(2) = (  1.000000  1.000000  1.000000 )  
               b(3) = ( -1.000000  1.000000 -1.000000 )  


     PseudoPot. # 1 for Ag read from file:
     /home/lorenzo/pseudos/Ag/Ag.pbesol-n-rrkjus_psl.1.0.0.UPF
     MD5 check sum: 3b43e8aa747a56f565f44d11355b8b45
     Pseudo is Ultrasoft + core correction, Zval = 11.0
     Generated using "atomic" code by A. Dal Corso v.6.2.2
     Using radial grid of 1237 points,  6 beta functions with: 
                l(1) =   0
                l(2) =   0
                l(3) =   1
                l(4) =   1
                l(5) =   2
                l(6) =   2
     Q(r) pseudized with 0 coefficients 


     atomic species   valence    mass     pseudopotential
        Ag            11.00   107.86820     Ag( 1.00)

     48 Sym. Ops., with inversion, found



   Cartesian axes

     site n.     atom                  positions (alat units)
         1           Ag  tau(   1) = (   0.0000000   0.0000000   0.0000000  )

     number of k points=    47  gaussian smearing, width (Ry)=  0.0100
                       cart. coord. in units 2pi/alat
        k(    1) = (   0.0000000   0.0000000   0.0000000), wk =   0.0020000
        k(    2) = (  -0.1000000   0.1000000  -0.1000000), wk =   0.0160000
        k(    3) = (  -0.2000000   0.2000000  -0.2000000), wk =   0.0160000
        k(    4) = (  -0.3000000   0.3000000  -0.3000000), wk =   0.0160000
        k(    5) = (  -0.4000000   0.4000000  -0.4000000), wk =   0.0160000
        k(    6) = (   0.5000000  -0.5000000   0.5000000), wk =   0.0080000
        k(    7) = (   0.0000000   0.2000000   0.0000000), wk =   0.0120000
        k(    8) = (  -0.1000000   0.3000000  -0.1000000), wk =   0.0480000
        k(    9) = (  -0.2000000   0.4000000  -0.2000000), wk =   0.0480000
        k(   10) = (  -0.3000000   0.5000000  -0.3000000), wk =   0.0480000
        k(   11) = (   0.6000000  -0.4000000   0.6000000), wk =   0.0480000
        k(   12) = (   0.5000000  -0.3000000   0.5000000), wk =   0.0480000
        k(   13) = (   0.4000000  -0.2000000   0.4000000), wk =   0.0480000
        k(   14) = (   0.3000000  -0.1000000   0.3000000), wk =   0.0480000
        k(   15) = (   0.2000000   0.0000000   0.2000000), wk =   0.0240000
        k(   16) = (   0.0000000   0.4000000   0.0000000), wk =   0.0120000
        k(   17) = (  -0.1000000   0.5000000  -0.1000000), wk =   0.0480000
        k(   18) = (  -0.2000000   0.6000000  -0.2000000), wk =   0.0480000
        k(   19) = (   0.7000000  -0.3000000   0.7000000), wk =   0.0480000
        k(   20) = (   0.6000000  -0.2000000   0.6000000), wk =   0.0480000
        k(   21) = (   0.5000000  -0.1000000   0.5000000), wk =   0.0480000
        k(   22) = (   0.4000000   0.0000000   0.4000000), wk =   0.0240000
        k(   23) = (   0.0000000   0.6000000   0.0000000), wk =   0.0120000
        k(   24) = (  -0.1000000   0.7000000  -0.1000000), wk =   0.0480000
        k(   25) = (   0.8000000  -0.2000000   0.8000000), wk =   0.0480000
        k(   26) = (   0.7000000  -0.1000000   0.7000000), wk =   0.0480000
        k(   27) = (   0.6000000  -0.0000000   0.6000000), wk =   0.0240000
        k(   28) = (   0.0000000   0.8000000   0.0000000), wk =   0.0120000
        k(   29) = (   0.9000000  -0.1000000   0.9000000), wk =   0.0480000
        k(   30) = (   0.8000000   0.0000000   0.8000000), wk =   0.0240000
        k(   31) = (   0.0000000  -1.0000000   0.0000000), wk =   0.0060000
        k(   32) = (  -0.2000000   0.4000000   0.0000000), wk =   0.0480000
        k(   33) = (  -0.3000000   0.5000000  -0.1000000), wk =   0.0960000
        k(   34) = (   0.6000000  -0.4000000   0.8000000), wk =   0.0960000
        k(   35) = (   0.5000000  -0.3000000   0.7000000), wk =   0.0480000
        k(   36) = (  -0.2000000   0.6000000   0.0000000), wk =   0.0480000
        k(   37) = (   0.7000000  -0.3000000   0.9000000), wk =   0.0960000
        k(   38) = (   0.6000000  -0.2000000   0.8000000), wk =   0.0960000
        k(   39) = (   0.5000000  -0.1000000   0.7000000), wk =   0.0960000
        k(   40) = (   0.4000000   0.0000000   0.6000000), wk =   0.0480000
        k(   41) = (   0.8000000  -0.2000000   1.0000000), wk =   0.0480000
        k(   42) = (   0.7000000  -0.1000000   0.9000000), wk =   0.0960000
        k(   43) = (   0.6000000   0.0000000   0.8000000), wk =   0.0480000
        k(   44) = (  -0.2000000  -1.0000000   0.0000000), wk =   0.0240000
        k(   45) = (   0.6000000  -0.2000000   1.0000000), wk =   0.0480000
        k(   46) = (   0.5000000  -0.1000000   0.9000000), wk =   0.0480000
        k(   47) = (  -0.4000000  -1.0000000   0.0000000), wk =   0.0240000

     Dense  grid:     1917 G-vectors     FFT dimensions: (  18,  18,  18)

     Estimated max dynamical RAM per process >       2.77 MB

     Estimated total dynamical RAM >      13.84 MB

     Initial potential from superposition of free atoms

     starting charge   10.99964, renormalised to   11.00000
     Starting wfcs are    9 randomized atomic wfcs +    1 random wfcs

     total cpu time spent up to now is        0.9 secs

     Self-consistent Calculation

     iteration #  1     ecut=    25.00 Ry     beta= 0.70
     Davidson diagonalization with overlap
     ethr =  1.00E-02,  avg # of iterations =  4.8

     Threshold (ethr) on eigenvalues was too large:
     Diagonalizing with lowered threshold

     Davidson diagonalization with overlap
     ethr =  8.22E-04,  avg # of iterations =  1.0

     total cpu time spent up to now is        1.3 secs

     total energy              =     -83.67166154 Ry
     Harris-Foulkes estimate   =     -83.73906781 Ry
     estimated scf accuracy    <       0.09268337 Ry

     iteration #  2     ecut=    25.00 Ry     beta= 0.70
     Davidson diagonalization with overlap
     ethr =  8.43E-04,  avg # of iterations =  2.0

     total cpu time spent up to now is        1.5 secs

     total energy              =     -83.70119945 Ry
     Harris-Foulkes estimate   =     -83.73404460 Ry
     estimated scf accuracy    <       0.06399285 Ry

     iteration #  3     ecut=    25.00 Ry     beta= 0.70
     Davidson diagonalization with overlap
     ethr =  5.82E-04,  avg # of iterations =  1.5

     total cpu time spent up to now is        1.7 secs

     total energy              =     -83.71314084 Ry
     Harris-Foulkes estimate   =     -83.71307960 Ry
     estimated scf accuracy    <       0.00037299 Ry

     iteration #  4     ecut=    25.00 Ry     beta= 0.70
     Davidson diagonalization with overlap
     ethr =  3.39E-06,  avg # of iterations =  3.3

     total cpu time spent up to now is        2.0 secs

     total energy              =     -83.71341144 Ry
     Harris-Foulkes estimate   =     -83.71341853 Ry
     estimated scf accuracy    <       0.00004888 Ry

     iteration #  5     ecut=    25.00 Ry     beta= 0.70
     Davidson diagonalization with overlap
     ethr =  4.44E-07,  avg # of iterations =  1.0

     total cpu time spent up to now is        2.1 secs

     total energy              =     -83.71340223 Ry
     Harris-Foulkes estimate   =     -83.71341206 Ry
     estimated scf accuracy    <       0.00002651 Ry

     iteration #  6     ecut=    25.00 Ry     beta= 0.70
     Davidson diagonalization with overlap
     ethr =  2.41E-07,  avg # of iterations =  1.2

     total cpu time spent up to now is        2.3 secs

     total energy              =     -83.71340642 Ry
     Harris-Foulkes estimate   =     -83.71340652 Ry
     estimated scf accuracy    <       0.00000017 Ry

     iteration #  7     ecut=    25.00 Ry     beta= 0.70
     Davidson diagonalization with overlap
     ethr =  1.51E-09,  avg # of iterations =  2.8

     total cpu time spent up to now is        2.5 secs

     total energy              =     -83.71340652 Ry
     Harris-Foulkes estimate   =     -83.71340654 Ry
     estimated scf accuracy    <       0.00000006 Ry

     iteration #  8     ecut=    25.00 Ry     beta= 0.70
     Davidson diagonalization with overlap
     ethr =  5.04E-10,  avg # of iterations =  1.0

     total cpu time spent up to now is        2.7 secs

     total energy              =     -83.71340652 Ry
     Harris-Foulkes estimate   =     -83.71340652 Ry
     estimated scf accuracy    <       0.00000001 Ry

     iteration #  9     ecut=    25.00 Ry     beta= 0.70
     Davidson diagonalization with overlap
     ethr =  1.16E-10,  avg # of iterations =  1.4

     total cpu time spent up to now is        2.9 secs

     End of self-consistent calculation

          k = 0.0000 0.0000 0.0000 (   259 PWs)   bands (ev):

     4.8043   7.6000   7.6000   7.6000   8.8441   8.8441  29.6309  32.8014
    32.8014  32.8014

          k =-0.1000 0.1000-0.1000 (   256 PWs)   bands (ev):

     5.1088   7.6978   7.6978   7.6981   8.8442   8.8442  29.2661  30.7544
    32.7781  32.7781

          k =-0.2000 0.2000-0.2000 (   244 PWs)   bands (ev):

     5.8731   7.8479   7.9508   7.9508   9.0395   9.0395  25.8646  30.3171
    32.5886  32.5886

          k =-0.3000 0.3000-0.3000 (   247 PWs)   bands (ev):

     6.2894   7.9092   7.9092   8.6516   9.2452   9.2452  21.8486  29.6731
    31.9360  31.9360

          k =-0.4000 0.4000-0.4000 (   241 PWs)   bands (ev):

     6.2333   7.8270   7.8270   9.6994   9.6994  10.6280  18.2394  28.9560
    31.1019  31.1019

          k = 0.5000-0.5000 0.5000 (   242 PWs)   bands (ev):

     6.1284   7.7580   7.7580   9.8384   9.8384  12.1573  16.1418  28.6758
    30.7157  30.7157

          k = 0.0000 0.2000 0.0000 (   262 PWs)   bands (ev):

     5.2115   7.4539   7.7332   7.7332   8.5894   8.9189  29.6405  31.4387
    31.4387  31.4546

          k =-0.1000 0.3000-0.1000 (   251 PWs)   bands (ev):

     5.8439   7.4501   7.9891   8.1238   8.7032   9.0342  27.3751  30.0267
    30.4359  32.7812

          k =-0.2000 0.4000-0.2000 (   245 PWs)   bands (ev):

     6.4569   7.7572   7.9329   8.2059   9.2758   9.4073  23.3569  29.5880
    29.6793  32.2170

          k =-0.3000 0.5000-0.3000 (   242 PWs)   bands (ev):

     6.4397   7.7961   8.0774   8.6021   9.7189  10.7150  19.5511  28.8215
    29.2806  30.5531

          k = 0.6000-0.4000 0.6000 (   246 PWs)   bands (ev):

     6.3068   7.6643   7.8541   9.0813   9.7643  12.6797  16.5383  28.0549
    29.5094  29.6093

          k = 0.5000-0.3000 0.5000 (   243 PWs)   bands (ev):

     6.3837   7.7138   7.9125   9.1586   9.5771  12.1232  17.3930  27.5762
    29.6413  30.6239

          k = 0.4000-0.2000 0.4000 (   248 PWs)   bands (ev):

     6.4662   7.7846   7.9241   8.5948   9.0390  10.3853  20.7735  27.5828
    30.5069  32.5615

          k = 0.3000-0.1000 0.3000 (   243 PWs)   bands (ev):

     6.3611   7.7547   8.0578   8.0895   8.7869   9.5209  24.7460  28.0175
    31.9257  34.1181

          k = 0.2000 0.0000 0.2000 (   253 PWs)   bands (ev):

     5.5849   7.6004   7.7934   8.0096   8.6186   9.0628  28.5714  28.6537
    32.0191  34.2578

          k = 0.0000 0.4000 0.0000 (   242 PWs)   bands (ev):

     6.2305   7.2635   8.5117   8.5117   8.5869   9.1700  28.7757  28.7757
    29.7780  29.8183

          k =-0.1000 0.5000-0.1000 (   241 PWs)   bands (ev):

     6.6864   7.1707   8.3361   8.6623   9.3444   9.4376  25.2184  27.6214
    28.7714  30.2406

          k =-0.2000 0.6000-0.2000 (   245 PWs)   bands (ev):

     6.6850   7.3251   8.1372   8.4583   9.7313  11.0328  21.2800  26.9441
    27.0777  29.7712

          k = 0.7000-0.3000 0.7000 (   242 PWs)   bands (ev):

     6.6913   7.4817   8.3143   8.3264   9.8010  13.3694  17.8155  25.3631
    27.3690  29.5344

          k = 0.6000-0.2000 0.6000 (   244 PWs)   bands (ev):

     6.7335   7.5278   8.2379   8.3927   9.5199  14.1777  16.9636  24.2833
    28.5458  29.5882

          k = 0.5000-0.1000 0.5000 (   249 PWs)   bands (ev):

     6.9100   7.5580   8.0986   8.2124   8.9997  12.0404  20.2083  23.8369
    30.1622  30.4721

          k = 0.4000 0.0000 0.4000 (   242 PWs)   bands (ev):

     7.0296   7.5218   7.9724   8.5002   8.5999  10.5265  23.8385  24.2726
    31.3143  32.9464

          k = 0.0000 0.6000 0.0000 (   242 PWs)   bands (ev):

     6.6028   6.7709   9.0901   9.0901   9.5593   9.5954  26.0670  26.0670
    26.4886  29.8731

          k =-0.1000 0.7000-0.1000 (   243 PWs)   bands (ev):

     6.5365   6.6776   8.9386   9.1864   9.7016  11.3500  23.1856  24.3288
    25.2588  29.8341

          k = 0.8000-0.2000 0.8000 (   240 PWs)   bands (ev):

     6.6111   6.8674   8.6728   9.0491   9.8931  13.7729  19.7485  22.5392
    25.3667  29.7457

          k = 0.7000-0.1000 0.7000 (   238 PWs)   bands (ev):

     6.7713   7.3334   8.2985   8.8990   9.6399  16.4422  17.0036  21.2166
    26.4269  29.6863

          k = 0.6000-0.0000 0.6000 (   240 PWs)   bands (ev):

     7.0776   7.7498   7.7617   8.6396   9.2927  14.1762  19.7817  20.7341
    28.2410  29.8422

          k = 0.0000 0.8000 0.0000 (   242 PWs)   bands (ev):

     6.2859   6.4217   9.5729   9.7064   9.7064  12.1798  21.9480  24.1053
    24.1053  29.8304

          k = 0.9000-0.1000 0.9000 (   236 PWs)   bands (ev):

     6.3429   6.4712   9.5369   9.6655   9.9622  14.0383  20.2129  22.1273
    23.9142  29.9296

          k = 0.8000 0.0000 0.8000 (   236 PWs)   bands (ev):

     6.5132   6.8272   8.9467   9.4477   9.8071  16.0735  19.0364  19.8683
    24.7626  29.7970

          k = 0.0000-1.0000 0.0000 (   230 PWs)   bands (ev):

     6.3522   6.4920   9.7222  10.0515  10.0515  14.1586  19.4663  23.3735
    23.3735  29.9632

          k =-0.2000 0.4000 0.0000 (   238 PWs)   bands (ev):

     6.5092   7.3932   8.2013   8.5081   8.8366   9.5570  26.3048  26.6857
    31.2005  32.0530

          k =-0.3000 0.5000-0.1000 (   244 PWs)   bands (ev):

     6.8168   7.5922   7.8548   8.4628   9.1454  10.4995  22.4540  25.9289
    29.3068  32.2658

          k = 0.6000-0.4000 0.8000 (   243 PWs)   bands (ev):

     6.6900   7.6078   8.1248   8.4196   9.5673  12.3161  18.7876  25.8787
    27.6787  31.3530

          k = 0.5000-0.3000 0.7000 (   246 PWs)   bands (ev):

     6.5967   7.4540   8.1431   8.5327   9.6684  14.1070  16.3546  26.4652
    26.4740  30.9512

          k =-0.2000 0.6000 0.0000 (   237 PWs)   bands (ev):

     6.8977   7.0039   8.3314   9.1295   9.4101  10.6758  24.2540  24.5447
    26.7762  31.7190

          k = 0.7000-0.3000 0.9000 (   240 PWs)   bands (ev):

     6.8271   7.1661   8.0869   9.0278   9.6615  12.6492  20.6613  24.1367
    24.9268  31.6879

          k = 0.6000-0.2000 0.8000 (   245 PWs)   bands (ev):

     6.8530   7.2500   8.0273   8.6783   9.6606  15.1891  17.3754  23.2748
    24.7957  31.5920

          k = 0.5000-0.1000 0.7000 (   242 PWs)   bands (ev):

     7.1295   7.3481   7.8679   8.6328   9.5094  14.4017  18.5373  22.3550
    25.9732  32.0407

          k = 0.4000 0.0000 0.6000 (   243 PWs)   bands (ev):

     7.2569   7.4135   7.6077   8.8026   9.0932  12.1893  22.0413  22.1059
    27.5490  33.0510

          k = 0.8000-0.2000 1.0000 (   241 PWs)   bands (ev):

     6.5230   6.6119   8.8729   9.5601   9.6895  13.1160  21.9804  22.8216
    23.0204  31.4514

          k = 0.7000-0.1000 0.9000 (   243 PWs)   bands (ev):

     6.6138   6.8078   8.5112   9.2273   9.8271  15.5345  19.5149  20.7444
    23.2659  31.5905

          k = 0.6000 0.0000 0.8000 (   236 PWs)   bands (ev):

     6.9485   7.3491   8.1181   8.9075   9.7660  16.8295  18.0791  20.0500
    24.4275  31.8082

          k =-0.2000-1.0000 0.0000 (   240 PWs)   bands (ev):

     6.3848   6.4885   9.2750   9.5178   9.9334  15.2008  19.3890  22.1700
    22.3340  31.3702

          k = 0.6000-0.2000 1.0000 (   245 PWs)   bands (ev):

     6.9795   7.1046   7.7976   8.9763   9.6755  14.8148  20.4281  20.9146
    23.1668  34.5080

          k = 0.5000-0.1000 0.9000 (   240 PWs)   bands (ev):

     7.0865   7.3655   7.7196   8.8796   9.7928  17.4777  17.5587  21.1946
    22.2155  34.3347

          k =-0.4000-1.0000 0.0000 (   242 PWs)   bands (ev):

     6.8171   7.0720   8.1551   8.9504   9.9427  17.3730  19.5233  19.8093
    21.0943  34.3531

     the Fermi energy is    12.5372 ev

!    total energy              =     -83.71340652 Ry
     Harris-Foulkes estimate   =     -83.71340652 Ry
     estimated scf accuracy    <          6.0E-12 Ry

     The total energy is the sum of the following terms:

     one-electron contribution =      -3.84790907 Ry
     hartree contribution      =      14.02611772 Ry
     xc contribution           =     -22.03023268 Ry
     ewald contribution        =     -71.86118028 Ry
     smearing contrib. (-TS)   =      -0.00020221 Ry

     convergence has been achieved in   9 iterations

     Forces acting on atoms (cartesian axes, Ry/au):

     atom    1 type  1   force =     0.00000000    0.00000000    0.00000000

     Total force =     0.000000     Total SCF correction =     0.000000


     Computing stress (Cartesian axis) and pressure

          total   stress  (Ry/bohr**3)                   (kbar)     P=-2873.38
  -0.01953284   0.00000000   0.00000000      -2873.38      0.00      0.00
   0.00000000  -0.01953284  -0.00000000          0.00  -2873.38     -0.00
   0.00000000  -0.00000000  -0.01953284          0.00     -0.00  -2873.38


     Writing output data file Ag.save/

     init_run     :      0.15s CPU      0.16s WALL (       1 calls)
     electrons    :      1.75s CPU      1.95s WALL (       1 calls)
     forces       :      0.02s CPU      0.02s WALL (       1 calls)
     stress       :      0.05s CPU      0.05s WALL (       1 calls)

     Called by init_run:
     wfcinit      :      0.05s CPU      0.06s WALL (       1 calls)
     potinit      :      0.00s CPU      0.00s WALL (       1 calls)
     hinit0       :      0.09s CPU      0.10s WALL (       1 calls)

     Called by electrons:
     c_bands      :      1.48s CPU      1.65s WALL (      10 calls)
     sum_band     :      0.24s CPU      0.27s WALL (      10 calls)
     v_of_rho     :      0.01s CPU      0.01s WALL (      10 calls)
     newd         :      0.02s CPU      0.02s WALL (      10 calls)
     mix_rho      :      0.00s CPU      0.00s WALL (      10 calls)

     Called by c_bands:
     init_us_2    :      0.04s CPU      0.05s WALL (    1081 calls)
     cegterg      :      1.42s CPU      1.58s WALL (     470 calls)

     Called by sum_band:
     sum_band:bec :      0.00s CPU      0.00s WALL (     470 calls)
     addusdens    :      0.02s CPU      0.02s WALL (      10 calls)

     Called by *egterg:
     h_psi        :      1.01s CPU      1.13s WALL (    1460 calls)
     s_psi        :      0.03s CPU      0.03s WALL (    1460 calls)
     g_psi        :      0.00s CPU      0.00s WALL (     943 calls)
     cdiaghg      :      0.25s CPU      0.27s WALL (    1366 calls)

     Called by h_psi:
     h_psi:pot    :      1.01s CPU      1.12s WALL (    1460 calls)
     h_psi:calbec :      0.05s CPU      0.06s WALL (    1460 calls)
     vloc_psi     :      0.92s CPU      1.02s WALL (    1460 calls)
     add_vuspsi   :      0.03s CPU      0.03s WALL (    1460 calls)

     General routines
     calbec       :      0.07s CPU      0.08s WALL (    2165 calls)
     fft          :      0.01s CPU      0.01s WALL (     137 calls)
     ffts         :      0.00s CPU      0.00s WALL (      10 calls)
     fftw         :      1.01s CPU      1.13s WALL (   27890 calls)

     Parallel routines
     fft_scatt_xy :      0.09s CPU      0.11s WALL (   28037 calls)
     fft_scatt_yz :      0.33s CPU      0.37s WALL (   28037 calls)

     PWSCF        :     2.76s CPU         3.03s WALL


   This run was terminated on:   0: 9:54  27Mar2024            

=------------------------------------------------------------------------------=
   JOB DONE.
=------------------------------------------------------------------------------=
