
     Program PWSCF v.6.3MaX starts on 27Mar2024 at  0:22:19 

     This program is part of the open-source Quantum ESPRESSO suite
     for quantum simulation of materials; please cite
         "P. Giannozzi et al., J. Phys.:Condens. Matter 21 395502 (2009);
         "P. Giannozzi et al., J. Phys.:Condens. Matter 29 465901 (2017);
          URL http://www.quantum-espresso.org", 
     in publications or presentations arising from this work. More details at
     http://www.quantum-espresso.org/quote

     Parallel version (MPI), running on     5 processors

     MPI processes distributed on     1 nodes
     R & G space division:  proc/nbgrp/npool/nimage =       5
     Waiting for input...
     Reading input from standard input

     Current dimensions of program PWSCF are:
     Max number of different atomic species (ntypx) = 10
     Max number of k-points (npk) =  40000
     Max angular momentum in pseudopotentials (lmaxx) =  3
               file Ag.pbe-n-kjpaw_psl.1.0.0.UPF: wavefunction(s)  5S 5P renormalized

     Subspace diagonalization in iterative solution of the eigenvalue problem:
     a serial algorithm will be used


     Parallelization info
     --------------------
     sticks:   dense  smooth     PW     G-vecs:    dense   smooth      PW
     Min          84      84     27                 1115     1115     207
     Max          85      85     28                 1117     1117     208
     Sum         421     421    139                 5577     5577    1037



     bravais-lattice index     =            2
     lattice parameter (alat)  =       7.7200  a.u.
     unit-cell volume          =     115.0249 (a.u.)^3
     number of atoms/cell      =            1
     number of atomic types    =            1
     number of electrons       =        11.00
     number of Kohn-Sham states=           10
     kinetic-energy cutoff     =      50.0000  Ry
     charge density cutoff     =     200.0000  Ry
     convergence threshold     =      1.0E-08
     mixing beta               =       0.7000
     number of iterations used =            8  plain     mixing
     Exchange-correlation      = SLA PW PBX PBC ( 1  4  3  4 0 0)

     celldm(1)=   7.720000  celldm(2)=   0.000000  celldm(3)=   0.000000
     celldm(4)=   0.000000  celldm(5)=   0.000000  celldm(6)=   0.000000

     crystal axes: (cart. coord. in units of alat)
               a(1) = (  -0.500000   0.000000   0.500000 )  
               a(2) = (   0.000000   0.500000   0.500000 )  
               a(3) = (  -0.500000   0.500000   0.000000 )  

     reciprocal axes: (cart. coord. in units 2 pi/alat)
               b(1) = ( -1.000000 -1.000000  1.000000 )  
               b(2) = (  1.000000  1.000000  1.000000 )  
               b(3) = ( -1.000000  1.000000 -1.000000 )  


     PseudoPot. # 1 for Ag read from file:
     /home/lorenzo/pseudos/Ag/Ag.pbe-n-kjpaw_psl.1.0.0.UPF
     MD5 check sum: 51099775af2a3182a6a1caffb86952a3
     Pseudo is Projector augmented-wave + core cor, Zval = 11.0
     Generated using "atomic" code by A. Dal Corso v.6.2.2
     Shape of augmentation charge: PSQ
     Using radial grid of 1237 points,  6 beta functions with: 
                l(1) =   0
                l(2) =   0
                l(3) =   1
                l(4) =   1
                l(5) =   2
                l(6) =   2
     Q(r) pseudized with 0 coefficients 


     atomic species   valence    mass     pseudopotential
        Ag            11.00   107.86820     Ag( 1.00)

     48 Sym. Ops., with inversion, found



   Cartesian axes

     site n.     atom                  positions (alat units)
         1           Ag  tau(   1) = (   0.0000000   0.0000000   0.0000000  )

     number of k points=    35  gaussian smearing, width (Ry)=  0.0100
                       cart. coord. in units 2pi/alat
        k(    1) = (   0.0000000   0.0000000   0.0000000), wk =   0.0027435
        k(    2) = (  -0.1111111   0.1111111  -0.1111111), wk =   0.0219479
        k(    3) = (  -0.2222222   0.2222222  -0.2222222), wk =   0.0219479
        k(    4) = (  -0.3333333   0.3333333  -0.3333333), wk =   0.0219479
        k(    5) = (  -0.4444444   0.4444444  -0.4444444), wk =   0.0219479
        k(    6) = (   0.0000000   0.2222222   0.0000000), wk =   0.0164609
        k(    7) = (  -0.1111111   0.3333333  -0.1111111), wk =   0.0658436
        k(    8) = (  -0.2222222   0.4444444  -0.2222222), wk =   0.0658436
        k(    9) = (  -0.3333333   0.5555556  -0.3333333), wk =   0.0658436
        k(   10) = (   0.5555556  -0.3333333   0.5555556), wk =   0.0658436
        k(   11) = (   0.4444444  -0.2222222   0.4444444), wk =   0.0658436
        k(   12) = (   0.3333333  -0.1111111   0.3333333), wk =   0.0658436
        k(   13) = (   0.2222222  -0.0000000   0.2222222), wk =   0.0329218
        k(   14) = (   0.0000000   0.4444444   0.0000000), wk =   0.0164609
        k(   15) = (  -0.1111111   0.5555556  -0.1111111), wk =   0.0658436
        k(   16) = (  -0.2222222   0.6666667  -0.2222222), wk =   0.0658436
        k(   17) = (   0.6666667  -0.2222222   0.6666667), wk =   0.0658436
        k(   18) = (   0.5555556  -0.1111111   0.5555556), wk =   0.0658436
        k(   19) = (   0.4444444   0.0000000   0.4444444), wk =   0.0329218
        k(   20) = (   0.0000000   0.6666667   0.0000000), wk =   0.0164609
        k(   21) = (  -0.1111111   0.7777778  -0.1111111), wk =   0.0658436
        k(   22) = (   0.7777778  -0.1111111   0.7777778), wk =   0.0658436
        k(   23) = (   0.6666667  -0.0000000   0.6666667), wk =   0.0329218
        k(   24) = (   0.0000000   0.8888889   0.0000000), wk =   0.0164609
        k(   25) = (   0.8888889   0.0000000   0.8888889), wk =   0.0329218
        k(   26) = (  -0.2222222   0.4444444   0.0000000), wk =   0.0658436
        k(   27) = (  -0.3333333   0.5555556  -0.1111111), wk =   0.1316872
        k(   28) = (   0.5555556  -0.3333333   0.7777778), wk =   0.1316872
        k(   29) = (  -0.2222222   0.6666667   0.0000000), wk =   0.0658436
        k(   30) = (   0.6666667  -0.2222222   0.8888889), wk =   0.1316872
        k(   31) = (   0.5555556  -0.1111111   0.7777778), wk =   0.1316872
        k(   32) = (   0.4444444   0.0000000   0.6666667), wk =   0.0658436
        k(   33) = (   0.7777778  -0.1111111   1.0000000), wk =   0.0658436
        k(   34) = (   0.6666667  -0.0000000   0.8888889), wk =   0.0658436
        k(   35) = (   0.5555556  -0.1111111   1.0000000), wk =   0.0658436

     Dense  grid:     5577 G-vectors     FFT dimensions: (  25,  25,  25)

     Estimated max dynamical RAM per process >       6.29 MB

     Estimated total dynamical RAM >      31.45 MB

     Initial potential from superposition of free atoms

     starting charge   10.99960, renormalised to   11.00000
     Starting wfcs are    9 randomized atomic wfcs +    1 random wfcs
     Checking if some PAW data can be deallocated... 

     total cpu time spent up to now is        1.2 secs

     Self-consistent Calculation

     iteration #  1     ecut=    50.00 Ry     beta= 0.70
     Davidson diagonalization with overlap
     ethr =  1.00E-02,  avg # of iterations =  4.6

     Threshold (ethr) on eigenvalues was too large:
     Diagonalizing with lowered threshold

     Davidson diagonalization with overlap
     ethr =  2.82E-05,  avg # of iterations =  2.7

     total cpu time spent up to now is        2.1 secs

     total energy              =    -355.30160073 Ry
     Harris-Foulkes estimate   =    -355.30347617 Ry
     estimated scf accuracy    <       0.00341410 Ry

     iteration #  2     ecut=    50.00 Ry     beta= 0.70
     Davidson diagonalization with overlap
     ethr =  3.10E-05,  avg # of iterations =  2.0

     total cpu time spent up to now is        2.5 secs

     total energy              =    -355.30255446 Ry
     Harris-Foulkes estimate   =    -355.30368970 Ry
     estimated scf accuracy    <       0.00241521 Ry

     iteration #  3     ecut=    50.00 Ry     beta= 0.70
     Davidson diagonalization with overlap
     ethr =  2.20E-05,  avg # of iterations =  1.8

     total cpu time spent up to now is        2.8 secs

     total energy              =    -355.30303293 Ry
     Harris-Foulkes estimate   =    -355.30301008 Ry
     estimated scf accuracy    <       0.00001523 Ry

     iteration #  4     ecut=    50.00 Ry     beta= 0.70
     Davidson diagonalization with overlap
     ethr =  1.38E-07,  avg # of iterations =  2.9

     total cpu time spent up to now is        3.2 secs

     total energy              =    -355.30303890 Ry
     Harris-Foulkes estimate   =    -355.30303865 Ry
     estimated scf accuracy    <       0.00000030 Ry

     iteration #  5     ecut=    50.00 Ry     beta= 0.70
     Davidson diagonalization with overlap
     ethr =  2.70E-09,  avg # of iterations =  1.9

     total cpu time spent up to now is        3.6 secs

     End of self-consistent calculation

          k = 0.0000 0.0000 0.0000 (   701 PWs)   bands (ev):

     5.0666   8.0828   8.0828   8.0828   9.1214   9.1214  29.8022  33.0894
    33.0894  33.0894

          k =-0.1111 0.1111-0.1111 (   685 PWs)   bands (ev):

     5.4428   8.0080   8.1818   8.1818   9.0912   9.0912  29.2107  30.8301
    33.0552  33.0552

          k =-0.2222 0.2222-0.2222 (   679 PWs)   bands (ev):

     6.3009   8.1115   8.2941   8.2941   9.1760   9.1760  25.1814  30.3691
    32.7675  32.7675

          k =-0.3333 0.3333-0.3333 (   685 PWs)   bands (ev):

     6.5891   8.1950   8.1950   9.5301   9.5468   9.5468  20.8607  29.5658
    31.9808  31.9808

          k =-0.4444 0.4444-0.4444 (   682 PWs)   bands (ev):

     6.4939   8.0777   8.0777   9.8736   9.8736  11.8395  17.2432  28.9310
    31.2151  31.2151

          k = 0.0000 0.2222 0.0000 (   681 PWs)   bands (ev):

     5.5694   7.8881   8.2709   8.2709   8.9377   9.2076  29.8118  31.4740
    31.4740  31.4745

          k =-0.1111 0.3333-0.1111 (   681 PWs)   bands (ev):

     6.3120   7.7345   8.3925   8.4500   8.9838   9.3288  26.9087  30.0829
    30.2845  32.8132

          k =-0.2222 0.4444-0.2222 (   690 PWs)   bands (ev):

     6.8100   8.1789   8.1856   8.4314   9.6389   9.9390  22.4978  29.4279
    29.5149  31.6549

          k =-0.3333 0.5556-0.3333 (   692 PWs)   bands (ev):

     6.7227   7.9796   8.2984   8.9935   9.9123  11.9418  18.4824  28.4775
    29.3656  30.1859

          k = 0.5556-0.3333 0.5556 (   684 PWs)   bands (ev):

     6.6878   7.9381   8.2313   9.3268   9.8577  13.3120  16.6614  27.6551
    29.7389  30.1461

          k = 0.4444-0.2222 0.4444 (   681 PWs)   bands (ev):

     6.7973   8.0507   8.2959   8.9874   9.4631  11.3147  19.7655  27.3689
    30.3479  31.9768

          k = 0.3333-0.1111 0.3333 (   677 PWs)   bands (ev):

     6.7949   7.9500   8.3481   8.4417   8.9779   9.9075  23.9713  27.6617
    31.8470  34.4873

          k = 0.2222-0.0000 0.2222 (   682 PWs)   bands (ev):

     6.0188   7.8520   8.3328   8.3372   8.9070   9.2959  28.3334  28.3381
    32.4058  34.6725

          k = 0.0000 0.4444 0.0000 (   685 PWs)   bands (ev):

     6.7003   7.4187   8.7932   8.7932   8.8464   9.4293  28.4013  28.4013
    29.4665  29.8516

          k =-0.1111 0.5556-0.1111 (   684 PWs)   bands (ev):

     7.0154   7.3081   8.6005   8.9427   9.6827  10.1415  24.5468  27.2294
    27.8245  30.1496

          k =-0.2222 0.6667-0.2222 (   690 PWs)   bands (ev):

     6.9589   7.5827   8.4772   8.8334   9.9530  12.3840  20.3683  25.7929
    26.9545  29.8214

          k = 0.6667-0.2222 0.6667 (   688 PWs)   bands (ev):

     7.0256   7.7024   8.5344   8.7068   9.8808  15.0769  17.0013  24.2333
    27.7481  29.6962

          k = 0.5556-0.1111 0.5556 (   687 PWs)   bands (ev):

     7.2553   7.7929   8.3890   8.6675   9.4609  13.4764  19.2714  23.3786
    29.5616  30.0481

          k = 0.4444 0.0000 0.4444 (   676 PWs)   bands (ev):

     7.4789   7.6824   8.1916   8.7099   8.9571  11.3534  23.2571  23.4114
    30.9956  32.0775

          k = 0.0000 0.6667 0.0000 (   693 PWs)   bands (ev):

     6.8175   6.9228   9.4965   9.4965   9.6890  10.6747  25.1802  25.6135
    25.6135  29.9135

          k =-0.1111 0.7778-0.1111 (   687 PWs)   bands (ev):

     6.7347   6.8826   9.3798   9.4896   9.9760  12.7821  22.4762  23.0505
    24.9867  29.9408

          k = 0.7778-0.1111 0.7778 (   693 PWs)   bands (ev):

     6.8280   7.2005   8.9092   9.3237   9.9506  15.6647  19.0671  21.1724
    25.5566  29.8387

          k = 0.6667-0.0000 0.6667 (   680 PWs)   bands (ev):

     7.1163   7.6958   8.3141   9.0795   9.6449  16.0302  18.7001  20.4300
    27.2126  29.8478

          k = 0.0000 0.8889 0.0000 (   684 PWs)   bands (ev):

     6.4850   6.6182   9.8643  10.0477  10.0477  13.6844  20.5935  23.9420
    23.9420  29.9600

          k = 0.8889 0.0000 0.8889 (   696 PWs)   bands (ev):

     6.5510   6.7153   9.7341   9.7568  10.0733  15.1421  19.6368  21.9791
    24.1511  29.9633

          k =-0.2222 0.4444 0.0000 (   686 PWs)   bands (ev):

     7.0191   7.5236   8.2497   8.7924   9.0531   9.9478  25.7721  26.0683
    30.4968  32.4514

          k =-0.3333 0.5556-0.1111 (   685 PWs)   bands (ev):

     7.1604   7.9071   8.0172   8.7864   9.4844  11.4832  21.5872  25.4775
    28.4459  32.4247

          k = 0.5556-0.3333 0.7778 (   688 PWs)   bands (ev):

     7.0433   7.7347   8.4999   8.6844   9.8148  13.8555  17.7815  25.7444
    26.7891  31.6167

          k =-0.2222 0.6667 0.0000 (   680 PWs)   bands (ev):

     7.1152   7.1173   8.5740   9.4888   9.5575  11.8024  23.6968  23.8613
    25.5056  31.9691

          k = 0.6667-0.2222 0.8889 (   685 PWs)   bands (ev):

     7.0872   7.3794   8.3702   9.2397   9.8821  14.3218  19.8645  23.4101
    24.0225  32.1139

          k = 0.5556-0.1111 0.7778 (   691 PWs)   bands (ev):

     7.2734   7.5882   8.1609   9.0126   9.8334  16.3393  17.6398  22.0909
    24.9178  32.3205

          k = 0.4444 0.0000 0.6667 (   690 PWs)   bands (ev):

     7.6088   7.6538   7.7880   9.0691   9.4942  13.6456  21.1510  21.5962
    26.5154  33.1045

          k = 0.7778-0.1111 1.0000 (   686 PWs)   bands (ev):

     6.7482   6.8595   9.1955   9.6681  10.0462  14.8046  20.7431  22.4359
    22.6368  31.7097

          k = 0.6667-0.0000 0.8889 (   692 PWs)   bands (ev):

     6.9464   7.2233   8.6578   9.3381  10.0398  17.0872  19.1534  20.0491
    23.3656  32.1048

          k = 0.5556-0.1111 1.0000 (   694 PWs)   bands (ev):

     7.2161   7.5669   8.0229   9.1749  10.0422  16.9032  19.7385  20.6183
    21.9744  35.2898

     the Fermi energy is    13.1640 ev

!    total energy              =    -355.30303892 Ry
     Harris-Foulkes estimate   =    -355.30303892 Ry
     estimated scf accuracy    <          2.7E-09 Ry

     total all-electron energy =    -10632.269093 Ry

     The total energy is the sum of the following terms:

     one-electron contribution =       1.56357632 Ry
     hartree contribution      =      14.66270986 Ry
     xc contribution           =     -22.35261202 Ry
     ewald contribution        =     -71.86118022 Ry
     one-center paw contrib.   =    -277.31547496 Ry
     smearing contrib. (-TS)   =      -0.00005789 Ry

     convergence has been achieved in   5 iterations

     Forces acting on atoms (cartesian axes, Ry/au):

     atom    1 type  1   force =     0.00000000    0.00000000    0.00000000

     Total force =     0.000000     Total SCF correction =     0.000000


     Computing stress (Cartesian axis) and pressure

          total   stress  (Ry/bohr**3)                   (kbar)     P=   30.35
   0.00020632   0.00000000   0.00000000         30.35      0.00      0.00
   0.00000000   0.00020632  -0.00000000          0.00     30.35     -0.00
   0.00000000  -0.00000000   0.00020632          0.00     -0.00     30.35


     Writing output data file Ag.save/

     init_run     :      0.35s CPU      0.38s WALL (       1 calls)
     electrons    :      2.26s CPU      2.42s WALL (       1 calls)
     forces       :      0.05s CPU      0.05s WALL (       1 calls)
     stress       :      0.16s CPU      0.16s WALL (       1 calls)

     Called by init_run:
     wfcinit      :      0.08s CPU      0.09s WALL (       1 calls)
     potinit      :      0.10s CPU      0.12s WALL (       1 calls)
     hinit0       :      0.14s CPU      0.15s WALL (       1 calls)

     Called by electrons:
     c_bands      :      1.49s CPU      1.56s WALL (       6 calls)
     sum_band     :      0.27s CPU      0.28s WALL (       6 calls)
     v_of_rho     :      0.02s CPU      0.02s WALL (       6 calls)
     newd         :      0.03s CPU      0.04s WALL (       6 calls)
     PAW_pot      :      0.55s CPU      0.64s WALL (       6 calls)
     mix_rho      :      0.00s CPU      0.00s WALL (       6 calls)

     Called by c_bands:
     init_us_2    :      0.05s CPU      0.05s WALL (     525 calls)
     cegterg      :      1.43s CPU      1.50s WALL (     210 calls)

     Called by sum_band:
     sum_band:bec :      0.00s CPU      0.00s WALL (     210 calls)
     addusdens    :      0.03s CPU      0.03s WALL (       6 calls)

     Called by *egterg:
     h_psi        :      1.12s CPU      1.18s WALL (     799 calls)
     s_psi        :      0.04s CPU      0.04s WALL (     799 calls)
     g_psi        :      0.00s CPU      0.00s WALL (     554 calls)
     cdiaghg      :      0.16s CPU      0.17s WALL (     729 calls)

     Called by h_psi:
     h_psi:pot    :      1.12s CPU      1.17s WALL (     799 calls)
     h_psi:calbec :      0.05s CPU      0.05s WALL (     799 calls)
     vloc_psi     :      1.02s CPU      1.08s WALL (     799 calls)
     add_vuspsi   :      0.04s CPU      0.04s WALL (     799 calls)

     General routines
     calbec       :      0.09s CPU      0.09s WALL (    1184 calls)
     fft          :      0.02s CPU      0.02s WALL (      93 calls)
     ffts         :      0.00s CPU      0.00s WALL (       6 calls)
     fftw         :      1.13s CPU      1.19s WALL (   13162 calls)

     Parallel routines
     fft_scatt_xy :      0.09s CPU      0.10s WALL (   13261 calls)
     fft_scatt_yz :      0.27s CPU      0.29s WALL (   13261 calls)

     PWSCF        :     3.66s CPU         3.89s WALL


   This run was terminated on:   0:22:23  27Mar2024            

=------------------------------------------------------------------------------=
   JOB DONE.
=------------------------------------------------------------------------------=
