
     Program PWSCF v.6.3MaX starts on 27Mar2024 at  0: 6:25 

     This program is part of the open-source Quantum ESPRESSO suite
     for quantum simulation of materials; please cite
         "P. Giannozzi et al., J. Phys.:Condens. Matter 21 395502 (2009);
         "P. Giannozzi et al., J. Phys.:Condens. Matter 29 465901 (2017);
          URL http://www.quantum-espresso.org", 
     in publications or presentations arising from this work. More details at
     http://www.quantum-espresso.org/quote

     Parallel version (MPI), running on     5 processors

     MPI processes distributed on     1 nodes
     R & G space division:  proc/nbgrp/npool/nimage =       5
     Waiting for input...
     Reading input from standard input

     Current dimensions of program PWSCF are:
     Max number of different atomic species (ntypx) = 10
     Max number of k-points (npk) =  40000
     Max angular momentum in pseudopotentials (lmaxx) =  3
               file Ag.pbe-n-kjpaw_psl.1.0.0.UPF: wavefunction(s)  5S 5P renormalized

     Subspace diagonalization in iterative solution of the eigenvalue problem:
     a serial algorithm will be used


     Parallelization info
     --------------------
     sticks:   dense  smooth     PW     G-vecs:    dense   smooth      PW
     Min          24      24      6                  178      178      22
     Max          25      25      7                  181      181      23
     Sum         121     121     31                  893      893     113



     bravais-lattice index     =            2
     lattice parameter (alat)  =       7.7200  a.u.
     unit-cell volume          =     115.0249 (a.u.)^3
     number of atoms/cell      =            1
     number of atomic types    =            1
     number of electrons       =        11.00
     number of Kohn-Sham states=           10
     kinetic-energy cutoff     =      15.0000  Ry
     charge density cutoff     =      60.0000  Ry
     convergence threshold     =      1.0E-08
     mixing beta               =       0.7000
     number of iterations used =            8  plain     mixing
     Exchange-correlation      = SLA PW PBX PBC ( 1  4  3  4 0 0)

     celldm(1)=   7.720000  celldm(2)=   0.000000  celldm(3)=   0.000000
     celldm(4)=   0.000000  celldm(5)=   0.000000  celldm(6)=   0.000000

     crystal axes: (cart. coord. in units of alat)
               a(1) = (  -0.500000   0.000000   0.500000 )  
               a(2) = (   0.000000   0.500000   0.500000 )  
               a(3) = (  -0.500000   0.500000   0.000000 )  

     reciprocal axes: (cart. coord. in units 2 pi/alat)
               b(1) = ( -1.000000 -1.000000  1.000000 )  
               b(2) = (  1.000000  1.000000  1.000000 )  
               b(3) = ( -1.000000  1.000000 -1.000000 )  


     PseudoPot. # 1 for Ag read from file:
     /home/lorenzo/pseudos/Ag/Ag.pbe-n-kjpaw_psl.1.0.0.UPF
     MD5 check sum: 51099775af2a3182a6a1caffb86952a3
     Pseudo is Projector augmented-wave + core cor, Zval = 11.0
     Generated using "atomic" code by A. Dal Corso v.6.2.2
     Shape of augmentation charge: PSQ
     Using radial grid of 1237 points,  6 beta functions with: 
                l(1) =   0
                l(2) =   0
                l(3) =   1
                l(4) =   1
                l(5) =   2
                l(6) =   2
     Q(r) pseudized with 0 coefficients 


     atomic species   valence    mass     pseudopotential
        Ag            11.00   107.86820     Ag( 1.00)

     48 Sym. Ops., with inversion, found



   Cartesian axes

     site n.     atom                  positions (alat units)
         1           Ag  tau(   1) = (   0.0000000   0.0000000   0.0000000  )

     number of k points=     1  gaussian smearing, width (Ry)=  0.0100
                       cart. coord. in units 2pi/alat
        k(    1) = (   0.0000000   0.0000000   0.0000000), wk =   2.0000000

     Dense  grid:      893 G-vectors     FFT dimensions: (  15,  15,  15)

     Estimated max dynamical RAM per process >       1.45 MB

     Estimated total dynamical RAM >       7.26 MB

     Check: negative/imaginary core charge=   -0.000001    0.000000

     Initial potential from superposition of free atoms

     starting charge   10.99960, renormalised to   11.00000
     Starting wfcs are    9 randomized atomic wfcs +    1 random wfcs
     Checking if some PAW data can be deallocated... 

     total cpu time spent up to now is        1.2 secs

     Self-consistent Calculation

     iteration #  1     ecut=    15.00 Ry     beta= 0.70
     Davidson diagonalization with overlap
     ethr =  1.00E-02,  avg # of iterations =  5.0

     total cpu time spent up to now is        1.3 secs

     total energy              =    -349.78568945 Ry
     Harris-Foulkes estimate   =    -352.06786799 Ry
     estimated scf accuracy    <       2.92939137 Ry

     iteration #  2     ecut=    15.00 Ry     beta= 0.70
     Davidson diagonalization with overlap
     ethr =  1.00E-02,  avg # of iterations =  3.0

     total cpu time spent up to now is        1.4 secs

     total energy              =    -350.51955834 Ry
     Harris-Foulkes estimate   =    -350.56535511 Ry
     estimated scf accuracy    <       0.12877948 Ry

     iteration #  3     ecut=    15.00 Ry     beta= 0.70
     Davidson diagonalization with overlap
     ethr =  1.17E-03,  avg # of iterations =  1.0

     total cpu time spent up to now is        1.5 secs

     total energy              =    -350.52620600 Ry
     Harris-Foulkes estimate   =    -350.52808797 Ry
     estimated scf accuracy    <       0.00747989 Ry

     iteration #  4     ecut=    15.00 Ry     beta= 0.70
     Davidson diagonalization with overlap
     ethr =  6.80E-05,  avg # of iterations =  3.0

     total cpu time spent up to now is        1.6 secs

     total energy              =    -350.52816310 Ry
     Harris-Foulkes estimate   =    -350.52820926 Ry
     estimated scf accuracy    <       0.00034082 Ry

     iteration #  5     ecut=    15.00 Ry     beta= 0.70
     Davidson diagonalization with overlap
     ethr =  3.10E-06,  avg # of iterations =  1.0

     total cpu time spent up to now is        1.8 secs

     total energy              =    -350.52808790 Ry
     Harris-Foulkes estimate   =    -350.52816740 Ry
     estimated scf accuracy    <       0.00020482 Ry

     iteration #  6     ecut=    15.00 Ry     beta= 0.70
     Davidson diagonalization with overlap
     ethr =  1.86E-06,  avg # of iterations =  2.0

     total cpu time spent up to now is        1.9 secs

     total energy              =    -350.52811915 Ry
     Harris-Foulkes estimate   =    -350.52815120 Ry
     estimated scf accuracy    <       0.00005462 Ry

     iteration #  7     ecut=    15.00 Ry     beta= 0.70
     Davidson diagonalization with overlap
     ethr =  4.97E-07,  avg # of iterations =  3.0

     total cpu time spent up to now is        2.0 secs

     total energy              =    -350.52812584 Ry
     Harris-Foulkes estimate   =    -350.52812712 Ry
     estimated scf accuracy    <       0.00000419 Ry

     iteration #  8     ecut=    15.00 Ry     beta= 0.70
     Davidson diagonalization with overlap
     ethr =  3.81E-08,  avg # of iterations =  1.0

     total cpu time spent up to now is        2.1 secs

     total energy              =    -350.52812483 Ry
     Harris-Foulkes estimate   =    -350.52812595 Ry
     estimated scf accuracy    <       0.00000160 Ry

     iteration #  9     ecut=    15.00 Ry     beta= 0.70
     Davidson diagonalization with overlap
     ethr =  1.45E-08,  avg # of iterations =  3.0

     total cpu time spent up to now is        2.2 secs

     total energy              =    -350.52812526 Ry
     Harris-Foulkes estimate   =    -350.52812528 Ry
     estimated scf accuracy    <       0.00000012 Ry

     iteration # 10     ecut=    15.00 Ry     beta= 0.70
     Davidson diagonalization with overlap
     ethr =  1.09E-09,  avg # of iterations =  1.0

     total cpu time spent up to now is        2.3 secs

     total energy              =    -350.52812524 Ry
     Harris-Foulkes estimate   =    -350.52812526 Ry
     estimated scf accuracy    <       0.00000003 Ry

     iteration # 11     ecut=    15.00 Ry     beta= 0.70
     Davidson diagonalization with overlap
     ethr =  2.67E-10,  avg # of iterations =  2.0

     total cpu time spent up to now is        2.5 secs

     End of self-consistent calculation

          k = 0.0000 0.0000 0.0000 (   113 PWs)   bands (ev):

     4.9076   8.0200   8.0200   8.0200   8.7545   8.7545  31.4661  32.4557
    32.4557  32.4557

     the Fermi energy is     8.8194 ev

!    total energy              =    -350.52812525 Ry
     Harris-Foulkes estimate   =    -350.52812525 Ry
     estimated scf accuracy    <          7.7E-10 Ry

     total all-electron energy =    -10627.494179 Ry

     The total energy is the sum of the following terms:

     one-electron contribution =       8.46329269 Ry
     hartree contribution      =       9.02468714 Ry
     xc contribution           =     -20.84447071 Ry
     ewald contribution        =     -71.86118021 Ry
     one-center paw contrib.   =    -275.30146608 Ry
     smearing contrib. (-TS)   =      -0.00898808 Ry

     convergence has been achieved in  11 iterations

     Forces acting on atoms (cartesian axes, Ry/au):

     atom    1 type  1   force =     0.00000000    0.00000000    0.00000000

     Total force =     0.000000     Total SCF correction =     0.000000


     Computing stress (Cartesian axis) and pressure

          total   stress  (Ry/bohr**3)                   (kbar)     P=********
  -0.10004934  -0.00000000  -0.00000000     -14717.76     -0.00     -0.00
  -0.00000000  -0.10004934   0.00000000         -0.00 -14717.76      0.00
  -0.00000000   0.00000000  -0.10004934         -0.00      0.00 -14717.76


     Writing output data file Ag.save/

     init_run     :      0.17s CPU      0.19s WALL (       1 calls)
     electrons    :      1.15s CPU      1.32s WALL (       1 calls)
     forces       :      0.00s CPU      0.01s WALL (       1 calls)
     stress       :      0.01s CPU      0.01s WALL (       1 calls)

     Called by init_run:
     wfcinit      :      0.00s CPU      0.00s WALL (       1 calls)
     potinit      :      0.09s CPU      0.11s WALL (       1 calls)
     hinit0       :      0.07s CPU      0.07s WALL (       1 calls)

     Called by electrons:
     c_bands      :      0.03s CPU      0.03s WALL (      11 calls)
     sum_band     :      0.03s CPU      0.03s WALL (      11 calls)
     v_of_rho     :      0.01s CPU      0.01s WALL (      12 calls)
     newd         :      0.01s CPU      0.01s WALL (      12 calls)
     PAW_pot      :      1.16s CPU      1.32s WALL (      12 calls)
     mix_rho      :      0.00s CPU      0.00s WALL (      11 calls)

     Called by c_bands:
     init_us_2    :      0.00s CPU      0.00s WALL (      23 calls)
     cegterg      :      0.02s CPU      0.03s WALL (      11 calls)

     Called by sum_band:
     sum_band:bec :      0.00s CPU      0.00s WALL (      11 calls)
     addusdens    :      0.01s CPU      0.01s WALL (      11 calls)

     Called by *egterg:
     h_psi        :      0.01s CPU      0.02s WALL (      37 calls)
     s_psi        :      0.00s CPU      0.00s WALL (      37 calls)
     g_psi        :      0.00s CPU      0.00s WALL (      25 calls)
     cdiaghg      :      0.01s CPU      0.01s WALL (      36 calls)

     Called by h_psi:
     h_psi:pot    :      0.01s CPU      0.02s WALL (      37 calls)
     h_psi:calbec :      0.00s CPU      0.00s WALL (      37 calls)
     vloc_psi     :      0.01s CPU      0.02s WALL (      37 calls)
     add_vuspsi   :      0.00s CPU      0.00s WALL (      37 calls)

     General routines
     calbec       :      0.00s CPU      0.00s WALL (      53 calls)
     fft          :      0.01s CPU      0.01s WALL (     158 calls)
     ffts         :      0.00s CPU      0.00s WALL (      11 calls)
     fftw         :      0.01s CPU      0.02s WALL (     688 calls)

     Parallel routines
     fft_scatt_xy :      0.00s CPU      0.00s WALL (     857 calls)
     fft_scatt_yz :      0.01s CPU      0.01s WALL (     857 calls)

     PWSCF        :     2.30s CPU         2.54s WALL


   This run was terminated on:   0: 6:27  27Mar2024            

=------------------------------------------------------------------------------=
   JOB DONE.
=------------------------------------------------------------------------------=
