
     Program PWSCF v.6.3MaX starts on 27Mar2024 at  0:24:12 

     This program is part of the open-source Quantum ESPRESSO suite
     for quantum simulation of materials; please cite
         "P. Giannozzi et al., J. Phys.:Condens. Matter 21 395502 (2009);
         "P. Giannozzi et al., J. Phys.:Condens. Matter 29 465901 (2017);
          URL http://www.quantum-espresso.org", 
     in publications or presentations arising from this work. More details at
     http://www.quantum-espresso.org/quote

     Parallel version (MPI), running on     5 processors

     MPI processes distributed on     1 nodes
     R & G space division:  proc/nbgrp/npool/nimage =       5
     Waiting for input...
     Reading input from standard input

     Current dimensions of program PWSCF are:
     Max number of different atomic species (ntypx) = 10
     Max number of k-points (npk) =  40000
     Max angular momentum in pseudopotentials (lmaxx) =  3

     Subspace diagonalization in iterative solution of the eigenvalue problem:
     a serial algorithm will be used


     Parallelization info
     --------------------
     sticks:   dense  smooth     PW     G-vecs:    dense   smooth      PW
     Min          90      90     30                 1274     1274     241
     Max          91      91     31                 1276     1276     244
     Sum         451     451    151                 6375     6375    1211



     bravais-lattice index     =            2
     lattice parameter (alat)  =       7.7200  a.u.
     unit-cell volume          =     115.0249 (a.u.)^3
     number of atoms/cell      =            1
     number of atomic types    =            1
     number of electrons       =        11.00
     number of Kohn-Sham states=           10
     kinetic-energy cutoff     =      55.0000  Ry
     charge density cutoff     =     220.0000  Ry
     convergence threshold     =      1.0E-08
     mixing beta               =       0.7000
     number of iterations used =            8  plain     mixing
     Exchange-correlation      = PBESOL ( 1  4 10  8 0 0)

     celldm(1)=   7.720000  celldm(2)=   0.000000  celldm(3)=   0.000000
     celldm(4)=   0.000000  celldm(5)=   0.000000  celldm(6)=   0.000000

     crystal axes: (cart. coord. in units of alat)
               a(1) = (  -0.500000   0.000000   0.500000 )  
               a(2) = (   0.000000   0.500000   0.500000 )  
               a(3) = (  -0.500000   0.500000   0.000000 )  

     reciprocal axes: (cart. coord. in units 2 pi/alat)
               b(1) = ( -1.000000 -1.000000  1.000000 )  
               b(2) = (  1.000000  1.000000  1.000000 )  
               b(3) = ( -1.000000  1.000000 -1.000000 )  


     PseudoPot. # 1 for Ag read from file:
     /home/lorenzo/pseudos/Ag/Ag.pbesol-n-rrkjus_psl.1.0.0.UPF
     MD5 check sum: 3b43e8aa747a56f565f44d11355b8b45
     Pseudo is Ultrasoft + core correction, Zval = 11.0
     Generated using "atomic" code by A. Dal Corso v.6.2.2
     Using radial grid of 1237 points,  6 beta functions with: 
                l(1) =   0
                l(2) =   0
                l(3) =   1
                l(4) =   1
                l(5) =   2
                l(6) =   2
     Q(r) pseudized with 0 coefficients 


     atomic species   valence    mass     pseudopotential
        Ag            11.00   107.86820     Ag( 1.00)

     48 Sym. Ops., with inversion, found



   Cartesian axes

     site n.     atom                  positions (alat units)
         1           Ag  tau(   1) = (   0.0000000   0.0000000   0.0000000  )

     number of k points=    16  gaussian smearing, width (Ry)=  0.0100
                       cart. coord. in units 2pi/alat
        k(    1) = (   0.0000000   0.0000000   0.0000000), wk =   0.0092593
        k(    2) = (  -0.1666667   0.1666667  -0.1666667), wk =   0.0740741
        k(    3) = (  -0.3333333   0.3333333  -0.3333333), wk =   0.0740741
        k(    4) = (   0.5000000  -0.5000000   0.5000000), wk =   0.0370370
        k(    5) = (   0.0000000   0.3333333   0.0000000), wk =   0.0555556
        k(    6) = (  -0.1666667   0.5000000  -0.1666667), wk =   0.2222222
        k(    7) = (   0.6666667  -0.3333333   0.6666667), wk =   0.2222222
        k(    8) = (   0.5000000  -0.1666667   0.5000000), wk =   0.2222222
        k(    9) = (   0.3333333   0.0000000   0.3333333), wk =   0.1111111
        k(   10) = (   0.0000000   0.6666667   0.0000000), wk =   0.0555556
        k(   11) = (   0.8333333  -0.1666667   0.8333333), wk =   0.2222222
        k(   12) = (   0.6666667  -0.0000000   0.6666667), wk =   0.1111111
        k(   13) = (   0.0000000  -1.0000000   0.0000000), wk =   0.0277778
        k(   14) = (   0.6666667  -0.3333333   1.0000000), wk =   0.2222222
        k(   15) = (   0.5000000  -0.1666667   0.8333333), wk =   0.2222222
        k(   16) = (  -0.3333333  -1.0000000   0.0000000), wk =   0.1111111

     Dense  grid:     6375 G-vectors     FFT dimensions: (  25,  25,  25)

     Estimated max dynamical RAM per process >       6.57 MB

     Estimated total dynamical RAM >      32.87 MB

     Initial potential from superposition of free atoms

     starting charge   10.99964, renormalised to   11.00000
     Starting wfcs are    9 randomized atomic wfcs +    1 random wfcs

     total cpu time spent up to now is        0.9 secs

     Self-consistent Calculation

     iteration #  1     ecut=    55.00 Ry     beta= 0.70
     Davidson diagonalization with overlap
     ethr =  1.00E-02,  avg # of iterations =  4.7

     Threshold (ethr) on eigenvalues was too large:
     Diagonalizing with lowered threshold

     Davidson diagonalization with overlap
     ethr =  4.24E-05,  avg # of iterations =  2.5

     total cpu time spent up to now is        1.4 secs

     total energy              =     -84.17296180 Ry
     Harris-Foulkes estimate   =     -84.17620485 Ry
     estimated scf accuracy    <       0.00503889 Ry

     iteration #  2     ecut=    55.00 Ry     beta= 0.70
     Davidson diagonalization with overlap
     ethr =  4.58E-05,  avg # of iterations =  2.0

     total cpu time spent up to now is        1.5 secs

     total energy              =     -84.17412279 Ry
     Harris-Foulkes estimate   =     -84.17600827 Ry
     estimated scf accuracy    <       0.00350915 Ry

     iteration #  3     ecut=    55.00 Ry     beta= 0.70
     Davidson diagonalization with overlap
     ethr =  3.19E-05,  avg # of iterations =  2.0

     total cpu time spent up to now is        1.6 secs

     total energy              =     -84.17490412 Ry
     Harris-Foulkes estimate   =     -84.17490600 Ry
     estimated scf accuracy    <       0.00002636 Ry

     iteration #  4     ecut=    55.00 Ry     beta= 0.70
     Davidson diagonalization with overlap
     ethr =  2.40E-07,  avg # of iterations =  3.0

     total cpu time spent up to now is        1.8 secs

     total energy              =     -84.17491278 Ry
     Harris-Foulkes estimate   =     -84.17491274 Ry
     estimated scf accuracy    <       0.00000045 Ry

     iteration #  5     ecut=    55.00 Ry     beta= 0.70
     Davidson diagonalization with overlap
     ethr =  4.12E-09,  avg # of iterations =  2.0

     total cpu time spent up to now is        1.9 secs

     total energy              =     -84.17491288 Ry
     Harris-Foulkes estimate   =     -84.17491291 Ry
     estimated scf accuracy    <       0.00000005 Ry

     iteration #  6     ecut=    55.00 Ry     beta= 0.70
     Davidson diagonalization with overlap
     ethr =  4.21E-10,  avg # of iterations =  1.8

     total cpu time spent up to now is        2.1 secs

     End of self-consistent calculation

          k = 0.0000 0.0000 0.0000 (   821 PWs)   bands (ev):

     4.8082   7.9235   7.9235   7.9235   8.9743   8.9743  29.5456  32.8331
    32.8331  32.8331

          k =-0.1667 0.1667-0.1667 (   800 PWs)   bands (ev):

     5.6075   7.8131   8.1025   8.1025   8.9483   8.9483  27.1213  30.3049
    32.7158  32.7158

          k =-0.3333 0.3333-0.3333 (   805 PWs)   bands (ev):

     6.3872   8.0369   8.0369   9.3033   9.4015   9.4015  20.6293  29.3156
    31.7233  31.7233

          k = 0.5000-0.5000 0.5000 (   796 PWs)   bands (ev):

     6.2846   7.9011   7.9011   9.7806   9.7806  12.1935  16.2588  28.5919
    30.8321  30.8321

          k = 0.0000 0.3333 0.0000 (   805 PWs)   bands (ev):

     5.8779   7.5088   8.3392   8.3392   8.6371   9.1606  29.5859  29.7252
    29.7252  30.2491

          k =-0.1667 0.5000-0.1667 (   801 PWs)   bands (ev):

     6.7676   7.5028   8.1079   8.5070   9.5260   9.8757  23.2537  28.0575
    28.7033  30.3227

          k = 0.6667-0.3333 0.6667 (   792 PWs)   bands (ev):

     6.6921   7.6607   8.3189   8.5739   9.8084  13.2304  17.3663  26.3268
    28.1658  29.4233

          k = 0.5000-0.1667 0.5000 (   792 PWs)   bands (ev):

     6.8436   7.7456   8.3024   8.5093   9.3000  12.1420  19.2104  25.1319
    29.9387  30.5695

          k = 0.3333 0.0000 0.3333 (   801 PWs)   bands (ev):

     6.6639   7.5360   8.1664   8.4597   8.6077   9.7984  25.3645  25.7126
    32.2735  33.3856

          k = 0.0000 0.6667 0.0000 (   797 PWs)   bands (ev):

     6.6293   6.7512   9.3491   9.3491   9.5473  10.4418  24.9447  25.3577
    25.3577  29.6909

          k = 0.8333-0.1667 0.8333 (   788 PWs)   bands (ev):

     6.5772   6.8332   9.0068   9.2666   9.8769  13.9254  20.5033  21.7805
    24.8618  29.6570

          k = 0.6667-0.0000 0.6667 (   792 PWs)   bands (ev):

     6.9435   7.5208   8.1465   8.9298   9.4994  15.8005  18.4673  20.1966
    26.9582  29.6111

          k = 0.0000-1.0000 0.0000 (   790 PWs)   bands (ev):

     6.2527   6.4023   9.7486   9.9911   9.9911  14.2156  19.3816  23.4524
    23.4524  29.7503

          k = 0.6667-0.3333 1.0000 (   789 PWs)   bands (ev):

     7.1793   7.2449   7.9047   9.1684   9.3379  12.4646  22.2719  22.2880
    25.6781  33.4899

          k = 0.5000-0.1667 0.8333 (   794 PWs)   bands (ev):

     7.2405   7.2884   7.9470   8.8483   9.7424  16.3119  17.0499  22.8864
    23.5231  32.9940

          k =-0.3333-1.0000 0.0000 (   782 PWs)   bands (ev):

     6.7749   6.9579   8.5276   9.2250   9.9921  16.6114  19.5494  20.6873
    21.4152  33.0739

     the Fermi energy is    12.4953 ev

!    total energy              =     -84.17491289 Ry
     Harris-Foulkes estimate   =     -84.17491289 Ry
     estimated scf accuracy    <          5.0E-10 Ry

     The total energy is the sum of the following terms:

     one-electron contribution =      -4.73175154 Ry
     hartree contribution      =      14.55941439 Ry
     xc contribution           =     -22.14079827 Ry
     ewald contribution        =     -71.86118025 Ry
     smearing contrib. (-TS)   =      -0.00059722 Ry

     convergence has been achieved in   6 iterations

     Forces acting on atoms (cartesian axes, Ry/au):

     atom    1 type  1   force =     0.00000000    0.00000000    0.00000000

     Total force =     0.000000     Total SCF correction =     0.000000


     Computing stress (Cartesian axis) and pressure

          total   stress  (Ry/bohr**3)                   (kbar)     P=  -31.55
  -0.00021449  -0.00000000   0.00000000        -31.55     -0.00      0.00
  -0.00000000  -0.00021449   0.00000000         -0.00    -31.55      0.00
   0.00000000  -0.00000000  -0.00021449          0.00     -0.00    -31.55


     Writing output data file Ag.save/

     init_run     :      0.19s CPU      0.20s WALL (       1 calls)
     electrons    :      1.08s CPU      1.13s WALL (       1 calls)
     forces       :      0.03s CPU      0.03s WALL (       1 calls)
     stress       :      0.08s CPU      0.08s WALL (       1 calls)

     Called by init_run:
     wfcinit      :      0.03s CPU      0.04s WALL (       1 calls)
     potinit      :      0.01s CPU      0.01s WALL (       1 calls)
     hinit0       :      0.15s CPU      0.15s WALL (       1 calls)

     Called by electrons:
     c_bands      :      0.82s CPU      0.86s WALL (       7 calls)
     sum_band     :      0.19s CPU      0.20s WALL (       7 calls)
     v_of_rho     :      0.03s CPU      0.03s WALL (       7 calls)
     newd         :      0.04s CPU      0.04s WALL (       7 calls)
     mix_rho      :      0.00s CPU      0.00s WALL (       7 calls)

     Called by c_bands:
     init_us_2    :      0.03s CPU      0.03s WALL (     272 calls)
     cegterg      :      0.77s CPU      0.81s WALL (     112 calls)

     Called by sum_band:
     sum_band:bec :      0.00s CPU      0.00s WALL (     112 calls)
     addusdens    :      0.05s CPU      0.05s WALL (       7 calls)

     Called by *egterg:
     h_psi        :      0.59s CPU      0.63s WALL (     416 calls)
     s_psi        :      0.02s CPU      0.02s WALL (     416 calls)
     g_psi        :      0.00s CPU      0.00s WALL (     288 calls)
     cdiaghg      :      0.08s CPU      0.09s WALL (     384 calls)

     Called by h_psi:
     h_psi:pot    :      0.59s CPU      0.62s WALL (     416 calls)
     h_psi:calbec :      0.03s CPU      0.03s WALL (     416 calls)
     vloc_psi     :      0.53s CPU      0.56s WALL (     416 calls)
     add_vuspsi   :      0.02s CPU      0.02s WALL (     416 calls)

     General routines
     calbec       :      0.05s CPU      0.05s WALL (     608 calls)
     fft          :      0.02s CPU      0.02s WALL (     104 calls)
     ffts         :      0.00s CPU      0.00s WALL (       7 calls)
     fftw         :      0.60s CPU      0.63s WALL (    6904 calls)

     Parallel routines
     fft_scatt_xy :      0.05s CPU      0.05s WALL (    7015 calls)
     fft_scatt_yz :      0.14s CPU      0.15s WALL (    7015 calls)

     PWSCF        :     2.13s CPU         2.23s WALL


   This run was terminated on:   0:24:15  27Mar2024            

=------------------------------------------------------------------------------=
   JOB DONE.
=------------------------------------------------------------------------------=
