
     Program PWSCF v.6.3MaX starts on 27Mar2024 at  0:11: 2 

     This program is part of the open-source Quantum ESPRESSO suite
     for quantum simulation of materials; please cite
         "P. Giannozzi et al., J. Phys.:Condens. Matter 21 395502 (2009);
         "P. Giannozzi et al., J. Phys.:Condens. Matter 29 465901 (2017);
          URL http://www.quantum-espresso.org", 
     in publications or presentations arising from this work. More details at
     http://www.quantum-espresso.org/quote

     Parallel version (MPI), running on     5 processors

     MPI processes distributed on     1 nodes
     R & G space division:  proc/nbgrp/npool/nimage =       5
     Waiting for input...
     Reading input from standard input

     Current dimensions of program PWSCF are:
     Max number of different atomic species (ntypx) = 10
     Max number of k-points (npk) =  40000
     Max angular momentum in pseudopotentials (lmaxx) =  3

     Subspace diagonalization in iterative solution of the eigenvalue problem:
     a serial algorithm will be used


     Parallelization info
     --------------------
     sticks:   dense  smooth     PW     G-vecs:    dense   smooth      PW
     Min          39      39     14                  381      381      82
     Max          40      40     15                  384      384      83
     Sum         199     199     73                 1917     1917     411



     bravais-lattice index     =            2
     lattice parameter (alat)  =       7.7200  a.u.
     unit-cell volume          =     115.0249 (a.u.)^3
     number of atoms/cell      =            1
     number of atomic types    =            1
     number of electrons       =        11.00
     number of Kohn-Sham states=           10
     kinetic-energy cutoff     =      25.0000  Ry
     charge density cutoff     =     100.0000  Ry
     convergence threshold     =      1.0E-08
     mixing beta               =       0.7000
     number of iterations used =            8  plain     mixing
     Exchange-correlation      = PBE ( 1  4  3  4 0 0)

     celldm(1)=   7.720000  celldm(2)=   0.000000  celldm(3)=   0.000000
     celldm(4)=   0.000000  celldm(5)=   0.000000  celldm(6)=   0.000000

     crystal axes: (cart. coord. in units of alat)
               a(1) = (  -0.500000   0.000000   0.500000 )  
               a(2) = (   0.000000   0.500000   0.500000 )  
               a(3) = (  -0.500000   0.500000   0.000000 )  

     reciprocal axes: (cart. coord. in units 2 pi/alat)
               b(1) = ( -1.000000 -1.000000  1.000000 )  
               b(2) = (  1.000000  1.000000  1.000000 )  
               b(3) = ( -1.000000  1.000000 -1.000000 )  


     PseudoPot. # 1 for Ag read from file:
     /home/lorenzo/pseudos/Ag/Ag.pbe-n-rrkjus_psl.1.0.0.UPF
     MD5 check sum: d841cbfac2b0861aec33b46768a516bf
     Pseudo is Ultrasoft + core correction, Zval = 11.0
     Generated using "atomic" code by A. Dal Corso v.6.2.2
     Using radial grid of 1237 points,  6 beta functions with: 
                l(1) =   0
                l(2) =   0
                l(3) =   1
                l(4) =   1
                l(5) =   2
                l(6) =   2
     Q(r) pseudized with 0 coefficients 


     atomic species   valence    mass     pseudopotential
        Ag            11.00   107.86820     Ag( 1.00)

     48 Sym. Ops., with inversion, found



   Cartesian axes

     site n.     atom                  positions (alat units)
         1           Ag  tau(   1) = (   0.0000000   0.0000000   0.0000000  )

     number of k points=    16  gaussian smearing, width (Ry)=  0.0100
                       cart. coord. in units 2pi/alat
        k(    1) = (   0.0000000   0.0000000   0.0000000), wk =   0.0092593
        k(    2) = (  -0.1666667   0.1666667  -0.1666667), wk =   0.0740741
        k(    3) = (  -0.3333333   0.3333333  -0.3333333), wk =   0.0740741
        k(    4) = (   0.5000000  -0.5000000   0.5000000), wk =   0.0370370
        k(    5) = (   0.0000000   0.3333333   0.0000000), wk =   0.0555556
        k(    6) = (  -0.1666667   0.5000000  -0.1666667), wk =   0.2222222
        k(    7) = (   0.6666667  -0.3333333   0.6666667), wk =   0.2222222
        k(    8) = (   0.5000000  -0.1666667   0.5000000), wk =   0.2222222
        k(    9) = (   0.3333333   0.0000000   0.3333333), wk =   0.1111111
        k(   10) = (   0.0000000   0.6666667   0.0000000), wk =   0.0555556
        k(   11) = (   0.8333333  -0.1666667   0.8333333), wk =   0.2222222
        k(   12) = (   0.6666667  -0.0000000   0.6666667), wk =   0.1111111
        k(   13) = (   0.0000000  -1.0000000   0.0000000), wk =   0.0277778
        k(   14) = (   0.6666667  -0.3333333   1.0000000), wk =   0.2222222
        k(   15) = (   0.5000000  -0.1666667   0.8333333), wk =   0.2222222
        k(   16) = (  -0.3333333  -1.0000000   0.0000000), wk =   0.1111111

     Dense  grid:     1917 G-vectors     FFT dimensions: (  18,  18,  18)

     Estimated max dynamical RAM per process >       2.54 MB

     Estimated total dynamical RAM >      12.70 MB

     Initial potential from superposition of free atoms

     starting charge   10.99960, renormalised to   11.00000
     Starting wfcs are    9 randomized atomic wfcs +    1 random wfcs

     total cpu time spent up to now is        0.8 secs

     Self-consistent Calculation

     iteration #  1     ecut=    25.00 Ry     beta= 0.70
     Davidson diagonalization with overlap
     ethr =  1.00E-02,  avg # of iterations =  4.7

     Threshold (ethr) on eigenvalues was too large:
     Diagonalizing with lowered threshold

     Davidson diagonalization with overlap
     ethr =  7.38E-04,  avg # of iterations =  1.3

     total cpu time spent up to now is        1.0 secs

     total energy              =     -83.75842731 Ry
     Harris-Foulkes estimate   =     -83.81610962 Ry
     estimated scf accuracy    <       0.08344950 Ry

     iteration #  2     ecut=    25.00 Ry     beta= 0.70
     Davidson diagonalization with overlap
     ethr =  7.59E-04,  avg # of iterations =  2.1

     total cpu time spent up to now is        1.1 secs

     total energy              =     -83.78383217 Ry
     Harris-Foulkes estimate   =     -83.81234628 Ry
     estimated scf accuracy    <       0.05585408 Ry

     iteration #  3     ecut=    25.00 Ry     beta= 0.70
     Davidson diagonalization with overlap
     ethr =  5.08E-04,  avg # of iterations =  1.6

     total cpu time spent up to now is        1.1 secs

     total energy              =     -83.79474282 Ry
     Harris-Foulkes estimate   =     -83.79456780 Ry
     estimated scf accuracy    <       0.00029102 Ry

     iteration #  4     ecut=    25.00 Ry     beta= 0.70
     Davidson diagonalization with overlap
     ethr =  2.65E-06,  avg # of iterations =  3.6

     total cpu time spent up to now is        1.2 secs

     total energy              =     -83.79497049 Ry
     Harris-Foulkes estimate   =     -83.79497069 Ry
     estimated scf accuracy    <       0.00002318 Ry

     iteration #  5     ecut=    25.00 Ry     beta= 0.70
     Davidson diagonalization with overlap
     ethr =  2.11E-07,  avg # of iterations =  1.0

     total cpu time spent up to now is        1.3 secs

     total energy              =     -83.79496691 Ry
     Harris-Foulkes estimate   =     -83.79497056 Ry
     estimated scf accuracy    <       0.00002173 Ry

     iteration #  6     ecut=    25.00 Ry     beta= 0.70
     Davidson diagonalization with overlap
     ethr =  1.98E-07,  avg # of iterations =  1.7

     total cpu time spent up to now is        1.3 secs

     total energy              =     -83.79497044 Ry
     Harris-Foulkes estimate   =     -83.79497069 Ry
     estimated scf accuracy    <       0.00000096 Ry

     iteration #  7     ecut=    25.00 Ry     beta= 0.70
     Davidson diagonalization with overlap
     ethr =  8.76E-09,  avg # of iterations =  1.3

     total cpu time spent up to now is        1.4 secs

     total energy              =     -83.79497042 Ry
     Harris-Foulkes estimate   =     -83.79497051 Ry
     estimated scf accuracy    <       0.00000024 Ry

     iteration #  8     ecut=    25.00 Ry     beta= 0.70
     Davidson diagonalization with overlap
     ethr =  2.19E-09,  avg # of iterations =  1.8

     total cpu time spent up to now is        1.4 secs

     total energy              =     -83.79497046 Ry
     Harris-Foulkes estimate   =     -83.79497046 Ry
     estimated scf accuracy    <       0.00000001 Ry

     iteration #  9     ecut=    25.00 Ry     beta= 0.70
     Davidson diagonalization with overlap
     ethr =  1.15E-10,  avg # of iterations =  2.0

     total cpu time spent up to now is        1.5 secs

     End of self-consistent calculation

          k = 0.0000 0.0000 0.0000 (   259 PWs)   bands (ev):

     5.0538   7.7413   7.7413   7.7413   8.9721   8.9721  29.8849  33.0526
    33.0526  37.4751

          k =-0.1667 0.1667-0.1667 (   250 PWs)   bands (ev):

     5.8419   7.9401   8.0079   8.0079   9.0257   9.0257  27.4068  30.6417
    32.9291  32.9291

          k =-0.3333 0.3333-0.3333 (   256 PWs)   bands (ev):

     6.4064   7.8689   7.8689   9.3909   9.3909   9.4241  20.7621  29.6536
    31.8764  31.8764

          k = 0.5000-0.5000 0.5000 (   242 PWs)   bands (ev):

     6.3011   7.8974   7.8974   9.9631   9.9631  12.4076  16.3481  28.9303
    30.9677  30.9677

          k = 0.0000 0.3333 0.0000 (   246 PWs)   bands (ev):

     6.1100   7.4291   8.4431   8.4431   8.7387   9.2228  29.9295  29.9642
    29.9642  30.5915

          k =-0.1667 0.5000-0.1667 (   243 PWs)   bands (ev):

     6.8632   7.5657   8.2278   8.6056   9.6824   9.9230  23.4704  28.2787
    29.0732  30.5566

          k = 0.6667-0.3333 0.6667 (   241 PWs)   bands (ev):

     6.7878   7.7510   8.2900   8.6790   9.9137  13.3920  17.5428  26.5949
    28.3443  29.7286

          k = 0.5000-0.1667 0.5000 (   244 PWs)   bands (ev):

     6.9129   7.8126   8.2265   8.6246   9.3849  12.2665  19.4026  25.3770
    30.2321  30.7642

          k = 0.3333 0.0000 0.3333 (   243 PWs)   bands (ev):

     6.8572   7.8108   8.1771   8.4053   8.6880   9.9430  25.5640  26.0946
    32.5636  33.6831

          k = 0.0000 0.6667 0.0000 (   238 PWs)   bands (ev):

     6.7033   6.7857   9.5164   9.5164   9.7934  10.6019  25.1706  25.5568
    25.5568  30.1264

          k = 0.8333-0.1667 0.8333 (   237 PWs)   bands (ev):

     6.6802   6.8825   9.0946   9.4723  10.0593  14.0927  20.6736  22.0171
    25.0533  30.0409

          k = 0.6667-0.0000 0.6667 (   236 PWs)   bands (ev):

     7.0490   7.6593   8.3015   9.0055   9.6632  15.9914  18.6979  20.4217
    27.1584  29.9789

          k = 0.0000-1.0000 0.0000 (   230 PWs)   bands (ev):

     6.5158   6.6485   9.8444  10.1764  10.1764  14.4086  19.6821  23.6244
    23.6244  30.2023

          k = 0.6667-0.3333 1.0000 (   241 PWs)   bands (ev):

     7.1700   7.3147   8.0055   9.3013   9.5028  12.6013  22.4786  22.4799
    25.9590  33.8562

          k = 0.5000-0.1667 0.8333 (   244 PWs)   bands (ev):

     7.2741   7.2903   8.0240   8.8718   9.7779  16.5084  17.1899  23.0491
    23.7779  33.2648

          k =-0.3333-1.0000 0.0000 (   244 PWs)   bands (ev):

     6.8148   6.9353   8.6600   9.1916  10.0609  16.8152  19.6865  20.8553
    21.6421  33.4516

     the Fermi energy is    12.6324 ev

!    total energy              =     -83.79497047 Ry
     Harris-Foulkes estimate   =     -83.79497046 Ry
     estimated scf accuracy    <          1.9E-09 Ry

     The total energy is the sum of the following terms:

     one-electron contribution =      -3.79982957 Ry
     hartree contribution      =      14.10542911 Ry
     xc contribution           =     -22.23878747 Ry
     ewald contribution        =     -71.86118028 Ry
     smearing contrib. (-TS)   =      -0.00060226 Ry

     convergence has been achieved in   9 iterations

     Forces acting on atoms (cartesian axes, Ry/au):

     atom    1 type  1   force =     0.00000000    0.00000000    0.00000000

     Total force =     0.000000     Total SCF correction =     0.000000


     Computing stress (Cartesian axis) and pressure

          total   stress  (Ry/bohr**3)                   (kbar)     P=-2822.22
  -0.01918506  -0.00000000  -0.00000000      -2822.22     -0.00     -0.00
   0.00000000  -0.01918506   0.00000000          0.00  -2822.22      0.00
  -0.00000000  -0.00000000  -0.01918506         -0.00     -0.00  -2822.22


     Writing output data file Ag.save/

     init_run     :      0.12s CPU      0.13s WALL (       1 calls)
     electrons    :      0.60s CPU      0.68s WALL (       1 calls)
     forces       :      0.02s CPU      0.02s WALL (       1 calls)
     stress       :      0.04s CPU      0.04s WALL (       1 calls)

     Called by init_run:
     wfcinit      :      0.02s CPU      0.02s WALL (       1 calls)
     potinit      :      0.00s CPU      0.00s WALL (       1 calls)
     hinit0       :      0.10s CPU      0.10s WALL (       1 calls)

     Called by electrons:
     c_bands      :      0.48s CPU      0.53s WALL (      10 calls)
     sum_band     :      0.10s CPU      0.11s WALL (      10 calls)
     v_of_rho     :      0.01s CPU      0.01s WALL (      10 calls)
     newd         :      0.02s CPU      0.02s WALL (      10 calls)
     mix_rho      :      0.00s CPU      0.00s WALL (      10 calls)

     Called by c_bands:
     init_us_2    :      0.01s CPU      0.01s WALL (     368 calls)
     cegterg      :      0.46s CPU      0.51s WALL (     160 calls)

     Called by sum_band:
     sum_band:bec :      0.00s CPU      0.00s WALL (     160 calls)
     addusdens    :      0.02s CPU      0.02s WALL (      10 calls)

     Called by *egterg:
     h_psi        :      0.32s CPU      0.36s WALL (     513 calls)
     s_psi        :      0.01s CPU      0.01s WALL (     513 calls)
     g_psi        :      0.00s CPU      0.00s WALL (     337 calls)
     cdiaghg      :      0.09s CPU      0.09s WALL (     481 calls)

     Called by h_psi:
     h_psi:pot    :      0.32s CPU      0.36s WALL (     513 calls)
     h_psi:calbec :      0.01s CPU      0.02s WALL (     513 calls)
     vloc_psi     :      0.29s CPU      0.33s WALL (     513 calls)
     add_vuspsi   :      0.01s CPU      0.01s WALL (     513 calls)

     General routines
     calbec       :      0.02s CPU      0.03s WALL (     753 calls)
     fft          :      0.01s CPU      0.01s WALL (     137 calls)
     ffts         :      0.00s CPU      0.00s WALL (      10 calls)
     fftw         :      0.32s CPU      0.36s WALL (    9432 calls)

     Parallel routines
     fft_scatt_xy :      0.03s CPU      0.04s WALL (    9579 calls)
     fft_scatt_yz :      0.09s CPU      0.10s WALL (    9579 calls)

     PWSCF        :     1.51s CPU         1.64s WALL


   This run was terminated on:   0:11: 4  27Mar2024            

=------------------------------------------------------------------------------=
   JOB DONE.
=------------------------------------------------------------------------------=
