
     Program PWSCF v.6.3MaX starts on 27Mar2024 at  0:20:30 

     This program is part of the open-source Quantum ESPRESSO suite
     for quantum simulation of materials; please cite
         "P. Giannozzi et al., J. Phys.:Condens. Matter 21 395502 (2009);
         "P. Giannozzi et al., J. Phys.:Condens. Matter 29 465901 (2017);
          URL http://www.quantum-espresso.org", 
     in publications or presentations arising from this work. More details at
     http://www.quantum-espresso.org/quote

     Parallel version (MPI), running on     5 processors

     MPI processes distributed on     1 nodes
     R & G space division:  proc/nbgrp/npool/nimage =       5
     Waiting for input...
     Reading input from standard input

     Current dimensions of program PWSCF are:
     Max number of different atomic species (ntypx) = 10
     Max number of k-points (npk) =  40000
     Max angular momentum in pseudopotentials (lmaxx) =  3

     Subspace diagonalization in iterative solution of the eigenvalue problem:
     a serial algorithm will be used


     Parallelization info
     --------------------
     sticks:   dense  smooth     PW     G-vecs:    dense   smooth      PW
     Min          84      84     27                 1115     1115     207
     Max          85      85     28                 1117     1117     208
     Sum         421     421    139                 5577     5577    1037



     bravais-lattice index     =            2
     lattice parameter (alat)  =       7.7200  a.u.
     unit-cell volume          =     115.0249 (a.u.)^3
     number of atoms/cell      =            1
     number of atomic types    =            1
     number of electrons       =        11.00
     number of Kohn-Sham states=           10
     kinetic-energy cutoff     =      50.0000  Ry
     charge density cutoff     =     200.0000  Ry
     convergence threshold     =      1.0E-08
     mixing beta               =       0.7000
     number of iterations used =            8  plain     mixing
     Exchange-correlation      = PBESOL ( 1  4 10  8 0 0)

     celldm(1)=   7.720000  celldm(2)=   0.000000  celldm(3)=   0.000000
     celldm(4)=   0.000000  celldm(5)=   0.000000  celldm(6)=   0.000000

     crystal axes: (cart. coord. in units of alat)
               a(1) = (  -0.500000   0.000000   0.500000 )  
               a(2) = (   0.000000   0.500000   0.500000 )  
               a(3) = (  -0.500000   0.500000   0.000000 )  

     reciprocal axes: (cart. coord. in units 2 pi/alat)
               b(1) = ( -1.000000 -1.000000  1.000000 )  
               b(2) = (  1.000000  1.000000  1.000000 )  
               b(3) = ( -1.000000  1.000000 -1.000000 )  


     PseudoPot. # 1 for Ag read from file:
     /home/lorenzo/pseudos/Ag/Ag.pbesol-n-rrkjus_psl.1.0.0.UPF
     MD5 check sum: 3b43e8aa747a56f565f44d11355b8b45
     Pseudo is Ultrasoft + core correction, Zval = 11.0
     Generated using "atomic" code by A. Dal Corso v.6.2.2
     Using radial grid of 1237 points,  6 beta functions with: 
                l(1) =   0
                l(2) =   0
                l(3) =   1
                l(4) =   1
                l(5) =   2
                l(6) =   2
     Q(r) pseudized with 0 coefficients 


     atomic species   valence    mass     pseudopotential
        Ag            11.00   107.86820     Ag( 1.00)

     48 Sym. Ops., with inversion, found



   Cartesian axes

     site n.     atom                  positions (alat units)
         1           Ag  tau(   1) = (   0.0000000   0.0000000   0.0000000  )

     number of k points=    47  gaussian smearing, width (Ry)=  0.0100
                       cart. coord. in units 2pi/alat
        k(    1) = (   0.0000000   0.0000000   0.0000000), wk =   0.0020000
        k(    2) = (  -0.1000000   0.1000000  -0.1000000), wk =   0.0160000
        k(    3) = (  -0.2000000   0.2000000  -0.2000000), wk =   0.0160000
        k(    4) = (  -0.3000000   0.3000000  -0.3000000), wk =   0.0160000
        k(    5) = (  -0.4000000   0.4000000  -0.4000000), wk =   0.0160000
        k(    6) = (   0.5000000  -0.5000000   0.5000000), wk =   0.0080000
        k(    7) = (   0.0000000   0.2000000   0.0000000), wk =   0.0120000
        k(    8) = (  -0.1000000   0.3000000  -0.1000000), wk =   0.0480000
        k(    9) = (  -0.2000000   0.4000000  -0.2000000), wk =   0.0480000
        k(   10) = (  -0.3000000   0.5000000  -0.3000000), wk =   0.0480000
        k(   11) = (   0.6000000  -0.4000000   0.6000000), wk =   0.0480000
        k(   12) = (   0.5000000  -0.3000000   0.5000000), wk =   0.0480000
        k(   13) = (   0.4000000  -0.2000000   0.4000000), wk =   0.0480000
        k(   14) = (   0.3000000  -0.1000000   0.3000000), wk =   0.0480000
        k(   15) = (   0.2000000   0.0000000   0.2000000), wk =   0.0240000
        k(   16) = (   0.0000000   0.4000000   0.0000000), wk =   0.0120000
        k(   17) = (  -0.1000000   0.5000000  -0.1000000), wk =   0.0480000
        k(   18) = (  -0.2000000   0.6000000  -0.2000000), wk =   0.0480000
        k(   19) = (   0.7000000  -0.3000000   0.7000000), wk =   0.0480000
        k(   20) = (   0.6000000  -0.2000000   0.6000000), wk =   0.0480000
        k(   21) = (   0.5000000  -0.1000000   0.5000000), wk =   0.0480000
        k(   22) = (   0.4000000   0.0000000   0.4000000), wk =   0.0240000
        k(   23) = (   0.0000000   0.6000000   0.0000000), wk =   0.0120000
        k(   24) = (  -0.1000000   0.7000000  -0.1000000), wk =   0.0480000
        k(   25) = (   0.8000000  -0.2000000   0.8000000), wk =   0.0480000
        k(   26) = (   0.7000000  -0.1000000   0.7000000), wk =   0.0480000
        k(   27) = (   0.6000000  -0.0000000   0.6000000), wk =   0.0240000
        k(   28) = (   0.0000000   0.8000000   0.0000000), wk =   0.0120000
        k(   29) = (   0.9000000  -0.1000000   0.9000000), wk =   0.0480000
        k(   30) = (   0.8000000   0.0000000   0.8000000), wk =   0.0240000
        k(   31) = (   0.0000000  -1.0000000   0.0000000), wk =   0.0060000
        k(   32) = (  -0.2000000   0.4000000   0.0000000), wk =   0.0480000
        k(   33) = (  -0.3000000   0.5000000  -0.1000000), wk =   0.0960000
        k(   34) = (   0.6000000  -0.4000000   0.8000000), wk =   0.0960000
        k(   35) = (   0.5000000  -0.3000000   0.7000000), wk =   0.0480000
        k(   36) = (  -0.2000000   0.6000000   0.0000000), wk =   0.0480000
        k(   37) = (   0.7000000  -0.3000000   0.9000000), wk =   0.0960000
        k(   38) = (   0.6000000  -0.2000000   0.8000000), wk =   0.0960000
        k(   39) = (   0.5000000  -0.1000000   0.7000000), wk =   0.0960000
        k(   40) = (   0.4000000   0.0000000   0.6000000), wk =   0.0480000
        k(   41) = (   0.8000000  -0.2000000   1.0000000), wk =   0.0480000
        k(   42) = (   0.7000000  -0.1000000   0.9000000), wk =   0.0960000
        k(   43) = (   0.6000000   0.0000000   0.8000000), wk =   0.0480000
        k(   44) = (  -0.2000000  -1.0000000   0.0000000), wk =   0.0240000
        k(   45) = (   0.6000000  -0.2000000   1.0000000), wk =   0.0480000
        k(   46) = (   0.5000000  -0.1000000   0.9000000), wk =   0.0480000
        k(   47) = (  -0.4000000  -1.0000000   0.0000000), wk =   0.0240000

     Dense  grid:     5577 G-vectors     FFT dimensions: (  25,  25,  25)

     Estimated max dynamical RAM per process >       6.54 MB

     Estimated total dynamical RAM >      32.70 MB

     Initial potential from superposition of free atoms

     starting charge   10.99964, renormalised to   11.00000
     Starting wfcs are    9 randomized atomic wfcs +    1 random wfcs

     total cpu time spent up to now is        1.2 secs

     Self-consistent Calculation

     iteration #  1     ecut=    50.00 Ry     beta= 0.70
     Davidson diagonalization with overlap
     ethr =  1.00E-02,  avg # of iterations =  4.7

     Threshold (ethr) on eigenvalues was too large:
     Diagonalizing with lowered threshold

     Davidson diagonalization with overlap
     ethr =  4.22E-05,  avg # of iterations =  2.1

     total cpu time spent up to now is        2.0 secs

     total energy              =     -84.17446730 Ry
     Harris-Foulkes estimate   =     -84.17763737 Ry
     estimated scf accuracy    <       0.00501260 Ry

     iteration #  2     ecut=    50.00 Ry     beta= 0.70
     Davidson diagonalization with overlap
     ethr =  4.56E-05,  avg # of iterations =  2.0

     total cpu time spent up to now is        2.3 secs

     total energy              =     -84.17562022 Ry
     Harris-Foulkes estimate   =     -84.17750686 Ry
     estimated scf accuracy    <       0.00351967 Ry

     iteration #  3     ecut=    50.00 Ry     beta= 0.70
     Davidson diagonalization with overlap
     ethr =  3.20E-05,  avg # of iterations =  2.0

     total cpu time spent up to now is        2.7 secs

     total energy              =     -84.17640306 Ry
     Harris-Foulkes estimate   =     -84.17640282 Ry
     estimated scf accuracy    <       0.00002616 Ry

     iteration #  4     ecut=    50.00 Ry     beta= 0.70
     Davidson diagonalization with overlap
     ethr =  2.38E-07,  avg # of iterations =  2.5

     total cpu time spent up to now is        3.0 secs

     total energy              =     -84.17641142 Ry
     Harris-Foulkes estimate   =     -84.17641136 Ry
     estimated scf accuracy    <       0.00000047 Ry

     iteration #  5     ecut=    50.00 Ry     beta= 0.70
     Davidson diagonalization with overlap
     ethr =  4.25E-09,  avg # of iterations =  2.1

     total cpu time spent up to now is        3.4 secs

     total energy              =     -84.17641154 Ry
     Harris-Foulkes estimate   =     -84.17641156 Ry
     estimated scf accuracy    <       0.00000004 Ry

     iteration #  6     ecut=    50.00 Ry     beta= 0.70
     Davidson diagonalization with overlap
     ethr =  3.68E-10,  avg # of iterations =  2.2

     total cpu time spent up to now is        3.8 secs

     End of self-consistent calculation

          k = 0.0000 0.0000 0.0000 (   701 PWs)   bands (ev):

     4.8088   7.9302   7.9302   7.9302   8.9811   8.9811  29.5457  32.8337
    32.8337  32.8337

          k =-0.1000 0.1000-0.1000 (   685 PWs)   bands (ev):

     5.1161   7.8649   8.0135   8.0135   8.9540   8.9540  29.1932  30.7453
    32.8119  32.8119

          k =-0.2000 0.2000-0.2000 (   685 PWs)   bands (ev):

     5.8879   7.8589   8.1380   8.1380   8.9915   8.9915  25.8259  30.2149
    32.6148  32.6148

          k =-0.3000 0.3000-0.3000 (   682 PWs)   bands (ev):

     6.3781   8.0869   8.0869   8.7311   9.2825   9.2825  21.8912  29.5793
    32.0040  32.0040

          k =-0.4000 0.4000-0.4000 (   679 PWs)   bands (ev):

     6.3431   7.9630   7.9630   9.6360   9.6360  10.6790  18.3025  28.8696
    31.1970  31.1970

          k = 0.5000-0.5000 0.5000 (   700 PWs)   bands (ev):

     6.2893   7.9077   7.9077   9.7866   9.7866  12.1938  16.2624  28.5918
    30.8334  30.8334

          k = 0.0000 0.2000 0.0000 (   693 PWs)   bands (ev):

     5.2193   7.7682   8.0840   8.0840   8.8254   9.0520  29.5600  31.4361
    31.4947  31.4947

          k =-0.1000 0.3000-0.1000 (   683 PWs)   bands (ev):

     5.8580   7.6227   8.2283   8.2483   8.7861   9.1403  27.3484  29.9435
    30.4540  32.7110

          k =-0.2000 0.4000-0.2000 (   691 PWs)   bands (ev):

     6.5142   7.8499   8.1056   8.2741   9.3622   9.3851  23.3803  29.4681
    29.6930  32.2330

          k =-0.3000 0.5000-0.3000 (   691 PWs)   bands (ev):

     6.5432   7.9033   8.1617   8.6634   9.6901  10.7873  19.5995  28.7103
    29.3239  30.6125

          k = 0.6000-0.4000 0.6000 (   689 PWs)   bands (ev):

     6.4660   7.8035   8.0638   9.1822   9.7976  12.7362  16.6443  27.9936
    29.5939  29.6582

          k = 0.5000-0.3000 0.5000 (   688 PWs)   bands (ev):

     6.4963   7.8402   8.0615   9.2033   9.5972  12.1719  17.4567  27.5488
    29.6535  30.7004

          k = 0.4000-0.2000 0.4000 (   678 PWs)   bands (ev):

     6.6003   7.9641   8.1654   8.6026   9.1784  10.4239  20.8340  27.5578
    30.5011  32.6383

          k = 0.3000-0.1000 0.3000 (   679 PWs)   bands (ev):

     6.3824   7.7228   8.1975   8.2758   8.7914   9.5001  24.7145  27.9502
    31.9037  34.0689

          k = 0.2000 0.0000 0.2000 (   682 PWs)   bands (ev):

     5.5967   7.7313   8.1362   8.1587   8.7977   9.0959  28.4933  28.6660
    32.0191  34.2592

          k = 0.0000 0.4000 0.0000 (   681 PWs)   bands (ev):

     6.2482   7.3640   8.5186   8.5186   8.6193   9.2400  28.7795  28.7795
    29.6050  29.6769

          k =-0.1000 0.5000-0.1000 (   683 PWs)   bands (ev):

     6.7519   7.2166   8.3450   8.6842   9.4408   9.4549  25.1978  27.6379
    28.6507  30.1640

          k =-0.2000 0.6000-0.2000 (   682 PWs)   bands (ev):

     6.8016   7.4834   8.2053   8.6184   9.7337  11.1294  21.3254  26.9063
    27.1389  29.7279

          k = 0.7000-0.3000 0.7000 (   691 PWs)   bands (ev):

     6.7763   7.5835   8.3789   8.4942   9.8260  13.4303  17.8745  25.3525
    27.4366  29.4469

          k = 0.6000-0.2000 0.6000 (   687 PWs)   bands (ev):

     6.8740   7.6028   8.4243   8.4878   9.5997  14.2350  17.0417  24.2899
    28.6034  29.5207

          k = 0.5000-0.1000 0.5000 (   686 PWs)   bands (ev):

     7.0720   7.7002   8.1982   8.4544   9.1454  12.1352  20.2647  23.8578
    30.1216  30.5274

          k = 0.4000 0.0000 0.4000 (   686 PWs)   bands (ev):

     7.1046   7.5071   8.0847   8.5670   8.6696  10.5340  23.8961  24.1916
    31.2711  32.9243

          k = 0.0000 0.6000 0.0000 (   689 PWs)   bands (ev):

     6.7124   6.8961   9.1394   9.1394   9.4788   9.6822  26.1120  26.1120
    26.4707  29.6707

          k =-0.1000 0.7000-0.1000 (   686 PWs)   bands (ev):

     6.6657   6.8139   9.0349   9.2068   9.7416  11.4157  23.2483  24.3406
    25.3144  29.7350

          k = 0.8000-0.2000 0.8000 (   688 PWs)   bands (ev):

     6.6747   7.0348   8.7244   9.0797   9.8669  13.8327  19.8131  22.5557
    25.4244  29.6060

          k = 0.7000-0.1000 0.7000 (   695 PWs)   bands (ev):

     6.8525   7.3873   8.3297   8.9332   9.6642  16.4547  17.0585  21.2214
    26.4747  29.5645

          k = 0.6000-0.0000 0.6000 (   684 PWs)   bands (ev):

     7.1485   7.7749   7.8556   8.7597   9.3132  14.2149  19.8038  20.7554
    28.2838  29.7357

          k = 0.0000 0.8000 0.0000 (   684 PWs)   bands (ev):

     6.4183   6.5404   9.6780   9.7378   9.7378  12.2435  22.0052  24.1747
    24.1747  29.7291

          k = 0.9000-0.1000 0.9000 (   689 PWs)   bands (ev):

     6.3995   6.5527   9.5810   9.5897   9.9263  14.0891  20.2497  22.1683
    23.9847  29.7428

          k = 0.8000 0.0000 0.8000 (   688 PWs)   bands (ev):

     6.5712   6.8807   8.9798   9.3702   9.8132  16.1071  19.1236  19.8053
    24.8183  29.6527

          k = 0.0000-1.0000 0.0000 (   692 PWs)   bands (ev):

     6.2570   6.4094   9.7552   9.9976   9.9976  14.2162  19.3847  23.4531
    23.4531  29.7524

          k =-0.2000 0.4000 0.0000 (   681 PWs)   bands (ev):

     6.5300   7.4330   8.1679   8.5198   8.8264   9.5240  26.2984  26.5744
    31.0996  31.9772

          k =-0.3000 0.5000-0.1000 (   685 PWs)   bands (ev):

     6.9243   7.6803   7.9210   8.5635   9.1962  10.5643  22.4793  25.9149
    29.2628  32.2575

          k = 0.6000-0.4000 0.8000 (   683 PWs)   bands (ev):

     6.8152   7.6943   8.2592   8.5116   9.5963  12.3835  18.8330  25.8881
    27.6608  31.3751

          k = 0.5000-0.3000 0.7000 (   684 PWs)   bands (ev):

     6.7599   7.6059   8.3314   8.6555   9.7281  14.1564  16.4568  26.4298
    26.5428  30.9743

          k =-0.2000 0.6000 0.0000 (   680 PWs)   bands (ev):

     6.9733   7.0359   8.3145   9.1325   9.3319  10.7278  24.2910  24.5049
    26.7134  31.5323

          k = 0.7000-0.3000 0.9000 (   686 PWs)   bands (ev):

     6.9242   7.2612   8.1619   9.0362   9.6489  12.7121  20.7036  24.1807
    24.8768  31.6168

          k = 0.6000-0.2000 0.8000 (   695 PWs)   bands (ev):

     6.9973   7.4020   8.1325   8.8162   9.7472  15.2409  17.4596  23.3254
    24.7955  31.5567

          k = 0.5000-0.1000 0.7000 (   687 PWs)   bands (ev):

     7.2217   7.4391   7.9699   8.7744   9.5392  14.4533  18.5753  22.3918
    25.9509  32.0229

          k = 0.4000 0.0000 0.6000 (   684 PWs)   bands (ev):

     7.4130   7.5245   7.6319   8.9026   9.1466  12.2526  22.0660  22.1424
    27.5106  33.0706

          k = 0.8000-0.2000 1.0000 (   687 PWs)   bands (ev):

     6.6443   6.7256   8.9364   9.5775   9.7341  13.1721  22.0659  22.8630
    23.0291  31.2505

          k = 0.7000-0.1000 0.9000 (   692 PWs)   bands (ev):

     6.7329   6.9739   8.6056   9.2754   9.8823  15.5871  19.5960  20.7745
    23.2929  31.5038

          k = 0.6000 0.0000 0.8000 (   693 PWs)   bands (ev):

     6.9706   7.3799   8.1014   9.0089   9.7302  16.8625  18.0768  20.0549
    24.4066  31.7214

          k =-0.2000-1.0000 0.0000 (   698 PWs)   bands (ev):

     6.4730   6.6098   9.3088   9.5398   9.9974  15.2453  19.4399  22.2256
    22.3762  31.1651

          k = 0.6000-0.2000 1.0000 (   696 PWs)   bands (ev):

     7.1186   7.2670   7.9265   9.1153   9.7263  14.8806  20.4766  20.9987
    23.1684  34.3698

          k = 0.5000-0.1000 0.9000 (   696 PWs)   bands (ev):

     7.1063   7.5036   7.7520   8.9691   9.8695  17.4504  17.6323  21.2784
    22.1504  34.2882

          k =-0.4000-1.0000 0.0000 (   692 PWs)   bands (ev):

     6.9211   7.2048   8.1559   9.0878   9.9983  17.3868  19.6238  19.8610
    21.0747  34.1879

     the Fermi energy is    12.5990 ev

!    total energy              =     -84.17641155 Ry
     Harris-Foulkes estimate   =     -84.17641155 Ry
     estimated scf accuracy    <          6.8E-10 Ry

     The total energy is the sum of the following terms:

     one-electron contribution =      -4.73558004 Ry
     hartree contribution      =      14.56183743 Ry
     xc contribution           =     -22.14128163 Ry
     ewald contribution        =     -71.86118022 Ry
     smearing contrib. (-TS)   =      -0.00020707 Ry

     convergence has been achieved in   6 iterations

     Forces acting on atoms (cartesian axes, Ry/au):

     atom    1 type  1   force =     0.00000000    0.00000000    0.00000000

     Total force =     0.000000     Total SCF correction =     0.000000


     Computing stress (Cartesian axis) and pressure

          total   stress  (Ry/bohr**3)                   (kbar)     P=  -37.71
  -0.00025635   0.00000000   0.00000000        -37.71      0.00      0.00
   0.00000000  -0.00025635  -0.00000000          0.00    -37.71     -0.00
   0.00000000  -0.00000000  -0.00025635          0.00     -0.00    -37.71


     Writing output data file Ag.save/

     init_run     :      0.32s CPU      0.34s WALL (       1 calls)
     electrons    :      2.47s CPU      2.62s WALL (       1 calls)
     forces       :      0.04s CPU      0.04s WALL (       1 calls)
     stress       :      0.14s CPU      0.14s WALL (       1 calls)

     Called by init_run:
     wfcinit      :      0.11s CPU      0.12s WALL (       1 calls)
     potinit      :      0.01s CPU      0.01s WALL (       1 calls)
     hinit0       :      0.20s CPU      0.20s WALL (       1 calls)

     Called by electrons:
     c_bands      :      2.05s CPU      2.17s WALL (       7 calls)
     sum_band     :      0.37s CPU      0.39s WALL (       7 calls)
     v_of_rho     :      0.02s CPU      0.02s WALL (       7 calls)
     newd         :      0.04s CPU      0.04s WALL (       7 calls)
     mix_rho      :      0.00s CPU      0.00s WALL (       7 calls)

     Called by c_bands:
     init_us_2    :      0.07s CPU      0.07s WALL (     799 calls)
     cegterg      :      1.96s CPU      2.07s WALL (     329 calls)

     Called by sum_band:
     sum_band:bec :      0.00s CPU      0.00s WALL (     329 calls)
     addusdens    :      0.04s CPU      0.04s WALL (       7 calls)

     Called by *egterg:
     h_psi        :      1.54s CPU      1.64s WALL (    1205 calls)
     s_psi        :      0.05s CPU      0.05s WALL (    1205 calls)
     g_psi        :      0.00s CPU      0.01s WALL (     829 calls)
     cdiaghg      :      0.22s CPU      0.24s WALL (    1111 calls)

     Called by h_psi:
     h_psi:pot    :      1.53s CPU      1.63s WALL (    1205 calls)
     h_psi:calbec :      0.07s CPU      0.08s WALL (    1205 calls)
     vloc_psi     :      1.40s CPU      1.50s WALL (    1205 calls)
     add_vuspsi   :      0.05s CPU      0.05s WALL (    1205 calls)

     General routines
     calbec       :      0.12s CPU      0.13s WALL (    1769 calls)
     fft          :      0.02s CPU      0.02s WALL (     104 calls)
     ffts         :      0.00s CPU      0.00s WALL (       7 calls)
     fftw         :      1.56s CPU      1.66s WALL (   20232 calls)

     Parallel routines
     fft_scatt_xy :      0.13s CPU      0.14s WALL (   20343 calls)
     fft_scatt_yz :      0.38s CPU      0.40s WALL (   20343 calls)

     PWSCF        :     3.82s CPU         4.06s WALL


   This run was terminated on:   0:20:34  27Mar2024            

=------------------------------------------------------------------------------=
   JOB DONE.
=------------------------------------------------------------------------------=
