
     Program PWSCF v.6.3MaX starts on 27Mar2024 at  0:39:33 

     This program is part of the open-source Quantum ESPRESSO suite
     for quantum simulation of materials; please cite
         "P. Giannozzi et al., J. Phys.:Condens. Matter 21 395502 (2009);
         "P. Giannozzi et al., J. Phys.:Condens. Matter 29 465901 (2017);
          URL http://www.quantum-espresso.org", 
     in publications or presentations arising from this work. More details at
     http://www.quantum-espresso.org/quote

     Parallel version (MPI), running on     5 processors

     MPI processes distributed on     1 nodes
     R & G space division:  proc/nbgrp/npool/nimage =       5
     Waiting for input...
     Reading input from standard input

     Current dimensions of program PWSCF are:
     Max number of different atomic species (ntypx) = 10
     Max number of k-points (npk) =  40000
     Max angular momentum in pseudopotentials (lmaxx) =  3
               file Ag.pbesol-n-kjpaw_psl.1.0.0.UPF: wavefunction(s)  5S 5P renormalized

     Subspace diagonalization in iterative solution of the eigenvalue problem:
     a serial algorithm will be used


     Parallelization info
     --------------------
     sticks:   dense  smooth     PW     G-vecs:    dense   smooth      PW
     Min         137     137     42                 2410     2410     416
     Max         139     139     43                 2411     2411     418
     Sum         691     691    211                12051    12051    2085



     bravais-lattice index     =            2
     lattice parameter (alat)  =       7.7200  a.u.
     unit-cell volume          =     115.0249 (a.u.)^3
     number of atoms/cell      =            1
     number of atomic types    =            1
     number of electrons       =        11.00
     number of Kohn-Sham states=           10
     kinetic-energy cutoff     =      85.0000  Ry
     charge density cutoff     =     340.0000  Ry
     convergence threshold     =      1.0E-08
     mixing beta               =       0.7000
     number of iterations used =            8  plain     mixing
     Exchange-correlation      = SLA PW PSX PSC ( 1  4 10  8 0 0)

     celldm(1)=   7.720000  celldm(2)=   0.000000  celldm(3)=   0.000000
     celldm(4)=   0.000000  celldm(5)=   0.000000  celldm(6)=   0.000000

     crystal axes: (cart. coord. in units of alat)
               a(1) = (  -0.500000   0.000000   0.500000 )  
               a(2) = (   0.000000   0.500000   0.500000 )  
               a(3) = (  -0.500000   0.500000   0.000000 )  

     reciprocal axes: (cart. coord. in units 2 pi/alat)
               b(1) = ( -1.000000 -1.000000  1.000000 )  
               b(2) = (  1.000000  1.000000  1.000000 )  
               b(3) = ( -1.000000  1.000000 -1.000000 )  


     PseudoPot. # 1 for Ag read from file:
     /home/lorenzo/pseudos/Ag/Ag.pbesol-n-kjpaw_psl.1.0.0.UPF
     MD5 check sum: 3b245e14fa22881b2ac493bfd23f605f
     Pseudo is Projector augmented-wave + core cor, Zval = 11.0
     Generated using "atomic" code by A. Dal Corso v.6.2.2
     Shape of augmentation charge: PSQ
     Using radial grid of 1237 points,  6 beta functions with: 
                l(1) =   0
                l(2) =   0
                l(3) =   1
                l(4) =   1
                l(5) =   2
                l(6) =   2
     Q(r) pseudized with 0 coefficients 


     atomic species   valence    mass     pseudopotential
        Ag            11.00   107.86820     Ag( 1.00)

     48 Sym. Ops., with inversion, found



   Cartesian axes

     site n.     atom                  positions (alat units)
         1           Ag  tau(   1) = (   0.0000000   0.0000000   0.0000000  )

     number of k points=    56  gaussian smearing, width (Ry)=  0.0100
                       cart. coord. in units 2pi/alat
        k(    1) = (   0.0000000   0.0000000   0.0000000), wk =   0.0015026
        k(    2) = (  -0.0909091   0.0909091  -0.0909091), wk =   0.0120210
        k(    3) = (  -0.1818182   0.1818182  -0.1818182), wk =   0.0120210
        k(    4) = (  -0.2727273   0.2727273  -0.2727273), wk =   0.0120210
        k(    5) = (  -0.3636364   0.3636364  -0.3636364), wk =   0.0120210
        k(    6) = (  -0.4545455   0.4545455  -0.4545455), wk =   0.0120210
        k(    7) = (   0.0000000   0.1818182   0.0000000), wk =   0.0090158
        k(    8) = (  -0.0909091   0.2727273  -0.0909091), wk =   0.0360631
        k(    9) = (  -0.1818182   0.3636364  -0.1818182), wk =   0.0360631
        k(   10) = (  -0.2727273   0.4545455  -0.2727273), wk =   0.0360631
        k(   11) = (  -0.3636364   0.5454545  -0.3636364), wk =   0.0360631
        k(   12) = (   0.5454545  -0.3636364   0.5454545), wk =   0.0360631
        k(   13) = (   0.4545455  -0.2727273   0.4545455), wk =   0.0360631
        k(   14) = (   0.3636364  -0.1818182   0.3636364), wk =   0.0360631
        k(   15) = (   0.2727273  -0.0909091   0.2727273), wk =   0.0360631
        k(   16) = (   0.1818182  -0.0000000   0.1818182), wk =   0.0180316
        k(   17) = (   0.0000000   0.3636364   0.0000000), wk =   0.0090158
        k(   18) = (  -0.0909091   0.4545455  -0.0909091), wk =   0.0360631
        k(   19) = (  -0.1818182   0.5454545  -0.1818182), wk =   0.0360631
        k(   20) = (  -0.2727273   0.6363636  -0.2727273), wk =   0.0360631
        k(   21) = (   0.6363636  -0.2727273   0.6363636), wk =   0.0360631
        k(   22) = (   0.5454545  -0.1818182   0.5454545), wk =   0.0360631
        k(   23) = (   0.4545455  -0.0909091   0.4545455), wk =   0.0360631
        k(   24) = (   0.3636364   0.0000000   0.3636364), wk =   0.0180316
        k(   25) = (   0.0000000   0.5454545   0.0000000), wk =   0.0090158
        k(   26) = (  -0.0909091   0.6363636  -0.0909091), wk =   0.0360631
        k(   27) = (  -0.1818182   0.7272727  -0.1818182), wk =   0.0360631
        k(   28) = (   0.7272727  -0.1818182   0.7272727), wk =   0.0360631
        k(   29) = (   0.6363636  -0.0909091   0.6363636), wk =   0.0360631
        k(   30) = (   0.5454545   0.0000000   0.5454545), wk =   0.0180316
        k(   31) = (   0.0000000   0.7272727   0.0000000), wk =   0.0090158
        k(   32) = (  -0.0909091   0.8181818  -0.0909091), wk =   0.0360631
        k(   33) = (   0.8181818  -0.0909091   0.8181818), wk =   0.0360631
        k(   34) = (   0.7272727   0.0000000   0.7272727), wk =   0.0180316
        k(   35) = (   0.0000000   0.9090909   0.0000000), wk =   0.0090158
        k(   36) = (   0.9090909  -0.0000000   0.9090909), wk =   0.0180316
        k(   37) = (  -0.1818182   0.3636364   0.0000000), wk =   0.0360631
        k(   38) = (  -0.2727273   0.4545455  -0.0909091), wk =   0.0721262
        k(   39) = (  -0.3636364   0.5454545  -0.1818182), wk =   0.0721262
        k(   40) = (   0.5454545  -0.3636364   0.7272727), wk =   0.0721262
        k(   41) = (  -0.1818182   0.5454545   0.0000000), wk =   0.0360631
        k(   42) = (  -0.2727273   0.6363636  -0.0909091), wk =   0.0721262
        k(   43) = (   0.6363636  -0.2727273   0.8181818), wk =   0.0721262
        k(   44) = (   0.5454545  -0.1818182   0.7272727), wk =   0.0721262
        k(   45) = (   0.4545455  -0.0909091   0.6363636), wk =   0.0721262
        k(   46) = (   0.3636364   0.0000000   0.5454545), wk =   0.0360631
        k(   47) = (  -0.1818182   0.7272727   0.0000000), wk =   0.0360631
        k(   48) = (   0.7272727  -0.1818182   0.9090909), wk =   0.0721262
        k(   49) = (   0.6363636  -0.0909091   0.8181818), wk =   0.0721262
        k(   50) = (   0.5454545   0.0000000   0.7272727), wk =   0.0360631
        k(   51) = (   0.8181818  -0.0909091   1.0000000), wk =   0.0360631
        k(   52) = (   0.7272727   0.0000000   0.9090909), wk =   0.0360631
        k(   53) = (   0.6363636  -0.2727273   1.0000000), wk =   0.0360631
        k(   54) = (   0.5454545  -0.1818182   0.9090909), wk =   0.0721262
        k(   55) = (   0.6363636  -0.0909091   1.0000000), wk =   0.0360631
        k(   56) = (   0.5454545   0.0000000   0.9090909), wk =   0.0360631

     Dense  grid:    12051 G-vectors     FFT dimensions: (  36,  36,  36)

     Estimated max dynamical RAM per process >      13.65 MB

     Estimated total dynamical RAM >      68.27 MB

     Initial potential from superposition of free atoms

     starting charge   10.99964, renormalised to   11.00000
     Starting wfcs are    9 randomized atomic wfcs +    1 random wfcs
     Checking if some PAW data can be deallocated... 

     total cpu time spent up to now is        1.4 secs

     Self-consistent Calculation

     iteration #  1     ecut=    85.00 Ry     beta= 0.70
     Davidson diagonalization with overlap
     ethr =  1.00E-02,  avg # of iterations =  4.7

     Threshold (ethr) on eigenvalues was too large:
     Diagonalizing with lowered threshold

     Davidson diagonalization with overlap
     ethr =  4.93E-05,  avg # of iterations =  2.0

     total cpu time spent up to now is        3.5 secs

     total energy              =    -350.23832484 Ry
     Harris-Foulkes estimate   =    -350.24221705 Ry
     estimated scf accuracy    <       0.00584339 Ry

     iteration #  2     ecut=    85.00 Ry     beta= 0.70
     Davidson diagonalization with overlap
     ethr =  5.31E-05,  avg # of iterations =  2.0

     total cpu time spent up to now is        4.5 secs

     total energy              =    -350.23997451 Ry
     Harris-Foulkes estimate   =    -350.24214803 Ry
     estimated scf accuracy    <       0.00451851 Ry

     iteration #  3     ecut=    85.00 Ry     beta= 0.70
     Davidson diagonalization with overlap
     ethr =  4.11E-05,  avg # of iterations =  1.6

     total cpu time spent up to now is        5.5 secs

     total energy              =    -350.24084086 Ry
     Harris-Foulkes estimate   =    -350.24082403 Ry
     estimated scf accuracy    <       0.00001559 Ry

     iteration #  4     ecut=    85.00 Ry     beta= 0.70
     Davidson diagonalization with overlap
     ethr =  1.42E-07,  avg # of iterations =  3.1

     total cpu time spent up to now is        6.7 secs

     total energy              =    -350.24085013 Ry
     Harris-Foulkes estimate   =    -350.24084996 Ry
     estimated scf accuracy    <       0.00000052 Ry

     iteration #  5     ecut=    85.00 Ry     beta= 0.70
     Davidson diagonalization with overlap
     ethr =  4.72E-09,  avg # of iterations =  1.0

     total cpu time spent up to now is        7.6 secs

     End of self-consistent calculation

          k = 0.0000 0.0000 0.0000 (  1471 PWs)   bands (ev):

     4.8041   7.9068   7.9068   7.9068   8.9584   8.9584  29.5441  32.8280
    32.8280  32.8280

          k =-0.0909 0.0909-0.0909 (  1489 PWs)   bands (ev):

     5.0593   7.8507   7.9763   7.9763   8.9342   8.9342  29.3213  30.9248
    32.8107  32.8107

          k =-0.1818 0.1818-0.1818 (  1513 PWs)   bands (ev):

     5.7304   7.8064   8.1011   8.1011   8.9442   8.9442  26.5294  30.2673
    32.6673  32.6673

          k =-0.2727 0.2727-0.2727 (  1519 PWs)   bands (ev):

     6.3100   8.0934   8.0934   8.3391   9.1587   9.1587  22.9383  29.7899
    32.2036  32.2036

          k =-0.3636 0.3636-0.3636 (  1510 PWs)   bands (ev):

     6.3587   7.9820   7.9820   9.4938   9.4938   9.8960  19.5203  29.0913
    31.4622  31.4622

          k =-0.4545 0.4545-0.4545 (  1513 PWs)   bands (ev):

     6.2845   7.8974   7.8974   9.7284   9.7284  11.7629  16.7798  28.6486
    30.9049  30.9049

          k = 0.0000 0.1818 0.0000 (  1487 PWs)   bands (ev):

     5.1449   7.7724   8.0335   8.0335   8.8275   9.0169  29.5543  31.6033
    31.6956  31.6956

          k =-0.0909 0.2727-0.0909 (  1506 PWs)   bands (ev):

     5.6895   7.6414   8.1746   8.1805   8.7576   9.0825  27.8781  30.0208
    30.7810  32.7526

          k =-0.1818 0.3636-0.1818 (  1518 PWs)   bands (ev):

     6.3695   7.7392   8.1358   8.2379   9.1026   9.2678  24.2976  29.6601
    30.0619  32.9124

          k =-0.2727 0.4545-0.2727 (  1510 PWs)   bands (ev):

     6.5267   7.9513   8.1551   8.4590   9.5589  10.1102  20.7705  29.0264
    29.5952  31.3291

          k =-0.3636 0.5455-0.3636 (  1520 PWs)   bands (ev):

     6.4456   7.8244   8.0483   9.0752   9.7559  11.8330  17.6642  28.3949
    29.5572  30.0989

          k = 0.5455-0.3636 0.5455 (  1513 PWs)   bands (ev):

     6.4188   7.8002   8.0021   9.3113   9.7173  12.8223  16.3642  27.9357
    29.6050  30.1475

          k = 0.4545-0.2727 0.4545 (  1517 PWs)   bands (ev):

     6.4881   7.8785   8.0470   9.0966   9.4384  11.2856  18.6349  27.7700
    29.9139  31.4505

          k = 0.3636-0.1818 0.3636 (  1525 PWs)   bands (ev):

     6.5527   7.9752   8.1626   8.3747   9.0400   9.9584  21.9330  27.9497
    30.8787  33.3932

          k = 0.2727-0.0909 0.2727 (  1516 PWs)   bands (ev):

     6.1837   7.6824   8.1781   8.2239   8.7556   9.3147  25.5115  28.3741
    32.0334  34.1234

          k = 0.1818-0.0000 0.1818 (  1510 PWs)   bands (ev):

     5.4632   7.7367   8.0774   8.1084   8.8016   9.0373  28.7727  29.1298
    31.9524  34.0158

          k = 0.0000 0.3636 0.0000 (  1511 PWs)   bands (ev):

     6.0432   7.4253   8.3967   8.3967   8.5995   9.1761  29.2873  29.2873
    29.5880  29.9892

          k =-0.0909 0.4545-0.0909 (  1516 PWs)   bands (ev):

     6.5944   7.2718   8.2924   8.5632   9.1215   9.3340  25.9342  28.2054
    29.2458  30.5409

          k =-0.1818 0.5455-0.1818 (  1524 PWs)   bands (ev):

     6.7879   7.4956   8.1121   8.5382   9.6058  10.3779  22.3499  27.5970
    27.9543  29.9519

          k =-0.2727 0.6364-0.2727 (  1523 PWs)   bands (ev):

     6.7287   7.6370   8.2874   8.4280   9.7895  12.2445  19.0248  26.5027
    27.5778  29.5338

          k = 0.6364-0.2727 0.6364 (  1519 PWs)   bands (ev):

     6.7383   7.5992   8.3392   8.5646   9.7294  14.1993  16.5490  25.3557
    28.2535  29.4004

          k = 0.5455-0.1818 0.5455 (  1516 PWs)   bands (ev):

     6.8462   7.6534   8.3251   8.5200   9.4216  13.0634  18.1326  24.6808
    29.6270  29.6884

          k = 0.4545-0.0909 0.4545 (  1520 PWs)   bands (ev):

     7.0160   7.7238   8.1309   8.4023   8.9769  11.3066  21.3204  24.5333
    30.4919  31.5694

          k = 0.3636 0.0000 0.3636 (  1518 PWs)   bands (ev):

     6.8759   7.4971   8.1150   8.5318   8.5650  10.0799  24.6688  25.0116
    31.7823  33.8249

          k = 0.0000 0.5455 0.0000 (  1519 PWs)   bands (ev):

     6.7047   6.9972   8.9354   8.9354   9.1701   9.3897  26.7812  26.7812
    27.6343  29.6422

          k =-0.0909 0.6364-0.0909 (  1517 PWs)   bands (ev):

     6.7334   6.8921   8.8256   9.0466   9.6134  10.5690  24.0693  25.7316
    25.9111  29.7680

          k =-0.1818 0.7273-0.1818 (  1518 PWs)   bands (ev):

     6.6977   7.0646   8.6108   8.9538   9.8181  12.5672  20.7731  24.0055
    25.7281  29.6146

          k = 0.7273-0.1818 0.7273 (  1521 PWs)   bands (ev):

     6.7793   7.3189   8.3831   8.8315   9.7674  14.9746  17.8107  22.6104
    26.3125  29.5166

          k = 0.6364-0.0909 0.6364 (  1523 PWs)   bands (ev):

     6.9959   7.5693   8.1020   8.7311   9.4742  15.0806  17.9722  21.6503
    27.6139  29.6021

          k = 0.5455 0.0000 0.5455 (  1524 PWs)   bands (ev):

     7.2623   7.6600   7.8835   8.6313   9.1155  13.0107  20.9397  21.3817
    29.4541  29.9511

          k = 0.0000 0.7273 0.0000 (  1532 PWs)   bands (ev):

     6.5188   6.6269   9.5151   9.5151   9.5916  11.2244  23.5586  24.7539
    24.7539  29.6984

          k =-0.0909 0.8182-0.0909 (  1520 PWs)   bands (ev):

     6.4573   6.5874   9.4410   9.4714   9.8385  12.9223  21.6584  22.7593
    24.3182  29.7264

          k = 0.8182-0.0909 0.8182 (  1526 PWs)   bands (ev):

     6.5358   6.8103   9.0239   9.3321   9.8351  15.1465  19.7288  20.5536
    24.7150  29.6490

          k = 0.7273 0.0000 0.7273 (  1518 PWs)   bands (ev):

     6.7481   7.2181   8.4733   9.1053   9.6341  17.3250  17.3295  19.8670
    25.8831  29.5899

          k = 0.0000 0.9091 0.0000 (  1544 PWs)   bands (ev):

     6.2759   6.4161   9.7142   9.9131   9.9131  13.6566  20.0586  23.5995
    23.5995  29.7339

          k = 0.9091-0.0000 0.9091 (  1548 PWs)   bands (ev):

     6.3256   6.4783   9.6401   9.6850   9.9311  14.6761  19.3920  22.2011
    23.7410  29.7455

          k =-0.1818 0.3636 0.0000 (  1513 PWs)   bands (ev):

     6.2927   7.4716   8.1879   8.3986   8.7543   9.3393  26.9392  27.1588
    31.7083  31.8069

          k =-0.2727 0.4545-0.0909 (  1527 PWs)   bands (ev):

     6.8150   7.5819   7.9951   8.4786   9.0453  10.0651  23.4278  26.5048
    30.0916  32.3422

          k =-0.3636 0.5455-0.1818 (  1519 PWs)   bands (ev):

     6.7717   7.7802   8.1585   8.4320   9.4626  11.4390  19.9883  26.3067
    28.5830  31.5356

          k = 0.5455-0.3636 0.7273 (  1517 PWs)   bands (ev):

     6.6830   7.6488   8.2448   8.7009   9.6838  13.3291  17.0771  26.5731
    27.3951  30.8724

          k =-0.1818 0.5455 0.0000 (  1517 PWs)   bands (ev):

     6.9268   7.0990   8.2308   8.9293   9.2097  10.1317  25.0271  25.2621
    27.9054  31.3733

          k =-0.2727 0.6364-0.0909 (  1524 PWs)   bands (ev):

     6.9229   7.2964   8.0881   8.9178   9.5192  11.6807  21.6770  24.8007
    26.1419  31.4817

          k = 0.6364-0.2727 0.8182 (  1517 PWs)   bands (ev):

     6.9105   7.4356   8.1171   8.7516   9.7161  13.7825  18.5033  24.6188
    25.0671  31.2633

          k = 0.5455-0.1818 0.7273 (  1531 PWs)   bands (ev):

     7.0173   7.4287   8.1967   8.6245   9.6491  15.2305  16.8728  23.5650
    25.8258  31.4073

          k = 0.4545-0.0909 0.6364 (  1520 PWs)   bands (ev):

     7.1890   7.5126   7.9122   8.7076   9.3629  13.1734  19.6398  22.9886
    27.0452  32.1309

          k = 0.3636 0.0000 0.5455 (  1524 PWs)   bands (ev):

     7.3664   7.3868   7.7528   8.8437   8.9485  11.3871  22.9030  23.0330
    28.5336  33.3944

          k =-0.1818 0.7273 0.0000 (  1535 PWs)   bands (ev):

     6.7153   6.7689   8.7872   9.5104   9.5347  12.0390  23.2889  23.5607
    23.9348  31.0786

          k = 0.7273-0.1818 0.9091 (  1535 PWs)   bands (ev):

     6.7280   6.9451   8.5606   9.2744   9.7858  14.1311  20.3929  22.1653
    23.6390  31.2445

          k = 0.6364-0.0909 0.8182 (  1526 PWs)   bands (ev):

     6.8703   7.2568   8.2376   9.0216   9.7491  16.6236  17.6503  20.9241
    24.3578  31.3409

          k = 0.5455 0.0000 0.7273 (  1524 PWs)   bands (ev):

     7.1319   7.5651   7.8105   8.8753   9.5173  15.2187  19.2154  20.4634
    25.5764  31.7094

          k = 0.8182-0.0909 1.0000 (  1537 PWs)   bands (ev):

     6.4578   6.5792   9.2771   9.5856   9.9126  14.4762  20.1471  22.5395
    22.6394  30.9505

          k = 0.7273 0.0000 0.9091 (  1523 PWs)   bands (ev):

     6.6147   6.8332   8.8283   9.3249   9.9077  16.1176  19.4160  20.1911
    23.1877  31.2091

          k = 0.6364-0.2727 1.0000 (  1533 PWs)   bands (ev):

     7.1766   7.1823   7.9049   9.1456   9.5024  13.4973  21.4024  21.6287
    24.4890  33.8684

          k = 0.5455-0.1818 0.9091 (  1528 PWs)   bands (ev):

     7.1555   7.3627   7.8221   8.9425   9.7359  15.7419  18.4563  21.9292
    23.1802  33.6204

          k = 0.6364-0.0909 1.0000 (  1527 PWs)   bands (ev):

     6.8718   7.0632   8.2704   9.1574   9.9110  16.1508  20.3353  20.4353
    21.4791  33.5968

          k = 0.5455 0.0000 0.9091 (  1529 PWs)   bands (ev):

     7.0062   7.4172   7.8425   8.9800   9.9085  18.0063  18.1779  19.9922
    21.8897  34.2330

     the Fermi energy is    12.8675 ev

!    total energy              =    -350.24085015 Ry
     Harris-Foulkes estimate   =    -350.24085015 Ry
     estimated scf accuracy    <          4.0E-09 Ry

     total all-electron energy =    -10627.251259 Ry

     The total energy is the sum of the following terms:

     one-electron contribution =       1.61267731 Ry
     hartree contribution      =      14.56269596 Ry
     xc contribution           =     -22.14150443 Ry
     ewald contribution        =     -71.86118018 Ry
     one-center paw contrib.   =    -272.41332954 Ry
     smearing contrib. (-TS)   =      -0.00020927 Ry

     convergence has been achieved in   5 iterations

     Forces acting on atoms (cartesian axes, Ry/au):

     atom    1 type  1   force =     0.00000000    0.00000000    0.00000000

     Total force =     0.000000     Total SCF correction =     0.000000


     Computing stress (Cartesian axis) and pressure

          total   stress  (Ry/bohr**3)                   (kbar)     P=  -25.90
  -0.00017608  -0.00000000  -0.00000000        -25.90     -0.00     -0.00
  -0.00000000  -0.00017608   0.00000000         -0.00    -25.90      0.00
  -0.00000000   0.00000000  -0.00017608         -0.00      0.00    -25.90


     Writing output data file Ag.save/

     init_run     :      0.59s CPU      0.64s WALL (       1 calls)
     electrons    :      5.88s CPU      6.22s WALL (       1 calls)
     forces       :      0.08s CPU      0.08s WALL (       1 calls)
     stress       :      0.29s CPU      0.29s WALL (       1 calls)

     Called by init_run:
     wfcinit      :      0.26s CPU      0.28s WALL (       1 calls)
     potinit      :      0.10s CPU      0.12s WALL (       1 calls)
     hinit0       :      0.20s CPU      0.20s WALL (       1 calls)

     Called by electrons:
     c_bands      :      4.41s CPU      4.66s WALL (       6 calls)
     sum_band     :      0.87s CPU      0.92s WALL (       6 calls)
     v_of_rho     :      0.05s CPU      0.06s WALL (       6 calls)
     newd         :      0.07s CPU      0.08s WALL (       6 calls)
     PAW_pot      :      0.58s CPU      0.61s WALL (       6 calls)
     mix_rho      :      0.00s CPU      0.00s WALL (       6 calls)

     Called by c_bands:
     init_us_2    :      0.14s CPU      0.15s WALL (     840 calls)
     cegterg      :      4.22s CPU      4.47s WALL (     336 calls)

     Called by sum_band:
     sum_band:bec :      0.00s CPU      0.00s WALL (     336 calls)
     addusdens    :      0.07s CPU      0.07s WALL (       6 calls)

     Called by *egterg:
     h_psi        :      3.64s CPU      3.88s WALL (    1196 calls)
     s_psi        :      0.10s CPU      0.11s WALL (    1196 calls)
     g_psi        :      0.01s CPU      0.01s WALL (     804 calls)
     cdiaghg      :      0.23s CPU      0.24s WALL (    1084 calls)

     Called by h_psi:
     h_psi:pot    :      3.62s CPU      3.86s WALL (    1196 calls)
     h_psi:calbec :      0.16s CPU      0.17s WALL (    1196 calls)
     vloc_psi     :      3.36s CPU      3.58s WALL (    1196 calls)
     add_vuspsi   :      0.10s CPU      0.11s WALL (    1196 calls)

     General routines
     calbec       :      0.24s CPU      0.26s WALL (    1812 calls)
     fft          :      0.03s CPU      0.03s WALL (      93 calls)
     ffts         :      0.00s CPU      0.00s WALL (       6 calls)
     fftw         :      3.74s CPU      3.99s WALL (   20814 calls)

     Parallel routines
     fft_scatt_xy :      0.32s CPU      0.34s WALL (   20913 calls)
     fft_scatt_yz :      0.85s CPU      0.90s WALL (   20913 calls)

     PWSCF        :     7.70s CPU         8.19s WALL


   This run was terminated on:   0:39:41  27Mar2024            

=------------------------------------------------------------------------------=
   JOB DONE.
=------------------------------------------------------------------------------=
