
     Program PWSCF v.6.3MaX starts on 27Mar2024 at  0:19:14 

     This program is part of the open-source Quantum ESPRESSO suite
     for quantum simulation of materials; please cite
         "P. Giannozzi et al., J. Phys.:Condens. Matter 21 395502 (2009);
         "P. Giannozzi et al., J. Phys.:Condens. Matter 29 465901 (2017);
          URL http://www.quantum-espresso.org", 
     in publications or presentations arising from this work. More details at
     http://www.quantum-espresso.org/quote

     Parallel version (MPI), running on     5 processors

     MPI processes distributed on     1 nodes
     R & G space division:  proc/nbgrp/npool/nimage =       5
     Waiting for input...
     Reading input from standard input

     Current dimensions of program PWSCF are:
     Max number of different atomic species (ntypx) = 10
     Max number of k-points (npk) =  40000
     Max angular momentum in pseudopotentials (lmaxx) =  3
               file Ag.pbe-n-kjpaw_psl.1.0.0.UPF: wavefunction(s)  5S 5P renormalized

     Subspace diagonalization in iterative solution of the eigenvalue problem:
     a serial algorithm will be used


     Parallelization info
     --------------------
     sticks:   dense  smooth     PW     G-vecs:    dense   smooth      PW
     Min          73      73     24                  928      928     178
     Max          74      74     25                  930      930     181
     Sum         367     367    121                 4645     4645     893



     bravais-lattice index     =            2
     lattice parameter (alat)  =       7.7200  a.u.
     unit-cell volume          =     115.0249 (a.u.)^3
     number of atoms/cell      =            1
     number of atomic types    =            1
     number of electrons       =        11.00
     number of Kohn-Sham states=           10
     kinetic-energy cutoff     =      45.0000  Ry
     charge density cutoff     =     180.0000  Ry
     convergence threshold     =      1.0E-08
     mixing beta               =       0.7000
     number of iterations used =            8  plain     mixing
     Exchange-correlation      = SLA PW PBX PBC ( 1  4  3  4 0 0)

     celldm(1)=   7.720000  celldm(2)=   0.000000  celldm(3)=   0.000000
     celldm(4)=   0.000000  celldm(5)=   0.000000  celldm(6)=   0.000000

     crystal axes: (cart. coord. in units of alat)
               a(1) = (  -0.500000   0.000000   0.500000 )  
               a(2) = (   0.000000   0.500000   0.500000 )  
               a(3) = (  -0.500000   0.500000   0.000000 )  

     reciprocal axes: (cart. coord. in units 2 pi/alat)
               b(1) = ( -1.000000 -1.000000  1.000000 )  
               b(2) = (  1.000000  1.000000  1.000000 )  
               b(3) = ( -1.000000  1.000000 -1.000000 )  


     PseudoPot. # 1 for Ag read from file:
     /home/lorenzo/pseudos/Ag/Ag.pbe-n-kjpaw_psl.1.0.0.UPF
     MD5 check sum: 51099775af2a3182a6a1caffb86952a3
     Pseudo is Projector augmented-wave + core cor, Zval = 11.0
     Generated using "atomic" code by A. Dal Corso v.6.2.2
     Shape of augmentation charge: PSQ
     Using radial grid of 1237 points,  6 beta functions with: 
                l(1) =   0
                l(2) =   0
                l(3) =   1
                l(4) =   1
                l(5) =   2
                l(6) =   2
     Q(r) pseudized with 0 coefficients 


     atomic species   valence    mass     pseudopotential
        Ag            11.00   107.86820     Ag( 1.00)

     48 Sym. Ops., with inversion, found



   Cartesian axes

     site n.     atom                  positions (alat units)
         1           Ag  tau(   1) = (   0.0000000   0.0000000   0.0000000  )

     number of k points=    10  gaussian smearing, width (Ry)=  0.0100
                       cart. coord. in units 2pi/alat
        k(    1) = (   0.0000000   0.0000000   0.0000000), wk =   0.0160000
        k(    2) = (  -0.2000000   0.2000000  -0.2000000), wk =   0.1280000
        k(    3) = (  -0.4000000   0.4000000  -0.4000000), wk =   0.1280000
        k(    4) = (   0.0000000   0.4000000   0.0000000), wk =   0.0960000
        k(    5) = (  -0.2000000   0.6000000  -0.2000000), wk =   0.3840000
        k(    6) = (   0.6000000  -0.2000000   0.6000000), wk =   0.3840000
        k(    7) = (   0.4000000   0.0000000   0.4000000), wk =   0.1920000
        k(    8) = (   0.0000000   0.8000000   0.0000000), wk =   0.0960000
        k(    9) = (   0.8000000   0.0000000   0.8000000), wk =   0.1920000
        k(   10) = (   0.6000000  -0.2000000   1.0000000), wk =   0.3840000

     Dense  grid:     4645 G-vectors     FFT dimensions: (  24,  24,  24)

     Estimated max dynamical RAM per process >       4.99 MB

     Estimated total dynamical RAM >      24.94 MB

     Initial potential from superposition of free atoms

     starting charge   10.99960, renormalised to   11.00000
     Starting wfcs are    9 randomized atomic wfcs +    1 random wfcs
     Checking if some PAW data can be deallocated... 

     total cpu time spent up to now is        1.1 secs

     Self-consistent Calculation

     iteration #  1     ecut=    45.00 Ry     beta= 0.70
     Davidson diagonalization with overlap
     ethr =  1.00E-02,  avg # of iterations =  4.3

     Threshold (ethr) on eigenvalues was too large:
     Diagonalizing with lowered threshold

     Davidson diagonalization with overlap
     ethr =  2.55E-05,  avg # of iterations =  3.3

     total cpu time spent up to now is        1.4 secs

     total energy              =    -355.30749567 Ry
     Harris-Foulkes estimate   =    -355.30913217 Ry
     estimated scf accuracy    <       0.00315724 Ry

     iteration #  2     ecut=    45.00 Ry     beta= 0.70
     Davidson diagonalization with overlap
     ethr =  2.87E-05,  avg # of iterations =  2.0

     total cpu time spent up to now is        1.6 secs

     total energy              =    -355.30835948 Ry
     Harris-Foulkes estimate   =    -355.30937219 Ry
     estimated scf accuracy    <       0.00214927 Ry

     iteration #  3     ecut=    45.00 Ry     beta= 0.70
     Davidson diagonalization with overlap
     ethr =  1.95E-05,  avg # of iterations =  1.7

     total cpu time spent up to now is        1.7 secs

     total energy              =    -355.30879392 Ry
     Harris-Foulkes estimate   =    -355.30877064 Ry
     estimated scf accuracy    <       0.00001526 Ry

     iteration #  4     ecut=    45.00 Ry     beta= 0.70
     Davidson diagonalization with overlap
     ethr =  1.39E-07,  avg # of iterations =  2.9

     total cpu time spent up to now is        1.9 secs

     total energy              =    -355.30879971 Ry
     Harris-Foulkes estimate   =    -355.30879945 Ry
     estimated scf accuracy    <       0.00000029 Ry

     iteration #  5     ecut=    45.00 Ry     beta= 0.70
     Davidson diagonalization with overlap
     ethr =  2.65E-09,  avg # of iterations =  1.9

     total cpu time spent up to now is        2.1 secs

     End of self-consistent calculation

          k = 0.0000 0.0000 0.0000 (   561 PWs)   bands (ev):

     5.0675   8.0956   8.0956   8.0956   9.1345   9.1345  29.8017  33.0905
    33.0905  37.3866

          k =-0.2000 0.2000-0.2000 (   582 PWs)   bands (ev):

     6.1384   8.0359   8.3009   8.3009   9.1451   9.1451  26.0661  30.4654
    32.8660  32.8660

          k =-0.4000 0.4000-0.4000 (   589 PWs)   bands (ev):

     6.5400   8.1261   8.1261   9.7844   9.7844  10.9208  18.5310  29.1203
    31.4618  31.4618

          k = 0.0000 0.4000 0.0000 (   576 PWs)   bands (ev):

     6.4965   7.5347   8.6792   8.6792   8.7886   9.3908  29.0306  29.0306
    29.8430  29.9156

          k =-0.2000 0.6000-0.2000 (   594 PWs)   bands (ev):

     6.9905   7.6613   8.3836   8.7767   9.8808  11.3367  21.5654  27.1469
    27.3945  29.9691

          k = 0.6000-0.2000 0.6000 (   576 PWs)   bands (ev):

     7.0603   7.7731   8.5841   8.6612   9.7492  14.4626  17.2699  24.5327
    28.8601  29.7674

          k = 0.4000 0.0000 0.4000 (   592 PWs)   bands (ev):

     7.3262   7.6794   8.2567   8.7246   8.8282  10.7120  24.1407  24.4264
    31.5242  33.1775

          k = 0.0000 0.8000 0.0000 (   600 PWs)   bands (ev):

     6.6035   6.7178   9.8244   9.8870   9.8870  12.4908  22.2392  24.4357
    24.4357  29.9502

          k = 0.8000 0.0000 0.8000 (   586 PWs)   bands (ev):

     6.7506   7.0594   9.1458   9.5208   9.9613  16.3486  19.3741  20.0276
    25.0782  29.8824

          k = 0.6000-0.2000 1.0000 (   575 PWs)   bands (ev):

     7.2958   7.4430   8.1034   9.2706   9.8762  15.1081  20.7160  21.2475
    23.4017  34.6184

     the Fermi energy is    12.5110 ev

!    total energy              =    -355.30879974 Ry
     Harris-Foulkes estimate   =    -355.30879974 Ry
     estimated scf accuracy    <          2.0E-09 Ry

     total all-electron energy =    -10632.274854 Ry

     The total energy is the sum of the following terms:

     one-electron contribution =       1.55365965 Ry
     hartree contribution      =      14.66835072 Ry
     xc contribution           =     -22.35381031 Ry
     ewald contribution        =     -71.86118027 Ry
     one-center paw contrib.   =    -277.31555465 Ry
     smearing contrib. (-TS)   =      -0.00026488 Ry

     convergence has been achieved in   5 iterations

     Forces acting on atoms (cartesian axes, Ry/au):

     atom    1 type  1   force =     0.00000000    0.00000000    0.00000000

     Total force =     0.000000     Total SCF correction =     0.000000


     Computing stress (Cartesian axis) and pressure

          total   stress  (Ry/bohr**3)                   (kbar)     P=   37.41
   0.00025430   0.00000000   0.00000000         37.41      0.00      0.00
   0.00000000   0.00025430   0.00000000          0.00     37.41      0.00
  -0.00000000   0.00000000   0.00025430         -0.00      0.00     37.41


     Writing output data file Ag.save/

     init_run     :      0.27s CPU      0.29s WALL (       1 calls)
     electrons    :      0.92s CPU      1.02s WALL (       1 calls)
     forces       :      0.02s CPU      0.02s WALL (       1 calls)
     stress       :      0.06s CPU      0.06s WALL (       1 calls)

     Called by init_run:
     wfcinit      :      0.02s CPU      0.02s WALL (       1 calls)
     potinit      :      0.10s CPU      0.11s WALL (       1 calls)
     hinit0       :      0.14s CPU      0.14s WALL (       1 calls)

     Called by electrons:
     c_bands      :      0.33s CPU      0.35s WALL (       6 calls)
     sum_band     :      0.09s CPU      0.10s WALL (       6 calls)
     v_of_rho     :      0.01s CPU      0.02s WALL (       6 calls)
     newd         :      0.03s CPU      0.03s WALL (       6 calls)
     PAW_pot      :      0.55s CPU      0.63s WALL (       6 calls)
     mix_rho      :      0.00s CPU      0.00s WALL (       6 calls)

     Called by c_bands:
     init_us_2    :      0.01s CPU      0.01s WALL (     150 calls)
     cegterg      :      0.32s CPU      0.34s WALL (      60 calls)

     Called by sum_band:
     sum_band:bec :      0.00s CPU      0.00s WALL (      60 calls)
     addusdens    :      0.03s CPU      0.03s WALL (       6 calls)

     Called by *egterg:
     h_psi        :      0.24s CPU      0.26s WALL (     231 calls)
     s_psi        :      0.01s CPU      0.01s WALL (     231 calls)
     g_psi        :      0.00s CPU      0.00s WALL (     161 calls)
     cdiaghg      :      0.04s CPU      0.04s WALL (     211 calls)

     Called by h_psi:
     h_psi:pot    :      0.24s CPU      0.25s WALL (     231 calls)
     h_psi:calbec :      0.01s CPU      0.01s WALL (     231 calls)
     vloc_psi     :      0.22s CPU      0.23s WALL (     231 calls)
     add_vuspsi   :      0.01s CPU      0.01s WALL (     231 calls)

     General routines
     calbec       :      0.02s CPU      0.02s WALL (     341 calls)
     fft          :      0.01s CPU      0.01s WALL (      93 calls)
     ffts         :      0.00s CPU      0.00s WALL (       6 calls)
     fftw         :      0.24s CPU      0.26s WALL (    3788 calls)

     Parallel routines
     fft_scatt_xy :      0.02s CPU      0.02s WALL (    3887 calls)
     fft_scatt_yz :      0.08s CPU      0.08s WALL (    3887 calls)

     PWSCF        :     2.07s CPU         2.23s WALL


   This run was terminated on:   0:19:16  27Mar2024            

=------------------------------------------------------------------------------=
   JOB DONE.
=------------------------------------------------------------------------------=
