
     Program PWSCF v.6.3MaX starts on 27Mar2024 at  0:47:15 

     This program is part of the open-source Quantum ESPRESSO suite
     for quantum simulation of materials; please cite
         "P. Giannozzi et al., J. Phys.:Condens. Matter 21 395502 (2009);
         "P. Giannozzi et al., J. Phys.:Condens. Matter 29 465901 (2017);
          URL http://www.quantum-espresso.org", 
     in publications or presentations arising from this work. More details at
     http://www.quantum-espresso.org/quote

     Parallel version (MPI), running on     5 processors

     MPI processes distributed on     1 nodes
     R & G space division:  proc/nbgrp/npool/nimage =       5
     Waiting for input...
     Reading input from standard input

     Current dimensions of program PWSCF are:
     Max number of different atomic species (ntypx) = 10
     Max number of k-points (npk) =  40000
     Max angular momentum in pseudopotentials (lmaxx) =  3

     Subspace diagonalization in iterative solution of the eigenvalue problem:
     a serial algorithm will be used


     Parallelization info
     --------------------
     sticks:   dense  smooth     PW     G-vecs:    dense   smooth      PW
     Min         153     153     46                 2863     2863     455
     Max         154     154     48                 2867     2867     456
     Sum         769     769    235                14331    14331    2277



     bravais-lattice index     =            2
     lattice parameter (alat)  =       7.7200  a.u.
     unit-cell volume          =     115.0249 (a.u.)^3
     number of atoms/cell      =            1
     number of atomic types    =            1
     number of electrons       =        11.00
     number of Kohn-Sham states=           10
     kinetic-energy cutoff     =      95.0000  Ry
     charge density cutoff     =     380.0000  Ry
     convergence threshold     =      1.0E-08
     mixing beta               =       0.7000
     number of iterations used =            8  plain     mixing
     Exchange-correlation      = PBE ( 1  4  3  4 0 0)

     celldm(1)=   7.720000  celldm(2)=   0.000000  celldm(3)=   0.000000
     celldm(4)=   0.000000  celldm(5)=   0.000000  celldm(6)=   0.000000

     crystal axes: (cart. coord. in units of alat)
               a(1) = (  -0.500000   0.000000   0.500000 )  
               a(2) = (   0.000000   0.500000   0.500000 )  
               a(3) = (  -0.500000   0.500000   0.000000 )  

     reciprocal axes: (cart. coord. in units 2 pi/alat)
               b(1) = ( -1.000000 -1.000000  1.000000 )  
               b(2) = (  1.000000  1.000000  1.000000 )  
               b(3) = ( -1.000000  1.000000 -1.000000 )  


     PseudoPot. # 1 for Ag read from file:
     /home/lorenzo/pseudos/Ag/Ag.pbe-n-rrkjus_psl.1.0.0.UPF
     MD5 check sum: d841cbfac2b0861aec33b46768a516bf
     Pseudo is Ultrasoft + core correction, Zval = 11.0
     Generated using "atomic" code by A. Dal Corso v.6.2.2
     Using radial grid of 1237 points,  6 beta functions with: 
                l(1) =   0
                l(2) =   0
                l(3) =   1
                l(4) =   1
                l(5) =   2
                l(6) =   2
     Q(r) pseudized with 0 coefficients 


     atomic species   valence    mass     pseudopotential
        Ag            11.00   107.86820     Ag( 1.00)

     48 Sym. Ops., with inversion, found



   Cartesian axes

     site n.     atom                  positions (alat units)
         1           Ag  tau(   1) = (   0.0000000   0.0000000   0.0000000  )

     number of k points=     3  gaussian smearing, width (Ry)=  0.0100
                       cart. coord. in units 2pi/alat
        k(    1) = (   0.0000000   0.0000000   0.0000000), wk =   0.2500000
        k(    2) = (   0.5000000  -0.5000000   0.5000000), wk =   1.0000000
        k(    3) = (   0.0000000  -1.0000000   0.0000000), wk =   0.7500000

     Dense  grid:    14331 G-vectors     FFT dimensions: (  36,  36,  36)

     Estimated max dynamical RAM per process >      12.94 MB

     Estimated total dynamical RAM >      64.68 MB

     Initial potential from superposition of free atoms

     starting charge   10.99960, renormalised to   11.00000
     Starting wfcs are    9 randomized atomic wfcs +    1 random wfcs

     total cpu time spent up to now is        1.0 secs

     Self-consistent Calculation

     iteration #  1     ecut=    95.00 Ry     beta= 0.70
     Davidson diagonalization with overlap
     ethr =  1.00E-02,  avg # of iterations =  6.0

     Threshold (ethr) on eigenvalues was too large:
     Diagonalizing with lowered threshold

     Davidson diagonalization with overlap
     ethr =  2.26E-05,  avg # of iterations =  5.0

     total cpu time spent up to now is        1.2 secs

     total energy              =     -84.12671601 Ry
     Harris-Foulkes estimate   =     -84.12728080 Ry
     estimated scf accuracy    <       0.00229494 Ry

     iteration #  2     ecut=    95.00 Ry     beta= 0.70
     Davidson diagonalization with overlap
     ethr =  2.09E-05,  avg # of iterations =  2.0

     total cpu time spent up to now is        1.3 secs

     total energy              =     -84.12699952 Ry
     Harris-Foulkes estimate   =     -84.12728991 Ry
     estimated scf accuracy    <       0.00056692 Ry

     iteration #  3     ecut=    95.00 Ry     beta= 0.70
     Davidson diagonalization with overlap
     ethr =  5.15E-06,  avg # of iterations =  2.0

     total cpu time spent up to now is        1.4 secs

     total energy              =     -84.12714208 Ry
     Harris-Foulkes estimate   =     -84.12715716 Ry
     estimated scf accuracy    <       0.00006293 Ry

     iteration #  4     ecut=    95.00 Ry     beta= 0.70
     Davidson diagonalization with overlap
     ethr =  5.72E-07,  avg # of iterations =  1.7

     total cpu time spent up to now is        1.5 secs

     total energy              =     -84.12714927 Ry
     Harris-Foulkes estimate   =     -84.12714934 Ry
     estimated scf accuracy    <       0.00000019 Ry

     iteration #  5     ecut=    95.00 Ry     beta= 0.70
     Davidson diagonalization with overlap
     ethr =  1.71E-09,  avg # of iterations =  4.7

     total cpu time spent up to now is        1.6 secs

     total energy              =     -84.12714970 Ry
     Harris-Foulkes estimate   =     -84.12714973 Ry
     estimated scf accuracy    <       0.00000012 Ry

     iteration #  6     ecut=    95.00 Ry     beta= 0.70
     Davidson diagonalization with overlap
     ethr =  1.09E-09,  avg # of iterations =  1.0

     total cpu time spent up to now is        1.7 secs

     total energy              =     -84.12714969 Ry
     Harris-Foulkes estimate   =     -84.12714970 Ry
     estimated scf accuracy    <       0.00000003 Ry

     iteration #  7     ecut=    95.00 Ry     beta= 0.70
     Davidson diagonalization with overlap
     ethr =  2.69E-10,  avg # of iterations =  2.0

     total cpu time spent up to now is        1.8 secs

     End of self-consistent calculation

          k = 0.0000 0.0000 0.0000 (  1807 PWs)   bands (ev):

     5.0810   8.3759   8.3759   8.3759   9.4611   9.4611  29.7685  33.1138
    33.1138  33.1138

          k = 0.5000-0.5000 0.5000 (  1802 PWs)   bands (ev):

     6.6761   8.3587   8.3587  10.2700  10.2700  12.4567  16.6511  28.7927
    31.1702  31.1702

          k = 0.0000-1.0000 0.0000 (  1772 PWs)   bands (ev):

     6.6574   6.8208  10.2472  10.4774  10.4774  14.5029  19.7542  23.7608
    23.7608  30.1037

     the Fermi energy is    12.5216 ev

!    total energy              =     -84.12714969 Ry
     Harris-Foulkes estimate   =     -84.12714969 Ry
     estimated scf accuracy    <          1.1E-10 Ry

     The total energy is the sum of the following terms:

     one-electron contribution =      -4.72352706 Ry
     hartree contribution      =      14.87698988 Ry
     xc contribution           =     -22.41718532 Ry
     ewald contribution        =     -71.86118018 Ry
     smearing contrib. (-TS)   =      -0.00224702 Ry

     convergence has been achieved in   7 iterations

     Forces acting on atoms (cartesian axes, Ry/au):

     atom    1 type  1   force =     0.00000000    0.00000000    0.00000000

     Total force =     0.000000     Total SCF correction =     0.000000


     Computing stress (Cartesian axis) and pressure

          total   stress  (Ry/bohr**3)                   (kbar)     P=  286.55
   0.00194790   0.00000000   0.00000000        286.55      0.00      0.00
   0.00000000   0.00194790  -0.00000000          0.00    286.55     -0.00
   0.00000000  -0.00000000   0.00194790          0.00     -0.00    286.55


     Writing output data file Ag.save/

     init_run     :      0.26s CPU      0.27s WALL (       1 calls)
     electrons    :      0.75s CPU      0.79s WALL (       1 calls)
     forces       :      0.05s CPU      0.05s WALL (       1 calls)
     stress       :      0.15s CPU      0.15s WALL (       1 calls)

     Called by init_run:
     wfcinit      :      0.02s CPU      0.02s WALL (       1 calls)
     potinit      :      0.02s CPU      0.02s WALL (       1 calls)
     hinit0       :      0.20s CPU      0.20s WALL (       1 calls)

     Called by electrons:
     c_bands      :      0.39s CPU      0.41s WALL (       8 calls)
     sum_band     :      0.19s CPU      0.20s WALL (       8 calls)
     v_of_rho     :      0.07s CPU      0.07s WALL (       8 calls)
     newd         :      0.12s CPU      0.12s WALL (       8 calls)
     mix_rho      :      0.01s CPU      0.01s WALL (       8 calls)

     Called by c_bands:
     init_us_2    :      0.01s CPU      0.01s WALL (      57 calls)
     cegterg      :      0.37s CPU      0.39s WALL (      24 calls)

     Called by sum_band:
     sum_band:bec :      0.00s CPU      0.00s WALL (      24 calls)
     addusdens    :      0.11s CPU      0.11s WALL (       8 calls)

     Called by *egterg:
     h_psi        :      0.31s CPU      0.33s WALL (     100 calls)
     s_psi        :      0.01s CPU      0.01s WALL (     100 calls)
     g_psi        :      0.00s CPU      0.00s WALL (      73 calls)
     cdiaghg      :      0.02s CPU      0.02s WALL (      94 calls)

     Called by h_psi:
     h_psi:pot    :      0.31s CPU      0.33s WALL (     100 calls)
     h_psi:calbec :      0.01s CPU      0.02s WALL (     100 calls)
     vloc_psi     :      0.28s CPU      0.30s WALL (     100 calls)
     add_vuspsi   :      0.01s CPU      0.01s WALL (     100 calls)

     General routines
     calbec       :      0.02s CPU      0.02s WALL (     139 calls)
     fft          :      0.04s CPU      0.05s WALL (     115 calls)
     ffts         :      0.00s CPU      0.00s WALL (       8 calls)
     fftw         :      0.31s CPU      0.33s WALL (    1518 calls)

     Parallel routines
     fft_scatt_xy :      0.03s CPU      0.03s WALL (    1641 calls)
     fft_scatt_yz :      0.09s CPU      0.09s WALL (    1641 calls)

     PWSCF        :     1.94s CPU         2.02s WALL


   This run was terminated on:   0:47:17  27Mar2024            

=------------------------------------------------------------------------------=
   JOB DONE.
=------------------------------------------------------------------------------=
