
     Program PWSCF v.6.3MaX starts on 27Mar2024 at  0:19:42 

     This program is part of the open-source Quantum ESPRESSO suite
     for quantum simulation of materials; please cite
         "P. Giannozzi et al., J. Phys.:Condens. Matter 21 395502 (2009);
         "P. Giannozzi et al., J. Phys.:Condens. Matter 29 465901 (2017);
          URL http://www.quantum-espresso.org", 
     in publications or presentations arising from this work. More details at
     http://www.quantum-espresso.org/quote

     Parallel version (MPI), running on     5 processors

     MPI processes distributed on     1 nodes
     R & G space division:  proc/nbgrp/npool/nimage =       5
     Waiting for input...
     Reading input from standard input

     Current dimensions of program PWSCF are:
     Max number of different atomic species (ntypx) = 10
     Max number of k-points (npk) =  40000
     Max angular momentum in pseudopotentials (lmaxx) =  3

     Subspace diagonalization in iterative solution of the eigenvalue problem:
     a serial algorithm will be used


     Parallelization info
     --------------------
     sticks:   dense  smooth     PW     G-vecs:    dense   smooth      PW
     Min          73      73     24                  928      928     178
     Max          74      74     25                  930      930     181
     Sum         367     367    121                 4645     4645     893



     bravais-lattice index     =            2
     lattice parameter (alat)  =       7.7200  a.u.
     unit-cell volume          =     115.0249 (a.u.)^3
     number of atoms/cell      =            1
     number of atomic types    =            1
     number of electrons       =        11.00
     number of Kohn-Sham states=           10
     kinetic-energy cutoff     =      45.0000  Ry
     charge density cutoff     =     180.0000  Ry
     convergence threshold     =      1.0E-08
     mixing beta               =       0.7000
     number of iterations used =            8  plain     mixing
     Exchange-correlation      = PBESOL ( 1  4 10  8 0 0)

     celldm(1)=   7.720000  celldm(2)=   0.000000  celldm(3)=   0.000000
     celldm(4)=   0.000000  celldm(5)=   0.000000  celldm(6)=   0.000000

     crystal axes: (cart. coord. in units of alat)
               a(1) = (  -0.500000   0.000000   0.500000 )  
               a(2) = (   0.000000   0.500000   0.500000 )  
               a(3) = (  -0.500000   0.500000   0.000000 )  

     reciprocal axes: (cart. coord. in units 2 pi/alat)
               b(1) = ( -1.000000 -1.000000  1.000000 )  
               b(2) = (  1.000000  1.000000  1.000000 )  
               b(3) = ( -1.000000  1.000000 -1.000000 )  


     PseudoPot. # 1 for Ag read from file:
     /home/lorenzo/pseudos/Ag/Ag.pbesol-n-rrkjus_psl.1.0.0.UPF
     MD5 check sum: 3b43e8aa747a56f565f44d11355b8b45
     Pseudo is Ultrasoft + core correction, Zval = 11.0
     Generated using "atomic" code by A. Dal Corso v.6.2.2
     Using radial grid of 1237 points,  6 beta functions with: 
                l(1) =   0
                l(2) =   0
                l(3) =   1
                l(4) =   1
                l(5) =   2
                l(6) =   2
     Q(r) pseudized with 0 coefficients 


     atomic species   valence    mass     pseudopotential
        Ag            11.00   107.86820     Ag( 1.00)

     48 Sym. Ops., with inversion, found



   Cartesian axes

     site n.     atom                  positions (alat units)
         1           Ag  tau(   1) = (   0.0000000   0.0000000   0.0000000  )

     number of k points=    20  gaussian smearing, width (Ry)=  0.0100
                       cart. coord. in units 2pi/alat
        k(    1) = (   0.0000000   0.0000000   0.0000000), wk =   0.0058309
        k(    2) = (  -0.1428571   0.1428571  -0.1428571), wk =   0.0466472
        k(    3) = (  -0.2857143   0.2857143  -0.2857143), wk =   0.0466472
        k(    4) = (  -0.4285714   0.4285714  -0.4285714), wk =   0.0466472
        k(    5) = (   0.0000000   0.2857143   0.0000000), wk =   0.0349854
        k(    6) = (  -0.1428571   0.4285714  -0.1428571), wk =   0.1399417
        k(    7) = (  -0.2857143   0.5714286  -0.2857143), wk =   0.1399417
        k(    8) = (   0.5714286  -0.2857143   0.5714286), wk =   0.1399417
        k(    9) = (   0.4285714  -0.1428571   0.4285714), wk =   0.1399417
        k(   10) = (   0.2857143  -0.0000000   0.2857143), wk =   0.0699708
        k(   11) = (   0.0000000   0.5714286   0.0000000), wk =   0.0349854
        k(   12) = (  -0.1428571   0.7142857  -0.1428571), wk =   0.1399417
        k(   13) = (   0.7142857  -0.1428571   0.7142857), wk =   0.1399417
        k(   14) = (   0.5714286   0.0000000   0.5714286), wk =   0.0699708
        k(   15) = (   0.0000000   0.8571429   0.0000000), wk =   0.0349854
        k(   16) = (   0.8571429  -0.0000000   0.8571429), wk =   0.0699708
        k(   17) = (  -0.2857143   0.5714286   0.0000000), wk =   0.1399417
        k(   18) = (   0.5714286  -0.2857143   0.8571429), wk =   0.2798834
        k(   19) = (   0.7142857  -0.1428571   1.0000000), wk =   0.1399417
        k(   20) = (   0.5714286   0.0000000   0.8571429), wk =   0.1399417

     Dense  grid:     4645 G-vectors     FFT dimensions: (  24,  24,  24)

     Estimated max dynamical RAM per process >       5.17 MB

     Estimated total dynamical RAM >      25.84 MB

     Initial potential from superposition of free atoms

     starting charge   10.99964, renormalised to   11.00000
     Starting wfcs are    9 randomized atomic wfcs +    1 random wfcs

     total cpu time spent up to now is        0.9 secs

     Self-consistent Calculation

     iteration #  1     ecut=    45.00 Ry     beta= 0.70
     Davidson diagonalization with overlap
     ethr =  1.00E-02,  avg # of iterations =  4.3

     Threshold (ethr) on eigenvalues was too large:
     Diagonalizing with lowered threshold

     Davidson diagonalization with overlap
     ethr =  4.26E-05,  avg # of iterations =  2.6

     total cpu time spent up to now is        1.2 secs

     total energy              =     -84.17742860 Ry
     Harris-Foulkes estimate   =     -84.18057564 Ry
     estimated scf accuracy    <       0.00507020 Ry

     iteration #  2     ecut=    45.00 Ry     beta= 0.70
     Davidson diagonalization with overlap
     ethr =  4.61E-05,  avg # of iterations =  2.0

     total cpu time spent up to now is        1.4 secs

     total energy              =     -84.17858510 Ry
     Harris-Foulkes estimate   =     -84.18043629 Ry
     estimated scf accuracy    <       0.00343484 Ry

     iteration #  3     ecut=    45.00 Ry     beta= 0.70
     Davidson diagonalization with overlap
     ethr =  3.12E-05,  avg # of iterations =  2.0

     total cpu time spent up to now is        1.5 secs

     total energy              =     -84.17935873 Ry
     Harris-Foulkes estimate   =     -84.17935810 Ry
     estimated scf accuracy    <       0.00002955 Ry

     iteration #  4     ecut=    45.00 Ry     beta= 0.70
     Davidson diagonalization with overlap
     ethr =  2.69E-07,  avg # of iterations =  2.5

     total cpu time spent up to now is        1.6 secs

     total energy              =     -84.17936753 Ry
     Harris-Foulkes estimate   =     -84.17936743 Ry
     estimated scf accuracy    <       0.00000043 Ry

     iteration #  5     ecut=    45.00 Ry     beta= 0.70
     Davidson diagonalization with overlap
     ethr =  3.89E-09,  avg # of iterations =  2.0

     total cpu time spent up to now is        1.8 secs

     total energy              =     -84.17936765 Ry
     Harris-Foulkes estimate   =     -84.17936767 Ry
     estimated scf accuracy    <       0.00000004 Ry

     iteration #  6     ecut=    45.00 Ry     beta= 0.70
     Davidson diagonalization with overlap
     ethr =  3.80E-10,  avg # of iterations =  2.5

     total cpu time spent up to now is        1.9 secs

     End of self-consistent calculation

          k = 0.0000 0.0000 0.0000 (   561 PWs)   bands (ev):

     4.8093   7.9320   7.9320   7.9320   8.9811   8.9811  29.5470  32.8331
    32.8331  32.8331

          k =-0.1429 0.1429-0.1429 (   576 PWs)   bands (ev):

     5.4150   7.8269   8.0788   8.0788   8.9462   8.9462  27.9991  30.3636
    32.7641  32.7641

          k =-0.2857 0.2857-0.2857 (   592 PWs)   bands (ev):

     6.3559   8.1038   8.1038   8.5224   9.2290   9.2290  22.4433  29.6931
    32.1171  32.1171

          k =-0.4286 0.4286-0.4286 (   589 PWs)   bands (ev):

     6.3199   7.9370   7.9370   9.7074   9.7074  11.2826  17.4415  28.7362
    31.0260  31.0260

          k = 0.0000 0.2857 0.0000 (   572 PWs)   bands (ev):

     5.6197   7.6171   8.2403   8.2403   8.7012   9.1208  29.5763  30.3900
    30.3900  30.6554

          k =-0.1429 0.4286-0.1429 (   584 PWs)   bands (ev):

     6.5785   7.4930   8.1661   8.4324   9.2684   9.3723  24.7041  28.8625
    29.4077  31.3353

          k =-0.2857 0.5714-0.2857 (   590 PWs)   bands (ev):

     6.6611   7.7948   8.2952   8.4244   9.7681  11.5266  19.2735  27.8396
    28.3794  29.7741

          k = 0.5714-0.2857 0.5714 (   582 PWs)   bands (ev):

     6.6320   7.7161   8.1869   8.9144   9.6836  13.4913  16.5953  26.3716
    29.4376  29.4436

          k = 0.4286-0.1429 0.4286 (   591 PWs)   bands (ev):

     6.8070   7.8667   8.2900   8.3401   9.0794  10.8908  21.0551  26.0086
    30.5285  32.1590

          k = 0.2857-0.0000 0.2857 (   576 PWs)   bands (ev):

     6.2818   7.6000   8.2071   8.3362   8.6708   9.4446  26.5017  26.7814
    32.7641  33.1366

          k = 0.0000 0.5714 0.0000 (   584 PWs)   bands (ev):

     6.7244   6.9612   9.0462   9.0462   9.4044   9.4441  26.4611  26.4611
    27.1005  29.6609

          k =-0.1429 0.7143-0.1429 (   587 PWs)   bands (ev):

     6.6903   6.9380   8.8178   9.0903   9.8082  12.0032  21.9653  24.1464
    25.4853  29.6828

          k = 0.7143-0.1429 0.7143 (   589 PWs)   bands (ev):

     6.8214   7.3526   8.3814   8.8951   9.7390  15.7616  17.3522  21.9310
    26.3646  29.5417

          k = 0.5714 0.0000 0.5714 (   584 PWs)   bands (ev):

     7.2250   7.7576   7.8496   8.6987   9.2248  13.5781  20.3996  21.0679
    28.8923  29.8367

          k = 0.0000 0.8571 0.0000 (   592 PWs)   bands (ev):

     6.3423   6.4784   9.7138   9.8604   9.8604  13.0297  20.9028  23.8272
    23.8272  29.7396

          k = 0.8571-0.0000 0.8571 (   598 PWs)   bands (ev):

     6.4412   6.6462   9.3808   9.5410   9.9026  15.2801  19.4269  20.9375
    24.1682  29.7114

          k =-0.2857 0.5714 0.0000 (   584 PWs)   bands (ev):

     7.2197   7.2293   7.9256   9.0397   9.1014  11.0659  23.5312  23.7403
    27.6254  32.9180

          k = 0.5714-0.2857 0.8571 (   577 PWs)   bands (ev):

     7.1058   7.4360   8.0214   8.7772   9.6382  14.0525  18.5024  23.7451
    25.2580  32.3412

          k = 0.7143-0.1429 1.0000 (   590 PWs)   bands (ev):

     6.7608   6.8697   8.6219   9.3876   9.8567  14.6889  21.0584  21.5843
    22.1394  32.4065

          k = 0.5714 0.0000 0.8571 (   592 PWs)   bands (ev):

     7.0104   7.3768   7.9881   9.0106   9.8506  17.4477  18.0833  20.0322
    23.0524  33.0280

     the Fermi energy is    13.0094 ev

!    total energy              =     -84.17936766 Ry
     Harris-Foulkes estimate   =     -84.17936766 Ry
     estimated scf accuracy    <          1.6E-09 Ry

     The total energy is the sum of the following terms:

     one-electron contribution =      -4.73792920 Ry
     hartree contribution      =      14.56018041 Ry
     xc contribution           =     -22.14034207 Ry
     ewald contribution        =     -71.86118027 Ry
     smearing contrib. (-TS)   =      -0.00009653 Ry

     convergence has been achieved in   6 iterations

     Forces acting on atoms (cartesian axes, Ry/au):

     atom    1 type  1   force =     0.00000000    0.00000000    0.00000000

     Total force =     0.000000     Total SCF correction =     0.000000


     Computing stress (Cartesian axis) and pressure

          total   stress  (Ry/bohr**3)                   (kbar)     P=  -30.89
  -0.00020997   0.00000000   0.00000000        -30.89      0.00      0.00
   0.00000000  -0.00020997   0.00000000          0.00    -30.89      0.00
   0.00000000   0.00000000  -0.00020997          0.00      0.00    -30.89


     Writing output data file Ag.save/

     init_run     :      0.19s CPU      0.20s WALL (       1 calls)
     electrons    :      0.95s CPU      1.02s WALL (       1 calls)
     forces       :      0.03s CPU      0.03s WALL (       1 calls)
     stress       :      0.11s CPU      0.11s WALL (       1 calls)

     Called by init_run:
     wfcinit      :      0.04s CPU      0.05s WALL (       1 calls)
     potinit      :      0.01s CPU      0.01s WALL (       1 calls)
     hinit0       :      0.13s CPU      0.14s WALL (       1 calls)

     Called by electrons:
     c_bands      :      0.72s CPU      0.78s WALL (       7 calls)
     sum_band     :      0.17s CPU      0.19s WALL (       7 calls)
     v_of_rho     :      0.02s CPU      0.02s WALL (       7 calls)
     newd         :      0.03s CPU      0.03s WALL (       7 calls)
     mix_rho      :      0.00s CPU      0.00s WALL (       7 calls)

     Called by c_bands:
     init_us_2    :      0.03s CPU      0.03s WALL (     340 calls)
     cegterg      :      0.69s CPU      0.75s WALL (     140 calls)

     Called by sum_band:
     sum_band:bec :      0.00s CPU      0.00s WALL (     140 calls)
     addusdens    :      0.03s CPU      0.03s WALL (       7 calls)

     Called by *egterg:
     h_psi        :      0.53s CPU      0.57s WALL (     520 calls)
     s_psi        :      0.02s CPU      0.02s WALL (     520 calls)
     g_psi        :      0.00s CPU      0.00s WALL (     360 calls)
     cdiaghg      :      0.09s CPU      0.10s WALL (     480 calls)

     Called by h_psi:
     h_psi:pot    :      0.53s CPU      0.57s WALL (     520 calls)
     h_psi:calbec :      0.03s CPU      0.03s WALL (     520 calls)
     vloc_psi     :      0.48s CPU      0.52s WALL (     520 calls)
     add_vuspsi   :      0.02s CPU      0.02s WALL (     520 calls)

     General routines
     calbec       :      0.04s CPU      0.05s WALL (     760 calls)
     fft          :      0.02s CPU      0.02s WALL (     104 calls)
     ffts         :      0.00s CPU      0.00s WALL (       7 calls)
     fftw         :      0.55s CPU      0.60s WALL (    8706 calls)

     Parallel routines
     fft_scatt_xy :      0.05s CPU      0.06s WALL (    8817 calls)
     fft_scatt_yz :      0.18s CPU      0.20s WALL (    8817 calls)

     PWSCF        :     2.02s CPU         2.15s WALL


   This run was terminated on:   0:19:44  27Mar2024            

=------------------------------------------------------------------------------=
   JOB DONE.
=------------------------------------------------------------------------------=
