
     Program PWSCF v.6.3MaX starts on 27Mar2024 at  0: 4:41 

     This program is part of the open-source Quantum ESPRESSO suite
     for quantum simulation of materials; please cite
         "P. Giannozzi et al., J. Phys.:Condens. Matter 21 395502 (2009);
         "P. Giannozzi et al., J. Phys.:Condens. Matter 29 465901 (2017);
          URL http://www.quantum-espresso.org", 
     in publications or presentations arising from this work. More details at
     http://www.quantum-espresso.org/quote

     Parallel version (MPI), running on     5 processors

     MPI processes distributed on     1 nodes
     R & G space division:  proc/nbgrp/npool/nimage =       5
     Waiting for input...
     Reading input from standard input

     Current dimensions of program PWSCF are:
     Max number of different atomic species (ntypx) = 10
     Max number of k-points (npk) =  40000
     Max angular momentum in pseudopotentials (lmaxx) =  3

     Subspace diagonalization in iterative solution of the eigenvalue problem:
     a serial algorithm will be used


     Parallelization info
     --------------------
     sticks:   dense  smooth     PW     G-vecs:    dense   smooth      PW
     Min          17      17      3                  106      106      11
     Max          17      17      4                  107      107      12
     Sum          85      85     19                  531      531      59



     bravais-lattice index     =            2
     lattice parameter (alat)  =       7.7200  a.u.
     unit-cell volume          =     115.0249 (a.u.)^3
     number of atoms/cell      =            1
     number of atomic types    =            1
     number of electrons       =        11.00
     number of Kohn-Sham states=           10
     kinetic-energy cutoff     =      10.0000  Ry
     charge density cutoff     =      40.0000  Ry
     convergence threshold     =      1.0E-08
     mixing beta               =       0.7000
     number of iterations used =            8  plain     mixing
     Exchange-correlation      = PBE ( 1  4  3  4 0 0)

     celldm(1)=   7.720000  celldm(2)=   0.000000  celldm(3)=   0.000000
     celldm(4)=   0.000000  celldm(5)=   0.000000  celldm(6)=   0.000000

     crystal axes: (cart. coord. in units of alat)
               a(1) = (  -0.500000   0.000000   0.500000 )  
               a(2) = (   0.000000   0.500000   0.500000 )  
               a(3) = (  -0.500000   0.500000   0.000000 )  

     reciprocal axes: (cart. coord. in units 2 pi/alat)
               b(1) = ( -1.000000 -1.000000  1.000000 )  
               b(2) = (  1.000000  1.000000  1.000000 )  
               b(3) = ( -1.000000  1.000000 -1.000000 )  


     PseudoPot. # 1 for Ag read from file:
     /home/lorenzo/pseudos/Ag/Ag.pbe-n-rrkjus_psl.1.0.0.UPF
     MD5 check sum: d841cbfac2b0861aec33b46768a516bf
     Pseudo is Ultrasoft + core correction, Zval = 11.0
     Generated using "atomic" code by A. Dal Corso v.6.2.2
     Using radial grid of 1237 points,  6 beta functions with: 
                l(1) =   0
                l(2) =   0
                l(3) =   1
                l(4) =   1
                l(5) =   2
                l(6) =   2
     Q(r) pseudized with 0 coefficients 


     atomic species   valence    mass     pseudopotential
        Ag            11.00   107.86820     Ag( 1.00)

     48 Sym. Ops., with inversion, found



   Cartesian axes

     site n.     atom                  positions (alat units)
         1           Ag  tau(   1) = (   0.0000000   0.0000000   0.0000000  )

     number of k points=     1  gaussian smearing, width (Ry)=  0.0100
                       cart. coord. in units 2pi/alat
        k(    1) = (   0.0000000   0.0000000   0.0000000), wk =   2.0000000

     Dense  grid:      531 G-vectors     FFT dimensions: (  12,  12,  12)

     Estimated max dynamical RAM per process >       1.03 MB

     Estimated total dynamical RAM >       5.17 MB

     Initial potential from superposition of free atoms
     Check: negative starting charge=   -0.000240

     starting charge   10.99960, renormalised to   11.00000

     negative rho (up, down):  2.404E-04 0.000E+00
     Starting wfcs are    9 randomized atomic wfcs +    1 random wfcs

     total cpu time spent up to now is        0.8 secs

     Self-consistent Calculation

     iteration #  1     ecut=    10.00 Ry     beta= 0.70
     Davidson diagonalization with overlap
     ethr =  1.00E-02,  avg # of iterations =  5.0

     total cpu time spent up to now is        0.8 secs

     total energy              =     -70.84879991 Ry
     Harris-Foulkes estimate   =     -77.32767109 Ry
     estimated scf accuracy    <       8.48480995 Ry

     iteration #  2     ecut=    10.00 Ry     beta= 0.70
     Davidson diagonalization with overlap
     ethr =  1.00E-02,  avg # of iterations =  3.0

     negative rho (up, down):  3.292E-05 0.000E+00

     total cpu time spent up to now is        0.8 secs

     total energy              =     -72.31237327 Ry
     Harris-Foulkes estimate   =     -72.30492554 Ry
     estimated scf accuracy    <       0.19579300 Ry

     iteration #  3     ecut=    10.00 Ry     beta= 0.70
     Davidson diagonalization with overlap
     ethr =  1.78E-03,  avg # of iterations =  1.0

     negative rho (up, down):  1.994E-04 0.000E+00

     total cpu time spent up to now is        0.8 secs

     total energy              =     -72.31311000 Ry
     Harris-Foulkes estimate   =     -72.31300028 Ry
     estimated scf accuracy    <       0.01731234 Ry

     iteration #  4     ecut=    10.00 Ry     beta= 0.70
     Davidson diagonalization with overlap
     ethr =  1.57E-04,  avg # of iterations =  2.0

     negative rho (up, down):  2.012E-04 0.000E+00

     total cpu time spent up to now is        0.8 secs

     total energy              =     -72.31382874 Ry
     Harris-Foulkes estimate   =     -72.31382307 Ry
     estimated scf accuracy    <       0.00008821 Ry

     iteration #  5     ecut=    10.00 Ry     beta= 0.70
     Davidson diagonalization with overlap
     ethr =  8.02E-07,  avg # of iterations =  2.0

     negative rho (up, down):  1.816E-04 0.000E+00

     total cpu time spent up to now is        0.8 secs

     total energy              =     -72.31382522 Ry
     Harris-Foulkes estimate   =     -72.31383557 Ry
     estimated scf accuracy    <       0.00011643 Ry

     iteration #  6     ecut=    10.00 Ry     beta= 0.70
     Davidson diagonalization with overlap
     ethr =  8.02E-07,  avg # of iterations =  1.0

     negative rho (up, down):  1.535E-04 0.000E+00

     total cpu time spent up to now is        0.8 secs

     total energy              =     -72.31379524 Ry
     Harris-Foulkes estimate   =     -72.31382545 Ry
     estimated scf accuracy    <       0.00007523 Ry

     iteration #  7     ecut=    10.00 Ry     beta= 0.70
     Davidson diagonalization with overlap
     ethr =  6.84E-07,  avg # of iterations =  1.0

     negative rho (up, down):  1.587E-04 0.000E+00

     total cpu time spent up to now is        0.8 secs

     total energy              =     -72.31379846 Ry
     Harris-Foulkes estimate   =     -72.31379812 Ry
     estimated scf accuracy    <       0.00000898 Ry

     iteration #  8     ecut=    10.00 Ry     beta= 0.70
     Davidson diagonalization with overlap
     ethr =  8.16E-08,  avg # of iterations =  3.0

     negative rho (up, down):  1.619E-04 0.000E+00

     total cpu time spent up to now is        0.8 secs

     total energy              =     -72.31379976 Ry
     Harris-Foulkes estimate   =     -72.31379965 Ry
     estimated scf accuracy    <       0.00000505 Ry

     iteration #  9     ecut=    10.00 Ry     beta= 0.70
     Davidson diagonalization with overlap
     ethr =  4.59E-08,  avg # of iterations =  1.0

     negative rho (up, down):  1.763E-04 0.000E+00

     total cpu time spent up to now is        0.8 secs

     total energy              =     -72.31379967 Ry
     Harris-Foulkes estimate   =     -72.31379978 Ry
     estimated scf accuracy    <       0.00000344 Ry

     iteration # 10     ecut=    10.00 Ry     beta= 0.70
     Davidson diagonalization with overlap
     ethr =  3.13E-08,  avg # of iterations =  1.0

     negative rho (up, down):  1.797E-04 0.000E+00

     total cpu time spent up to now is        0.8 secs

     total energy              =     -72.31379992 Ry
     Harris-Foulkes estimate   =     -72.31379996 Ry
     estimated scf accuracy    <       0.00000007 Ry

     iteration # 11     ecut=    10.00 Ry     beta= 0.70
     Davidson diagonalization with overlap
     ethr =  6.05E-10,  avg # of iterations =  4.0

     negative rho (up, down):  1.780E-04 0.000E+00

     total cpu time spent up to now is        0.8 secs

     total energy              =     -72.31380006 Ry
     Harris-Foulkes estimate   =     -72.31380008 Ry
     estimated scf accuracy    <       0.00000003 Ry

     iteration # 12     ecut=    10.00 Ry     beta= 0.70
     Davidson diagonalization with overlap
     ethr =  2.95E-10,  avg # of iterations =  2.0

     negative rho (up, down):  1.784E-04 0.000E+00

     total cpu time spent up to now is        0.8 secs

     End of self-consistent calculation

          k = 0.0000 0.0000 0.0000 (    59 PWs)   bands (ev):

     2.8084  11.3551  11.3551  11.3551  14.9756  14.9756  28.4144  28.4144
    28.4144  33.9792

     the Fermi energy is    15.0405 ev

!    total energy              =     -72.31380007 Ry
     Harris-Foulkes estimate   =     -72.31380007 Ry
     estimated scf accuracy    <          2.1E-09 Ry

     The total energy is the sum of the following terms:

     one-electron contribution =      14.26128440 Ry
     hartree contribution      =       4.72745028 Ry
     xc contribution           =     -19.43236650 Ry
     ewald contribution        =     -71.86118018 Ry
     smearing contrib. (-TS)   =      -0.00898808 Ry

     convergence has been achieved in  12 iterations

     negative rho (up, down):  1.784E-04 0.000E+00

     Forces acting on atoms (cartesian axes, Ry/au):

     atom    1 type  1   force =     0.00000000    0.00000000    0.00000000

     Total force =     0.000000     Total SCF correction =     0.000000


     Computing stress (Cartesian axis) and pressure


     negative rho (up, down):  1.784E-04 0.000E+00
          total   stress  (Ry/bohr**3)                   (kbar)     P=********
  -0.12263006   0.00000000   0.00000000     -18039.50      0.00      0.00
   0.00000000  -0.12263006  -0.00000000          0.00 -18039.50     -0.00
   0.00000000  -0.00000000  -0.12263006          0.00     -0.00 -18039.50


     Writing output data file Ag.save/

     init_run     :      0.06s CPU      0.06s WALL (       1 calls)
     electrons    :      0.05s CPU      0.06s WALL (       1 calls)
     forces       :      0.01s CPU      0.01s WALL (       1 calls)
     stress       :      0.01s CPU      0.01s WALL (       1 calls)

     Called by init_run:
     wfcinit      :      0.00s CPU      0.00s WALL (       1 calls)
     potinit      :      0.00s CPU      0.00s WALL (       1 calls)
     hinit0       :      0.06s CPU      0.06s WALL (       1 calls)

     Called by electrons:
     c_bands      :      0.02s CPU      0.02s WALL (      12 calls)
     sum_band     :      0.01s CPU      0.01s WALL (      12 calls)
     v_of_rho     :      0.01s CPU      0.01s WALL (      13 calls)
     newd         :      0.01s CPU      0.01s WALL (      13 calls)
     mix_rho      :      0.00s CPU      0.00s WALL (      12 calls)

     Called by c_bands:
     init_us_2    :      0.00s CPU      0.00s WALL (      25 calls)
     cegterg      :      0.02s CPU      0.02s WALL (      12 calls)

     Called by sum_band:
     sum_band:bec :      0.00s CPU      0.00s WALL (      12 calls)
     addusdens    :      0.01s CPU      0.01s WALL (      12 calls)

     Called by *egterg:
     h_psi        :      0.01s CPU      0.01s WALL (      39 calls)
     s_psi        :      0.00s CPU      0.00s WALL (      39 calls)
     g_psi        :      0.00s CPU      0.00s WALL (      26 calls)
     cdiaghg      :      0.01s CPU      0.01s WALL (      38 calls)

     Called by h_psi:
     h_psi:pot    :      0.01s CPU      0.01s WALL (      39 calls)
     h_psi:calbec :      0.00s CPU      0.00s WALL (      39 calls)
     vloc_psi     :      0.01s CPU      0.01s WALL (      39 calls)
     add_vuspsi   :      0.00s CPU      0.00s WALL (      39 calls)

     General routines
     calbec       :      0.00s CPU      0.00s WALL (      56 calls)
     fft          :      0.00s CPU      0.00s WALL (     169 calls)
     ffts         :      0.00s CPU      0.00s WALL (      12 calls)
     fftw         :      0.01s CPU      0.01s WALL (     724 calls)

     Parallel routines
     fft_scatt_xy :      0.00s CPU      0.00s WALL (     905 calls)
     fft_scatt_yz :      0.01s CPU      0.01s WALL (     905 calls)

     PWSCF        :     0.85s CPU         0.91s WALL


   This run was terminated on:   0: 4:42  27Mar2024            

=------------------------------------------------------------------------------=
   JOB DONE.
=------------------------------------------------------------------------------=
