
     Program PWSCF v.6.3MaX starts on 27Mar2024 at  0:21:25 

     This program is part of the open-source Quantum ESPRESSO suite
     for quantum simulation of materials; please cite
         "P. Giannozzi et al., J. Phys.:Condens. Matter 21 395502 (2009);
         "P. Giannozzi et al., J. Phys.:Condens. Matter 29 465901 (2017);
          URL http://www.quantum-espresso.org", 
     in publications or presentations arising from this work. More details at
     http://www.quantum-espresso.org/quote

     Parallel version (MPI), running on     5 processors

     MPI processes distributed on     1 nodes
     R & G space division:  proc/nbgrp/npool/nimage =       5
     Waiting for input...
     Reading input from standard input

     Current dimensions of program PWSCF are:
     Max number of different atomic species (ntypx) = 10
     Max number of k-points (npk) =  40000
     Max angular momentum in pseudopotentials (lmaxx) =  3

     Subspace diagonalization in iterative solution of the eigenvalue problem:
     a serial algorithm will be used


     Parallelization info
     --------------------
     sticks:   dense  smooth     PW     G-vecs:    dense   smooth      PW
     Min          84      84     25                 1115     1115     192
     Max          85      85     26                 1117     1117     195
     Sum         421     421    127                 5577     5577     965



     bravais-lattice index     =            2
     lattice parameter (alat)  =       7.7200  a.u.
     unit-cell volume          =     115.0249 (a.u.)^3
     number of atoms/cell      =            1
     number of atomic types    =            1
     number of electrons       =        11.00
     number of Kohn-Sham states=           10
     kinetic-energy cutoff     =      50.0000  Ry
     charge density cutoff     =     200.0000  Ry
     convergence threshold     =      1.0E-08
     mixing beta               =       0.7000
     number of iterations used =            8  plain     mixing
     Exchange-correlation      = PBESOL ( 1  4 10  8 0 0)

     celldm(1)=   7.720000  celldm(2)=   0.000000  celldm(3)=   0.000000
     celldm(4)=   0.000000  celldm(5)=   0.000000  celldm(6)=   0.000000

     crystal axes: (cart. coord. in units of alat)
               a(1) = (  -0.500000   0.000000   0.500000 )  
               a(2) = (   0.000000   0.500000   0.500000 )  
               a(3) = (  -0.500000   0.500000   0.000000 )  

     reciprocal axes: (cart. coord. in units 2 pi/alat)
               b(1) = ( -1.000000 -1.000000  1.000000 )  
               b(2) = (  1.000000  1.000000  1.000000 )  
               b(3) = ( -1.000000  1.000000 -1.000000 )  


     PseudoPot. # 1 for Ag read from file:
     /home/lorenzo/pseudos/Ag/Ag.pbesol-n-rrkjus_psl.1.0.0.UPF
     MD5 check sum: 3b43e8aa747a56f565f44d11355b8b45
     Pseudo is Ultrasoft + core correction, Zval = 11.0
     Generated using "atomic" code by A. Dal Corso v.6.2.2
     Using radial grid of 1237 points,  6 beta functions with: 
                l(1) =   0
                l(2) =   0
                l(3) =   1
                l(4) =   1
                l(5) =   2
                l(6) =   2
     Q(r) pseudized with 0 coefficients 


     atomic species   valence    mass     pseudopotential
        Ag            11.00   107.86820     Ag( 1.00)

     48 Sym. Ops., with inversion, found



   Cartesian axes

     site n.     atom                  positions (alat units)
         1           Ag  tau(   1) = (   0.0000000   0.0000000   0.0000000  )

     number of k points=     8  gaussian smearing, width (Ry)=  0.0100
                       cart. coord. in units 2pi/alat
        k(    1) = (   0.0000000   0.0000000   0.0000000), wk =   0.0312500
        k(    2) = (  -0.2500000   0.2500000  -0.2500000), wk =   0.2500000
        k(    3) = (   0.5000000  -0.5000000   0.5000000), wk =   0.1250000
        k(    4) = (   0.0000000   0.5000000   0.0000000), wk =   0.1875000
        k(    5) = (   0.7500000  -0.2500000   0.7500000), wk =   0.7500000
        k(    6) = (   0.5000000   0.0000000   0.5000000), wk =   0.3750000
        k(    7) = (   0.0000000  -1.0000000   0.0000000), wk =   0.0937500
        k(    8) = (  -0.5000000  -1.0000000   0.0000000), wk =   0.1875000

     Dense  grid:     5577 G-vectors     FFT dimensions: (  25,  25,  25)

     Estimated max dynamical RAM per process >       5.73 MB

     Estimated total dynamical RAM >      28.63 MB

     Initial potential from superposition of free atoms

     starting charge   10.99964, renormalised to   11.00000
     Starting wfcs are    9 randomized atomic wfcs +    1 random wfcs

     total cpu time spent up to now is        0.9 secs

     Self-consistent Calculation

     iteration #  1     ecut=    50.00 Ry     beta= 0.70
     Davidson diagonalization with overlap
     ethr =  1.00E-02,  avg # of iterations =  5.2

     Threshold (ethr) on eigenvalues was too large:
     Diagonalizing with lowered threshold

     Davidson diagonalization with overlap
     ethr =  4.58E-05,  avg # of iterations =  3.0

     total cpu time spent up to now is        1.1 secs

     total energy              =     -84.16209891 Ry
     Harris-Foulkes estimate   =     -84.16558254 Ry
     estimated scf accuracy    <       0.00547547 Ry

     iteration #  2     ecut=    50.00 Ry     beta= 0.70
     Davidson diagonalization with overlap
     ethr =  4.98E-05,  avg # of iterations =  2.0

     total cpu time spent up to now is        1.2 secs

     total energy              =     -84.16336465 Ry
     Harris-Foulkes estimate   =     -84.16533536 Ry
     estimated scf accuracy    <       0.00364160 Ry

     iteration #  3     ecut=    50.00 Ry     beta= 0.70
     Davidson diagonalization with overlap
     ethr =  3.31E-05,  avg # of iterations =  2.0

     total cpu time spent up to now is        1.2 secs

     total energy              =     -84.16417910 Ry
     Harris-Foulkes estimate   =     -84.16418015 Ry
     estimated scf accuracy    <       0.00002800 Ry

     iteration #  4     ecut=    50.00 Ry     beta= 0.70
     Davidson diagonalization with overlap
     ethr =  2.55E-07,  avg # of iterations =  3.1

     total cpu time spent up to now is        1.3 secs

     total energy              =     -84.16418985 Ry
     Harris-Foulkes estimate   =     -84.16418979 Ry
     estimated scf accuracy    <       0.00000070 Ry

     iteration #  5     ecut=    50.00 Ry     beta= 0.70
     Davidson diagonalization with overlap
     ethr =  6.35E-09,  avg # of iterations =  2.0

     total cpu time spent up to now is        1.4 secs

     total energy              =     -84.16418999 Ry
     Harris-Foulkes estimate   =     -84.16419002 Ry
     estimated scf accuracy    <       0.00000005 Ry

     iteration #  6     ecut=    50.00 Ry     beta= 0.70
     Davidson diagonalization with overlap
     ethr =  4.68E-10,  avg # of iterations =  2.2

     total cpu time spent up to now is        1.4 secs

     End of self-consistent calculation

          k = 0.0000 0.0000 0.0000 (   701 PWs)   bands (ev):

     4.8056   7.9110   7.9110   7.9110   8.9633   8.9633  29.5408  32.8336
    32.8336  32.8336

          k =-0.2500 0.2500-0.2500 (   679 PWs)   bands (ev):

     6.2224   8.1072   8.1163   8.1163   9.0907   9.0907  23.8385  29.9530
    32.3610  32.3610

          k = 0.5000-0.5000 0.5000 (   700 PWs)   bands (ev):

     6.2747   7.8904   7.8904   9.7664   9.7664  12.1920  16.2511  28.5912
    30.8277  30.8277

          k = 0.0000 0.5000 0.0000 (   681 PWs)   bands (ev):

     6.6429   7.1079   8.7958   8.7958   8.8723   9.3403  27.3845  27.3845
    28.4722  29.6287

          k = 0.7500-0.2500 0.7500 (   687 PWs)   bands (ev):

     6.7630   7.3362   8.3793   8.7608   9.8250  13.6516  18.7749  23.8961
    26.3774  29.5158

          k = 0.5000 0.0000 0.5000 (   676 PWs)   bands (ev):

     7.3252   7.5668   7.9487   8.5791   8.9740  12.1171  21.9329  22.0479
    30.2423  30.4954

          k = 0.0000-1.0000 0.0000 (   692 PWs)   bands (ev):

     6.2450   6.3923   9.7366   9.9759   9.9759  14.2120  19.3758  23.4498
    23.4498  29.7424

          k =-0.5000-1.0000 0.0000 (   700 PWs)   bands (ev):

     7.0063   7.6229   7.6229   8.9707   9.9764  18.6008  18.6008  19.6790
    20.8503  36.0132

     the Fermi energy is    13.4850 ev

!    total energy              =     -84.16419000 Ry
     Harris-Foulkes estimate   =     -84.16419001 Ry
     estimated scf accuracy    <          9.4E-10 Ry

     The total energy is the sum of the following terms:

     one-electron contribution =      -4.71207110 Ry
     hartree contribution      =      14.54792050 Ry
     xc contribution           =     -22.13838679 Ry
     ewald contribution        =     -71.86118022 Ry
     smearing contrib. (-TS)   =      -0.00047239 Ry

     convergence has been achieved in   6 iterations

     Forces acting on atoms (cartesian axes, Ry/au):

     atom    1 type  1   force =     0.00000000    0.00000000    0.00000000

     Total force =     0.000000     Total SCF correction =     0.000000


     Computing stress (Cartesian axis) and pressure

          total   stress  (Ry/bohr**3)                   (kbar)     P=  -29.64
  -0.00020148  -0.00000000  -0.00000000        -29.64     -0.00     -0.00
  -0.00000000  -0.00020148   0.00000000         -0.00    -29.64      0.00
  -0.00000000   0.00000000  -0.00020148         -0.00      0.00    -29.64


     Writing output data file Ag.save/

     init_run     :      0.17s CPU      0.18s WALL (       1 calls)
     electrons    :      0.48s CPU      0.51s WALL (       1 calls)
     forces       :      0.03s CPU      0.03s WALL (       1 calls)
     stress       :      0.07s CPU      0.07s WALL (       1 calls)

     Called by init_run:
     wfcinit      :      0.02s CPU      0.02s WALL (       1 calls)
     potinit      :      0.01s CPU      0.01s WALL (       1 calls)
     hinit0       :      0.14s CPU      0.14s WALL (       1 calls)

     Called by electrons:
     c_bands      :      0.33s CPU      0.35s WALL (       7 calls)
     sum_band     :      0.10s CPU      0.10s WALL (       7 calls)
     v_of_rho     :      0.02s CPU      0.02s WALL (       7 calls)
     newd         :      0.03s CPU      0.04s WALL (       7 calls)
     mix_rho      :      0.00s CPU      0.00s WALL (       7 calls)

     Called by c_bands:
     init_us_2    :      0.01s CPU      0.01s WALL (     136 calls)
     cegterg      :      0.32s CPU      0.33s WALL (      56 calls)

     Called by sum_band:
     sum_band:bec :      0.00s CPU      0.00s WALL (      56 calls)
     addusdens    :      0.04s CPU      0.04s WALL (       7 calls)

     Called by *egterg:
     h_psi        :      0.25s CPU      0.26s WALL (     221 calls)
     s_psi        :      0.01s CPU      0.01s WALL (     221 calls)
     g_psi        :      0.00s CPU      0.00s WALL (     157 calls)
     cdiaghg      :      0.04s CPU      0.04s WALL (     205 calls)

     Called by h_psi:
     h_psi:pot    :      0.24s CPU      0.26s WALL (     221 calls)
     h_psi:calbec :      0.01s CPU      0.01s WALL (     221 calls)
     vloc_psi     :      0.22s CPU      0.24s WALL (     221 calls)
     add_vuspsi   :      0.01s CPU      0.01s WALL (     221 calls)

     General routines
     calbec       :      0.02s CPU      0.02s WALL (     317 calls)
     fft          :      0.02s CPU      0.02s WALL (     104 calls)
     ffts         :      0.00s CPU      0.00s WALL (       7 calls)
     fftw         :      0.25s CPU      0.26s WALL (    3492 calls)

     Parallel routines
     fft_scatt_xy :      0.02s CPU      0.02s WALL (    3603 calls)
     fft_scatt_yz :      0.06s CPU      0.06s WALL (    3603 calls)

     PWSCF        :     1.48s CPU         1.56s WALL


   This run was terminated on:   0:21:27  27Mar2024            

=------------------------------------------------------------------------------=
   JOB DONE.
=------------------------------------------------------------------------------=
