
     Program PWSCF v.6.3MaX starts on 27Mar2024 at  0:25:14 

     This program is part of the open-source Quantum ESPRESSO suite
     for quantum simulation of materials; please cite
         "P. Giannozzi et al., J. Phys.:Condens. Matter 21 395502 (2009);
         "P. Giannozzi et al., J. Phys.:Condens. Matter 29 465901 (2017);
          URL http://www.quantum-espresso.org", 
     in publications or presentations arising from this work. More details at
     http://www.quantum-espresso.org/quote

     Parallel version (MPI), running on     5 processors

     MPI processes distributed on     1 nodes
     R & G space division:  proc/nbgrp/npool/nimage =       5
     Waiting for input...
     Reading input from standard input

     Current dimensions of program PWSCF are:
     Max number of different atomic species (ntypx) = 10
     Max number of k-points (npk) =  40000
     Max angular momentum in pseudopotentials (lmaxx) =  3

     Subspace diagonalization in iterative solution of the eigenvalue problem:
     a serial algorithm will be used


     Parallelization info
     --------------------
     sticks:   dense  smooth     PW     G-vecs:    dense   smooth      PW
     Min          99      99     32                 1446     1446     272
     Max         100     100     33                 1449     1449     273
     Sum         499     499    163                 7239     7239    1363



     bravais-lattice index     =            2
     lattice parameter (alat)  =       7.7200  a.u.
     unit-cell volume          =     115.0249 (a.u.)^3
     number of atoms/cell      =            1
     number of atomic types    =            1
     number of electrons       =        11.00
     number of Kohn-Sham states=           10
     kinetic-energy cutoff     =      60.0000  Ry
     charge density cutoff     =     240.0000  Ry
     convergence threshold     =      1.0E-08
     mixing beta               =       0.7000
     number of iterations used =            8  plain     mixing
     Exchange-correlation      = PBESOL ( 1  4 10  8 0 0)

     celldm(1)=   7.720000  celldm(2)=   0.000000  celldm(3)=   0.000000
     celldm(4)=   0.000000  celldm(5)=   0.000000  celldm(6)=   0.000000

     crystal axes: (cart. coord. in units of alat)
               a(1) = (  -0.500000   0.000000   0.500000 )  
               a(2) = (   0.000000   0.500000   0.500000 )  
               a(3) = (  -0.500000   0.500000   0.000000 )  

     reciprocal axes: (cart. coord. in units 2 pi/alat)
               b(1) = ( -1.000000 -1.000000  1.000000 )  
               b(2) = (  1.000000  1.000000  1.000000 )  
               b(3) = ( -1.000000  1.000000 -1.000000 )  


     PseudoPot. # 1 for Ag read from file:
     /home/lorenzo/pseudos/Ag/Ag.pbesol-n-rrkjus_psl.1.0.0.UPF
     MD5 check sum: 3b43e8aa747a56f565f44d11355b8b45
     Pseudo is Ultrasoft + core correction, Zval = 11.0
     Generated using "atomic" code by A. Dal Corso v.6.2.2
     Using radial grid of 1237 points,  6 beta functions with: 
                l(1) =   0
                l(2) =   0
                l(3) =   1
                l(4) =   1
                l(5) =   2
                l(6) =   2
     Q(r) pseudized with 0 coefficients 


     atomic species   valence    mass     pseudopotential
        Ag            11.00   107.86820     Ag( 1.00)

     48 Sym. Ops., with inversion, found



   Cartesian axes

     site n.     atom                  positions (alat units)
         1           Ag  tau(   1) = (   0.0000000   0.0000000   0.0000000  )

     number of k points=    47  gaussian smearing, width (Ry)=  0.0100
                       cart. coord. in units 2pi/alat
        k(    1) = (   0.0000000   0.0000000   0.0000000), wk =   0.0020000
        k(    2) = (  -0.1000000   0.1000000  -0.1000000), wk =   0.0160000
        k(    3) = (  -0.2000000   0.2000000  -0.2000000), wk =   0.0160000
        k(    4) = (  -0.3000000   0.3000000  -0.3000000), wk =   0.0160000
        k(    5) = (  -0.4000000   0.4000000  -0.4000000), wk =   0.0160000
        k(    6) = (   0.5000000  -0.5000000   0.5000000), wk =   0.0080000
        k(    7) = (   0.0000000   0.2000000   0.0000000), wk =   0.0120000
        k(    8) = (  -0.1000000   0.3000000  -0.1000000), wk =   0.0480000
        k(    9) = (  -0.2000000   0.4000000  -0.2000000), wk =   0.0480000
        k(   10) = (  -0.3000000   0.5000000  -0.3000000), wk =   0.0480000
        k(   11) = (   0.6000000  -0.4000000   0.6000000), wk =   0.0480000
        k(   12) = (   0.5000000  -0.3000000   0.5000000), wk =   0.0480000
        k(   13) = (   0.4000000  -0.2000000   0.4000000), wk =   0.0480000
        k(   14) = (   0.3000000  -0.1000000   0.3000000), wk =   0.0480000
        k(   15) = (   0.2000000   0.0000000   0.2000000), wk =   0.0240000
        k(   16) = (   0.0000000   0.4000000   0.0000000), wk =   0.0120000
        k(   17) = (  -0.1000000   0.5000000  -0.1000000), wk =   0.0480000
        k(   18) = (  -0.2000000   0.6000000  -0.2000000), wk =   0.0480000
        k(   19) = (   0.7000000  -0.3000000   0.7000000), wk =   0.0480000
        k(   20) = (   0.6000000  -0.2000000   0.6000000), wk =   0.0480000
        k(   21) = (   0.5000000  -0.1000000   0.5000000), wk =   0.0480000
        k(   22) = (   0.4000000   0.0000000   0.4000000), wk =   0.0240000
        k(   23) = (   0.0000000   0.6000000   0.0000000), wk =   0.0120000
        k(   24) = (  -0.1000000   0.7000000  -0.1000000), wk =   0.0480000
        k(   25) = (   0.8000000  -0.2000000   0.8000000), wk =   0.0480000
        k(   26) = (   0.7000000  -0.1000000   0.7000000), wk =   0.0480000
        k(   27) = (   0.6000000  -0.0000000   0.6000000), wk =   0.0240000
        k(   28) = (   0.0000000   0.8000000   0.0000000), wk =   0.0120000
        k(   29) = (   0.9000000  -0.1000000   0.9000000), wk =   0.0480000
        k(   30) = (   0.8000000   0.0000000   0.8000000), wk =   0.0240000
        k(   31) = (   0.0000000  -1.0000000   0.0000000), wk =   0.0060000
        k(   32) = (  -0.2000000   0.4000000   0.0000000), wk =   0.0480000
        k(   33) = (  -0.3000000   0.5000000  -0.1000000), wk =   0.0960000
        k(   34) = (   0.6000000  -0.4000000   0.8000000), wk =   0.0960000
        k(   35) = (   0.5000000  -0.3000000   0.7000000), wk =   0.0480000
        k(   36) = (  -0.2000000   0.6000000   0.0000000), wk =   0.0480000
        k(   37) = (   0.7000000  -0.3000000   0.9000000), wk =   0.0960000
        k(   38) = (   0.6000000  -0.2000000   0.8000000), wk =   0.0960000
        k(   39) = (   0.5000000  -0.1000000   0.7000000), wk =   0.0960000
        k(   40) = (   0.4000000   0.0000000   0.6000000), wk =   0.0480000
        k(   41) = (   0.8000000  -0.2000000   1.0000000), wk =   0.0480000
        k(   42) = (   0.7000000  -0.1000000   0.9000000), wk =   0.0960000
        k(   43) = (   0.6000000   0.0000000   0.8000000), wk =   0.0480000
        k(   44) = (  -0.2000000  -1.0000000   0.0000000), wk =   0.0240000
        k(   45) = (   0.6000000  -0.2000000   1.0000000), wk =   0.0480000
        k(   46) = (   0.5000000  -0.1000000   0.9000000), wk =   0.0480000
        k(   47) = (  -0.4000000  -1.0000000   0.0000000), wk =   0.0240000

     Dense  grid:     7239 G-vectors     FFT dimensions: (  27,  27,  27)

     Estimated max dynamical RAM per process >       8.24 MB

     Estimated total dynamical RAM >      41.21 MB

     Initial potential from superposition of free atoms

     starting charge   10.99964, renormalised to   11.00000
     Starting wfcs are    9 randomized atomic wfcs +    1 random wfcs

     total cpu time spent up to now is        1.1 secs

     Self-consistent Calculation

     iteration #  1     ecut=    60.00 Ry     beta= 0.70
     Davidson diagonalization with overlap
     ethr =  1.00E-02,  avg # of iterations =  4.6

     Threshold (ethr) on eigenvalues was too large:
     Diagonalizing with lowered threshold

     Davidson diagonalization with overlap
     ethr =  4.14E-05,  avg # of iterations =  2.4

     total cpu time spent up to now is        2.7 secs

     total energy              =     -84.17838108 Ry
     Harris-Foulkes estimate   =     -84.18156709 Ry
     estimated scf accuracy    <       0.00493484 Ry

     iteration #  2     ecut=    60.00 Ry     beta= 0.70
     Davidson diagonalization with overlap
     ethr =  4.49E-05,  avg # of iterations =  2.0

     total cpu time spent up to now is        3.5 secs

     total energy              =     -84.17952378 Ry
     Harris-Foulkes estimate   =     -84.18139619 Ry
     estimated scf accuracy    <       0.00349446 Ry

     iteration #  3     ecut=    60.00 Ry     beta= 0.70
     Davidson diagonalization with overlap
     ethr =  3.18E-05,  avg # of iterations =  2.1

     total cpu time spent up to now is        3.9 secs

     total energy              =     -84.18029461 Ry
     Harris-Foulkes estimate   =     -84.18029638 Ry
     estimated scf accuracy    <       0.00002457 Ry

     iteration #  4     ecut=    60.00 Ry     beta= 0.70
     Davidson diagonalization with overlap
     ethr =  2.23E-07,  avg # of iterations =  2.6

     total cpu time spent up to now is        4.4 secs

     total energy              =     -84.18030255 Ry
     Harris-Foulkes estimate   =     -84.18030252 Ry
     estimated scf accuracy    <       0.00000044 Ry

     iteration #  5     ecut=    60.00 Ry     beta= 0.70
     Davidson diagonalization with overlap
     ethr =  4.04E-09,  avg # of iterations =  2.1

     total cpu time spent up to now is        4.8 secs

     total energy              =     -84.18030265 Ry
     Harris-Foulkes estimate   =     -84.18030267 Ry
     estimated scf accuracy    <       0.00000004 Ry

     iteration #  6     ecut=    60.00 Ry     beta= 0.70
     Davidson diagonalization with overlap
     ethr =  3.95E-10,  avg # of iterations =  1.9

     total cpu time spent up to now is        5.2 secs

     End of self-consistent calculation

          k = 0.0000 0.0000 0.0000 (   893 PWs)   bands (ev):

     4.8085   7.9268   7.9268   7.9268   8.9781   8.9781  29.5455  32.8328
    32.8328  32.8328

          k =-0.1000 0.1000-0.1000 (   914 PWs)   bands (ev):

     5.1158   7.8609   8.0093   8.0093   8.9500   8.9500  29.1927  30.7445
    32.8110  32.8110

          k =-0.2000 0.2000-0.2000 (   914 PWs)   bands (ev):

     5.8873   7.8552   8.1340   8.1340   8.9875   8.9875  25.8248  30.2144
    32.6140  32.6140

          k =-0.3000 0.3000-0.3000 (   905 PWs)   bands (ev):

     6.3762   8.0829   8.0829   8.7293   9.2785   9.2785  21.8899  29.5788
    32.0034  32.0034

          k =-0.4000 0.4000-0.4000 (   899 PWs)   bands (ev):

     6.3405   7.9589   7.9589   9.6321   9.6321  10.6779  18.3009  28.8691
    31.1967  31.1967

          k = 0.5000-0.5000 0.5000 (   886 PWs)   bands (ev):

     6.2870   7.9044   7.9044   9.7840   9.7840  12.1934  16.2606  28.5913
    30.8332  30.8332

          k = 0.0000 0.2000 0.0000 (   909 PWs)   bands (ev):

     5.2190   7.7651   8.0799   8.0799   8.8218   9.0484  29.5597  31.4350
    31.4939  31.4939

          k =-0.1000 0.3000-0.1000 (   907 PWs)   bands (ev):

     5.8575   7.6191   8.2241   8.2444   8.7820   9.1364  27.3474  29.9429
    30.4532  32.7104

          k =-0.2000 0.4000-0.2000 (   906 PWs)   bands (ev):

     6.5128   7.8471   8.1019   8.2703   9.3595   9.3812  23.3792  29.4675
    29.6924  32.2322

          k =-0.3000 0.5000-0.3000 (   904 PWs)   bands (ev):

     6.5407   7.8996   8.1580   8.6607   9.6867  10.7854  19.5982  28.7096
    29.3234  30.6118

          k = 0.6000-0.4000 0.6000 (   903 PWs)   bands (ev):

     6.4635   7.7998   8.0599   9.1788   9.7943  12.7351  16.6426  27.9929
    29.5935  29.6576

          k = 0.5000-0.3000 0.5000 (   897 PWs)   bands (ev):

     6.4940   7.8365   8.0578   9.2003   9.5936  12.1705  17.4552  27.5480
    29.6530  30.7000

          k = 0.4000-0.2000 0.4000 (   899 PWs)   bands (ev):

     6.5979   7.9601   8.1610   8.6001   9.1745  10.4213  20.8327  27.5570
    30.5006  32.6378

          k = 0.3000-0.1000 0.3000 (   902 PWs)   bands (ev):

     6.3815   7.7193   8.1935   8.2717   8.7873   9.4966  24.7134  27.9494
    31.9032  34.0681

          k = 0.2000 0.0000 0.2000 (   911 PWs)   bands (ev):

     5.5963   7.7274   8.1322   8.1545   8.7934   9.0918  28.4927  28.6649
    32.0185  34.2583

          k = 0.0000 0.4000 0.0000 (   909 PWs)   bands (ev):

     6.2474   7.3603   8.5145   8.5145   8.6157   9.2360  28.7788  28.7788
    29.6046  29.6758

          k =-0.1000 0.5000-0.1000 (   899 PWs)   bands (ev):

     6.7504   7.2129   8.3415   8.6803   9.4370   9.4522  25.1969  27.6373
    28.6499  30.1632

          k =-0.2000 0.6000-0.2000 (   893 PWs)   bands (ev):

     6.7988   7.4803   8.2021   8.6145   9.7299  11.1275  21.3243  26.9053
    27.1384  29.7269

          k = 0.7000-0.3000 0.7000 (   902 PWs)   bands (ev):

     6.7735   7.5802   8.3759   8.4905   9.8227  13.4289  17.8732  25.3516
    27.4362  29.4461

          k = 0.6000-0.2000 0.6000 (   918 PWs)   bands (ev):

     6.8711   7.5991   8.4206   8.4845   9.5957  14.2336  17.0402  24.2889
    28.6029  29.5200

          k = 0.5000-0.1000 0.5000 (   900 PWs)   bands (ev):

     7.0692   7.6964   8.1957   8.4507   9.1418  12.1332  20.2635  23.8568
    30.1209  30.5269

          k = 0.4000 0.0000 0.4000 (   909 PWs)   bands (ev):

     7.1031   7.5035   8.0808   8.5635   8.6657  10.5312  23.8948  24.1907
    31.2705  32.9236

          k = 0.0000 0.6000 0.0000 (   894 PWs)   bands (ev):

     6.7103   6.8926   9.1361   9.1361   9.4749   9.6807  26.1115  26.1115
    26.4696  29.6703

          k =-0.1000 0.7000-0.1000 (   901 PWs)   bands (ev):

     6.6628   6.8103   9.0320   9.2032   9.7378  11.4141  23.2475  24.3394
    25.3140  29.7339

          k = 0.8000-0.2000 0.8000 (   904 PWs)   bands (ev):

     6.6715   7.0315   8.7215   9.0761   9.8632  13.8314  19.8121  22.5544
    25.4240  29.6049

          k = 0.7000-0.1000 0.7000 (   897 PWs)   bands (ev):

     6.8495   7.3847   8.3270   8.9299   9.6607  16.4537  17.0574  21.2201
    26.4743  29.5635

          k = 0.6000-0.0000 0.6000 (   899 PWs)   bands (ev):

     7.1449   7.7722   7.8526   8.7562   9.3093  14.2133  19.8029  20.7539
    28.2833  29.7349

          k = 0.0000 0.8000 0.0000 (   902 PWs)   bands (ev):

     6.4152   6.5368   9.6739   9.7344   9.7344  12.2427  22.0037  24.1744
    24.1744  29.7285

          k = 0.9000-0.1000 0.9000 (   907 PWs)   bands (ev):

     6.3967   6.5491   9.5778   9.5862   9.9225  14.0884  20.2481  22.1677
    23.9844  29.7416

          k = 0.8000 0.0000 0.8000 (   904 PWs)   bands (ev):

     6.5682   6.8774   8.9769   9.3664   9.8095  16.1063  19.1226  19.8037
    24.8179  29.6516

          k = 0.0000-1.0000 0.0000 (   934 PWs)   bands (ev):

     6.2543   6.4055   9.7511   9.9936   9.9936  14.2160  19.3827  23.4529
    23.4529  29.7516

          k =-0.2000 0.4000 0.0000 (   899 PWs)   bands (ev):

     6.5292   7.4292   8.1640   8.5158   8.8227   9.5205  26.2972  26.5737
    31.0990  31.9767

          k =-0.3000 0.5000-0.1000 (   903 PWs)   bands (ev):

     6.9219   7.6774   7.9174   8.5596   9.1927  10.5617  22.4781  25.9141
    29.2620  32.2569

          k = 0.6000-0.4000 0.8000 (   899 PWs)   bands (ev):

     6.8123   7.6906   8.2559   8.5082   9.5927  12.3817  18.8317  25.8873
    27.6600  31.3746

          k = 0.5000-0.3000 0.7000 (   900 PWs)   bands (ev):

     6.7574   7.6022   8.3277   8.6521   9.7243  14.1552  16.4552  26.4289
    26.5421  30.9739

          k =-0.2000 0.6000 0.0000 (   895 PWs)   bands (ev):

     6.9710   7.0321   8.3111   9.1289   9.3282  10.7255  24.2900  24.5042
    26.7124  31.5321

          k = 0.7000-0.3000 0.9000 (   897 PWs)   bands (ev):

     6.9209   7.2581   8.1588   9.0328   9.6455  12.7104  20.7026  24.1799
    24.8757  31.6161

          k = 0.6000-0.2000 0.8000 (   907 PWs)   bands (ev):

     6.9943   7.3991   8.1294   8.8129   9.7438  15.2397  17.4584  23.3243
    24.7947  31.5561

          k = 0.5000-0.1000 0.7000 (   902 PWs)   bands (ev):

     7.2185   7.4358   7.9669   8.7709   9.5357  14.4517  18.5742  22.3907
    25.9501  32.0224

          k = 0.4000 0.0000 0.6000 (   900 PWs)   bands (ev):

     7.4094   7.5221   7.6284   8.8992   9.1428  12.2505  22.0651  22.1412
    27.5098  33.0700

          k = 0.8000-0.2000 1.0000 (   905 PWs)   bands (ev):

     6.6413   6.7219   8.9331   9.5742   9.7306  13.1708  22.0647  22.8624
    23.0281  31.2504

          k = 0.7000-0.1000 0.9000 (   907 PWs)   bands (ev):

     6.7297   6.9707   8.6027   9.2719   9.8789  15.5862  19.5951  20.7730
    23.2921  31.5031

          k = 0.6000 0.0000 0.8000 (   905 PWs)   bands (ev):

     6.9671   7.3771   8.0986   9.0055   9.7266  16.8614  18.0760  20.0534
    24.4057  31.7208

          k =-0.2000-1.0000 0.0000 (   912 PWs)   bands (ev):

     6.4704   6.6066   9.3059   9.5359   9.9942  15.2448  19.4382  22.2251
    22.3754  31.1648

          k = 0.6000-0.2000 1.0000 (   902 PWs)   bands (ev):

     7.1157   7.2639   7.9237   9.1121   9.7230  14.8794  20.4759  20.9975
    23.1672  34.3694

          k = 0.5000-0.1000 0.9000 (   902 PWs)   bands (ev):

     7.1033   7.5007   7.7491   8.9658   9.8664  17.4493  17.6312  21.2774
    22.1492  34.2878

          k =-0.4000-1.0000 0.0000 (   896 PWs)   bands (ev):

     6.9182   7.2015   8.1530   9.0844   9.9952  17.3860  19.6224  19.8602
    21.0733  34.1879

     the Fermi energy is    12.5974 ev

!    total energy              =     -84.18030266 Ry
     Harris-Foulkes estimate   =     -84.18030266 Ry
     estimated scf accuracy    <          3.6E-10 Ry

     The total energy is the sum of the following terms:

     one-electron contribution =      -4.74037458 Ry
     hartree contribution      =      14.56314640 Ry
     xc contribution           =     -22.14168742 Ry
     ewald contribution        =     -71.86118019 Ry
     smearing contrib. (-TS)   =      -0.00020686 Ry

     convergence has been achieved in   6 iterations

     Forces acting on atoms (cartesian axes, Ry/au):

     atom    1 type  1   force =     0.00000000    0.00000000    0.00000000

     Total force =     0.000000     Total SCF correction =     0.000000


     Computing stress (Cartesian axis) and pressure

          total   stress  (Ry/bohr**3)                   (kbar)     P=  -27.34
  -0.00018585  -0.00000000   0.00000000        -27.34     -0.00      0.00
  -0.00000000  -0.00018585   0.00000000         -0.00    -27.34      0.00
   0.00000000   0.00000000  -0.00018585          0.00      0.00    -27.34


     Writing output data file Ag.save/

     init_run     :      0.29s CPU      0.31s WALL (       1 calls)
     electrons    :      3.98s CPU      4.18s WALL (       1 calls)
     forces       :      0.05s CPU      0.06s WALL (       1 calls)
     stress       :      0.16s CPU      0.16s WALL (       1 calls)

     Called by init_run:
     wfcinit      :      0.12s CPU      0.13s WALL (       1 calls)
     potinit      :      0.01s CPU      0.01s WALL (       1 calls)
     hinit0       :      0.15s CPU      0.16s WALL (       1 calls)

     Called by electrons:
     c_bands      :      3.28s CPU      3.44s WALL (       7 calls)
     sum_band     :      0.63s CPU      0.66s WALL (       7 calls)
     v_of_rho     :      0.03s CPU      0.03s WALL (       7 calls)
     newd         :      0.05s CPU      0.05s WALL (       7 calls)
     mix_rho      :      0.00s CPU      0.00s WALL (       7 calls)

     Called by c_bands:
     init_us_2    :      0.10s CPU      0.10s WALL (     799 calls)
     cegterg      :      3.13s CPU      3.29s WALL (     329 calls)

     Called by sum_band:
     sum_band:bec :      0.00s CPU      0.00s WALL (     329 calls)
     addusdens    :      0.05s CPU      0.06s WALL (       7 calls)

     Called by *egterg:
     h_psi        :      2.46s CPU      2.60s WALL (    1208 calls)
     s_psi        :      0.08s CPU      0.09s WALL (    1208 calls)
     g_psi        :      0.01s CPU      0.01s WALL (     832 calls)
     cdiaghg      :      0.29s CPU      0.30s WALL (    1114 calls)

     Called by h_psi:
     h_psi:pot    :      2.45s CPU      2.59s WALL (    1208 calls)
     h_psi:calbec :      0.11s CPU      0.12s WALL (    1208 calls)
     vloc_psi     :      2.24s CPU      2.37s WALL (    1208 calls)
     add_vuspsi   :      0.08s CPU      0.09s WALL (    1208 calls)

     General routines
     calbec       :      0.18s CPU      0.19s WALL (    1772 calls)
     fft          :      0.02s CPU      0.02s WALL (     104 calls)
     ffts         :      0.00s CPU      0.00s WALL (       7 calls)
     fftw         :      2.53s CPU      2.67s WALL (   20204 calls)

     Parallel routines
     fft_scatt_xy :      0.21s CPU      0.23s WALL (   20315 calls)
     fft_scatt_yz :      0.51s CPU      0.53s WALL (   20315 calls)

     PWSCF        :     5.28s CPU         5.56s WALL


   This run was terminated on:   0:25:20  27Mar2024            

=------------------------------------------------------------------------------=
   JOB DONE.
=------------------------------------------------------------------------------=
