
     Program PWSCF v.6.3MaX starts on 27Mar2024 at  0:32:51 

     This program is part of the open-source Quantum ESPRESSO suite
     for quantum simulation of materials; please cite
         "P. Giannozzi et al., J. Phys.:Condens. Matter 21 395502 (2009);
         "P. Giannozzi et al., J. Phys.:Condens. Matter 29 465901 (2017);
          URL http://www.quantum-espresso.org", 
     in publications or presentations arising from this work. More details at
     http://www.quantum-espresso.org/quote

     Parallel version (MPI), running on     5 processors

     MPI processes distributed on     1 nodes
     R & G space division:  proc/nbgrp/npool/nimage =       5
     Waiting for input...
     Reading input from standard input

     Current dimensions of program PWSCF are:
     Max number of different atomic species (ntypx) = 10
     Max number of k-points (npk) =  40000
     Max angular momentum in pseudopotentials (lmaxx) =  3
               file Ag.pbesol-n-kjpaw_psl.1.0.0.UPF: wavefunction(s)  5S 5P renormalized

     Subspace diagonalization in iterative solution of the eigenvalue problem:
     a serial algorithm will be used


     Parallelization info
     --------------------
     sticks:   dense  smooth     PW     G-vecs:    dense   smooth      PW
     Min         116     116     37                 1836     1836     327
     Max         117     117     38                 1838     1838     329
     Sum         583     583    187                 9185     9185    1639



     bravais-lattice index     =            2
     lattice parameter (alat)  =       7.7200  a.u.
     unit-cell volume          =     115.0249 (a.u.)^3
     number of atoms/cell      =            1
     number of atomic types    =            1
     number of electrons       =        11.00
     number of Kohn-Sham states=           10
     kinetic-energy cutoff     =      70.0000  Ry
     charge density cutoff     =     280.0000  Ry
     convergence threshold     =      1.0E-08
     mixing beta               =       0.7000
     number of iterations used =            8  plain     mixing
     Exchange-correlation      = SLA PW PSX PSC ( 1  4 10  8 0 0)

     celldm(1)=   7.720000  celldm(2)=   0.000000  celldm(3)=   0.000000
     celldm(4)=   0.000000  celldm(5)=   0.000000  celldm(6)=   0.000000

     crystal axes: (cart. coord. in units of alat)
               a(1) = (  -0.500000   0.000000   0.500000 )  
               a(2) = (   0.000000   0.500000   0.500000 )  
               a(3) = (  -0.500000   0.500000   0.000000 )  

     reciprocal axes: (cart. coord. in units 2 pi/alat)
               b(1) = ( -1.000000 -1.000000  1.000000 )  
               b(2) = (  1.000000  1.000000  1.000000 )  
               b(3) = ( -1.000000  1.000000 -1.000000 )  


     PseudoPot. # 1 for Ag read from file:
     /home/lorenzo/pseudos/Ag/Ag.pbesol-n-kjpaw_psl.1.0.0.UPF
     MD5 check sum: 3b245e14fa22881b2ac493bfd23f605f
     Pseudo is Projector augmented-wave + core cor, Zval = 11.0
     Generated using "atomic" code by A. Dal Corso v.6.2.2
     Shape of augmentation charge: PSQ
     Using radial grid of 1237 points,  6 beta functions with: 
                l(1) =   0
                l(2) =   0
                l(3) =   1
                l(4) =   1
                l(5) =   2
                l(6) =   2
     Q(r) pseudized with 0 coefficients 


     atomic species   valence    mass     pseudopotential
        Ag            11.00   107.86820     Ag( 1.00)

     48 Sym. Ops., with inversion, found



   Cartesian axes

     site n.     atom                  positions (alat units)
         1           Ag  tau(   1) = (   0.0000000   0.0000000   0.0000000  )

     number of k points=    35  gaussian smearing, width (Ry)=  0.0100
                       cart. coord. in units 2pi/alat
        k(    1) = (   0.0000000   0.0000000   0.0000000), wk =   0.0027435
        k(    2) = (  -0.1111111   0.1111111  -0.1111111), wk =   0.0219479
        k(    3) = (  -0.2222222   0.2222222  -0.2222222), wk =   0.0219479
        k(    4) = (  -0.3333333   0.3333333  -0.3333333), wk =   0.0219479
        k(    5) = (  -0.4444444   0.4444444  -0.4444444), wk =   0.0219479
        k(    6) = (   0.0000000   0.2222222   0.0000000), wk =   0.0164609
        k(    7) = (  -0.1111111   0.3333333  -0.1111111), wk =   0.0658436
        k(    8) = (  -0.2222222   0.4444444  -0.2222222), wk =   0.0658436
        k(    9) = (  -0.3333333   0.5555556  -0.3333333), wk =   0.0658436
        k(   10) = (   0.5555556  -0.3333333   0.5555556), wk =   0.0658436
        k(   11) = (   0.4444444  -0.2222222   0.4444444), wk =   0.0658436
        k(   12) = (   0.3333333  -0.1111111   0.3333333), wk =   0.0658436
        k(   13) = (   0.2222222  -0.0000000   0.2222222), wk =   0.0329218
        k(   14) = (   0.0000000   0.4444444   0.0000000), wk =   0.0164609
        k(   15) = (  -0.1111111   0.5555556  -0.1111111), wk =   0.0658436
        k(   16) = (  -0.2222222   0.6666667  -0.2222222), wk =   0.0658436
        k(   17) = (   0.6666667  -0.2222222   0.6666667), wk =   0.0658436
        k(   18) = (   0.5555556  -0.1111111   0.5555556), wk =   0.0658436
        k(   19) = (   0.4444444   0.0000000   0.4444444), wk =   0.0329218
        k(   20) = (   0.0000000   0.6666667   0.0000000), wk =   0.0164609
        k(   21) = (  -0.1111111   0.7777778  -0.1111111), wk =   0.0658436
        k(   22) = (   0.7777778  -0.1111111   0.7777778), wk =   0.0658436
        k(   23) = (   0.6666667  -0.0000000   0.6666667), wk =   0.0329218
        k(   24) = (   0.0000000   0.8888889   0.0000000), wk =   0.0164609
        k(   25) = (   0.8888889   0.0000000   0.8888889), wk =   0.0329218
        k(   26) = (  -0.2222222   0.4444444   0.0000000), wk =   0.0658436
        k(   27) = (  -0.3333333   0.5555556  -0.1111111), wk =   0.1316872
        k(   28) = (   0.5555556  -0.3333333   0.7777778), wk =   0.1316872
        k(   29) = (  -0.2222222   0.6666667   0.0000000), wk =   0.0658436
        k(   30) = (   0.6666667  -0.2222222   0.8888889), wk =   0.1316872
        k(   31) = (   0.5555556  -0.1111111   0.7777778), wk =   0.1316872
        k(   32) = (   0.4444444   0.0000000   0.6666667), wk =   0.0658436
        k(   33) = (   0.7777778  -0.1111111   1.0000000), wk =   0.0658436
        k(   34) = (   0.6666667  -0.0000000   0.8888889), wk =   0.0658436
        k(   35) = (   0.5555556  -0.1111111   1.0000000), wk =   0.0658436

     Dense  grid:     9185 G-vectors     FFT dimensions: (  30,  30,  30)

     Estimated max dynamical RAM per process >       9.73 MB

     Estimated total dynamical RAM >      48.65 MB

     Initial potential from superposition of free atoms

     starting charge   10.99964, renormalised to   11.00000
     Starting wfcs are    9 randomized atomic wfcs +    1 random wfcs
     Checking if some PAW data can be deallocated... 

     total cpu time spent up to now is        1.2 secs

     Self-consistent Calculation

     iteration #  1     ecut=    70.00 Ry     beta= 0.70
     Davidson diagonalization with overlap
     ethr =  1.00E-02,  avg # of iterations =  4.7

     Threshold (ethr) on eigenvalues was too large:
     Diagonalizing with lowered threshold

     Davidson diagonalization with overlap
     ethr =  4.71E-05,  avg # of iterations =  2.1

     total cpu time spent up to now is        2.3 secs

     total energy              =    -350.23928803 Ry
     Harris-Foulkes estimate   =    -350.24298653 Ry
     estimated scf accuracy    <       0.00558046 Ry

     iteration #  2     ecut=    70.00 Ry     beta= 0.70
     Davidson diagonalization with overlap
     ethr =  5.07E-05,  avg # of iterations =  2.0

     total cpu time spent up to now is        2.9 secs

     total energy              =    -350.24087654 Ry
     Harris-Foulkes estimate   =    -350.24291399 Ry
     estimated scf accuracy    <       0.00422971 Ry

     iteration #  3     ecut=    70.00 Ry     beta= 0.70
     Davidson diagonalization with overlap
     ethr =  3.85E-05,  avg # of iterations =  1.6

     total cpu time spent up to now is        3.3 secs

     total energy              =    -350.24168625 Ry
     Harris-Foulkes estimate   =    -350.24166948 Ry
     estimated scf accuracy    <       0.00001535 Ry

     iteration #  4     ecut=    70.00 Ry     beta= 0.70
     Davidson diagonalization with overlap
     ethr =  1.40E-07,  avg # of iterations =  3.0

     total cpu time spent up to now is        3.8 secs

     total energy              =    -350.24169499 Ry
     Harris-Foulkes estimate   =    -350.24169482 Ry
     estimated scf accuracy    <       0.00000051 Ry

     iteration #  5     ecut=    70.00 Ry     beta= 0.70
     Davidson diagonalization with overlap
     ethr =  4.62E-09,  avg # of iterations =  1.0

     total cpu time spent up to now is        4.3 secs

     End of self-consistent calculation

          k = 0.0000 0.0000 0.0000 (  1139 PWs)   bands (ev):

     4.8052   7.9137   7.9137   7.9137   8.9650   8.9650  29.5459  32.8281
    32.8281  37.1503

          k =-0.1111 0.1111-0.1111 (  1137 PWs)   bands (ev):

     5.1818   7.8365   8.0127   8.0127   8.9339   8.9339  28.9610  30.5736
    32.7967  32.7967

          k =-0.2222 0.2222-0.2222 (  1134 PWs)   bands (ev):

     6.0537   7.9224   8.1266   8.1266   9.0177   9.0177  24.9371  30.1175
    32.5111  32.5112

          k =-0.3333 0.3333-0.3333 (  1149 PWs)   bands (ev):

     6.3806   8.0277   8.0277   9.2973   9.3907   9.3907  20.6218  29.3139
    31.7175  31.7175

          k =-0.4444 0.4444-0.4444 (  1143 PWs)   bands (ev):

     6.2957   7.9095   7.9095   9.7200   9.7200  11.5861  17.0146  28.6779
    30.9448  30.9448

          k = 0.0000 0.2222 0.0000 (  1151 PWs)   bands (ev):

     5.3085   7.7165   8.1021   8.1021   8.7778   9.0514  29.5617  31.2175
    31.2175  31.2227

          k =-0.1111 0.3333-0.1111 (  1142 PWs)   bands (ev):

     6.0574   7.5589   8.2252   8.2827   8.8173   9.1727  26.6620  29.8363
    30.0287  32.5603

          k =-0.2222 0.4444-0.2222 (  1139 PWs)   bands (ev):

     6.5969   7.9904   8.0115   8.2654   9.4841   9.7489  22.2555  29.1827
    29.2567  31.3974

          k =-0.3333 0.5556-0.3333 (  1138 PWs)   bands (ev):

     6.5257   7.8103   8.1320   8.8160   9.7597  11.7155  18.2468  28.2299
    29.1032  29.9261

          k = 0.5556-0.3333 0.5556 (  1140 PWs)   bands (ev):

     6.4924   7.7681   8.0642   9.1559   9.7042  13.0707  16.4348  27.4049
    29.4791  29.8815

          k = 0.4444-0.2222 0.4444 (  1135 PWs)   bands (ev):

     6.5969   7.8812   8.1297   8.7999   9.3057  11.1060  19.5275  27.1194
    30.0885  31.7131

          k = 0.3333-0.1111 0.3333 (  1131 PWs)   bands (ev):

     6.5638   7.7644   8.1720   8.2758   8.8171   9.7382  23.7276  27.4143
    31.5885  34.2320

          k = 0.2222-0.0000 0.2222 (  1153 PWs)   bands (ev):

     5.7600   7.6788   8.1651   8.1676   8.7475   9.1376  28.0868  28.0887
    32.1461  34.4166

          k = 0.0000 0.4444 0.0000 (  1134 PWs)   bands (ev):

     6.4577   7.2429   8.6276   8.6276   8.6637   9.2748  28.1448  28.1448
    29.2264  29.6132

          k =-0.1111 0.5556-0.1111 (  1137 PWs)   bands (ev):

     6.8107   7.1236   8.4203   8.7798   9.5288   9.9408  24.2976  26.9708
    27.5815  29.9067

          k =-0.2222 0.6667-0.2222 (  1136 PWs)   bands (ev):

     6.7705   7.4032   8.2946   8.6709   9.8008  12.1631  20.1234  25.5487
    26.6937  29.5782

          k = 0.6667-0.2222 0.6667 (  1136 PWs)   bands (ev):

     6.8383   7.5255   8.3563   8.5436   9.7271  14.8429  16.7660  23.9877
    27.4872  29.4501

          k = 0.5556-0.1111 0.5556 (  1142 PWs)   bands (ev):

     7.0661   7.6178   8.2053   8.5047   9.3029  13.2548  19.0328  23.1325
    29.3028  29.7982

          k = 0.4444 0.0000 0.4444 (  1131 PWs)   bands (ev):

     7.2698   7.5038   8.0094   8.5478   8.7942  11.1586  23.0078  23.1721
    30.7415  31.8203

          k = 0.0000 0.6667 0.0000 (  1118 PWs)   bands (ev):

     6.6223   6.7430   9.3372   9.3372   9.5370  10.4366  24.9385  25.3522
    25.3522  29.6844

          k =-0.1111 0.7778-0.1111 (  1137 PWs)   bands (ev):

     6.5481   6.6999   9.2104   9.3330   9.8235  12.5455  22.2186  22.8133
    24.7232  29.7068

          k = 0.7778-0.1111 0.7778 (  1136 PWs)   bands (ev):

     6.6452   7.0182   8.7353   9.1662   9.7971  15.4269  18.8167  20.9370
    25.2939  29.6022

          k = 0.6667-0.0000 0.6667 (  1141 PWs)   bands (ev):

     6.9352   7.5124   8.1365   8.9201   9.4874  15.7937  18.4604  20.1899
    26.9528  29.6059

          k = 0.0000 0.8889 0.0000 (  1138 PWs)   bands (ev):

     6.2975   6.4358   9.7133   9.8938   9.8938  13.4268  20.3591  23.6752
    23.6752  29.7353

          k = 0.8889 0.0000 0.8889 (  1134 PWs)   bands (ev):

     6.3660   6.5326   9.5723   9.6047   9.9201  14.8876  19.4045  21.7240
    23.8849  29.7322

          k =-0.2222 0.4444 0.0000 (  1133 PWs)   bands (ev):

     6.7805   7.3472   8.0816   8.6274   8.8854   9.7766  25.5215  25.8249
    30.2465  32.1990

          k =-0.3333 0.5556-0.1111 (  1138 PWs)   bands (ev):

     6.9649   7.7275   7.8346   8.6200   9.3245  11.2795  21.3439  25.2288
    28.1964  32.1668

          k = 0.5556-0.3333 0.7778 (  1136 PWs)   bands (ev):

     6.8521   7.5619   8.3276   8.5128   9.6602  13.6267  17.5455  25.4939
    26.5395  31.3553

          k =-0.2222 0.6667 0.0000 (  1141 PWs)   bands (ev):

     6.9233   6.9371   8.3953   9.3292   9.3979  11.5855  23.4401  23.6130
    25.2643  31.7253

          k = 0.6667-0.2222 0.8889 (  1136 PWs)   bands (ev):

     6.9037   7.1989   8.1913   9.0793   9.7273  14.0921  19.6177  23.1599
    23.7796  31.8639

          k = 0.5556-0.1111 0.7778 (  1133 PWs)   bands (ev):

     7.0930   7.4060   7.9824   8.8520   9.6782  16.1032  17.4011  21.8457
    24.6702  32.0662

          k = 0.4444 0.0000 0.6667 (  1136 PWs)   bands (ev):

     7.4341   7.4747   7.5956   8.9076   9.3354  13.4236  20.9107  21.3475
    26.2685  32.8456

          k = 0.7778-0.1111 1.0000 (  1141 PWs)   bands (ev):

     6.5632   6.6773   9.0270   9.5130   9.8924  14.5615  20.5005  22.1817
    22.3868  31.4706

          k = 0.6667-0.0000 0.8889 (  1140 PWs)   bands (ev):

     6.7644   7.0413   8.4835   9.1811   9.8864  16.8430  18.9014  19.8178
    23.1153  31.8585

          k = 0.5556-0.1111 1.0000 (  1141 PWs)   bands (ev):

     7.0360   7.3871   7.8437   9.0155   9.8888  16.6642  19.4940  20.3637
    21.7426  35.0359

     the Fermi energy is    12.9230 ev

!    total energy              =    -350.24169501 Ry
     Harris-Foulkes estimate   =    -350.24169501 Ry
     estimated scf accuracy    <          5.2E-09 Ry

     total all-electron energy =    -10627.252104 Ry

     The total energy is the sum of the following terms:

     one-electron contribution =       1.60815314 Ry
     hartree contribution      =      14.56748868 Ry
     xc contribution           =     -22.14247114 Ry
     ewald contribution        =     -71.86118018 Ry
     one-center paw contrib.   =    -272.41362785 Ry
     smearing contrib. (-TS)   =      -0.00005766 Ry

     convergence has been achieved in   5 iterations

     Forces acting on atoms (cartesian axes, Ry/au):

     atom    1 type  1   force =     0.00000000    0.00000000    0.00000000

     Total force =     0.000000     Total SCF correction =     0.000000


     Computing stress (Cartesian axis) and pressure

          total   stress  (Ry/bohr**3)                   (kbar)     P=  -22.51
  -0.00015302  -0.00000000  -0.00000000        -22.51     -0.00     -0.00
  -0.00000000  -0.00015302   0.00000000         -0.00    -22.51      0.00
  -0.00000000   0.00000000  -0.00015302         -0.00      0.00    -22.51


     Writing output data file Ag.save/

     init_run     :      0.41s CPU      0.43s WALL (       1 calls)
     electrons    :      2.89s CPU      3.06s WALL (       1 calls)
     forces       :      0.05s CPU      0.05s WALL (       1 calls)
     stress       :      0.17s CPU      0.17s WALL (       1 calls)

     Called by init_run:
     wfcinit      :      0.11s CPU      0.12s WALL (       1 calls)
     potinit      :      0.10s CPU      0.11s WALL (       1 calls)
     hinit0       :      0.17s CPU      0.17s WALL (       1 calls)

     Called by electrons:
     c_bands      :      1.92s CPU      2.00s WALL (       6 calls)
     sum_band     :      0.41s CPU      0.43s WALL (       6 calls)
     v_of_rho     :      0.03s CPU      0.03s WALL (       6 calls)
     newd         :      0.05s CPU      0.06s WALL (       6 calls)
     PAW_pot      :      0.57s CPU      0.65s WALL (       6 calls)
     mix_rho      :      0.00s CPU      0.00s WALL (       6 calls)

     Called by c_bands:
     init_us_2    :      0.07s CPU      0.07s WALL (     525 calls)
     cegterg      :      1.83s CPU      1.91s WALL (     210 calls)

     Called by sum_band:
     sum_band:bec :      0.00s CPU      0.00s WALL (     210 calls)
     addusdens    :      0.05s CPU      0.06s WALL (       6 calls)

     Called by *egterg:
     h_psi        :      1.49s CPU      1.55s WALL (     753 calls)
     s_psi        :      0.05s CPU      0.05s WALL (     753 calls)
     g_psi        :      0.00s CPU      0.00s WALL (     508 calls)
     cdiaghg      :      0.15s CPU      0.16s WALL (     683 calls)

     Called by h_psi:
     h_psi:pot    :      1.48s CPU      1.55s WALL (     753 calls)
     h_psi:calbec :      0.07s CPU      0.07s WALL (     753 calls)
     vloc_psi     :      1.36s CPU      1.42s WALL (     753 calls)
     add_vuspsi   :      0.05s CPU      0.05s WALL (     753 calls)

     General routines
     calbec       :      0.12s CPU      0.13s WALL (    1138 calls)
     fft          :      0.02s CPU      0.02s WALL (      93 calls)
     ffts         :      0.00s CPU      0.00s WALL (       6 calls)
     fftw         :      1.53s CPU      1.60s WALL (   13000 calls)

     Parallel routines
     fft_scatt_xy :      0.14s CPU      0.14s WALL (   13099 calls)
     fft_scatt_yz :      0.35s CPU      0.37s WALL (   13099 calls)

     PWSCF        :     4.34s CPU         4.59s WALL


   This run was terminated on:   0:32:56  27Mar2024            

=------------------------------------------------------------------------------=
   JOB DONE.
=------------------------------------------------------------------------------=
