
     Program PWSCF v.6.3MaX starts on 27Mar2024 at  0:37:16 

     This program is part of the open-source Quantum ESPRESSO suite
     for quantum simulation of materials; please cite
         "P. Giannozzi et al., J. Phys.:Condens. Matter 21 395502 (2009);
         "P. Giannozzi et al., J. Phys.:Condens. Matter 29 465901 (2017);
          URL http://www.quantum-espresso.org", 
     in publications or presentations arising from this work. More details at
     http://www.quantum-espresso.org/quote

     Parallel version (MPI), running on     5 processors

     MPI processes distributed on     1 nodes
     R & G space division:  proc/nbgrp/npool/nimage =       5
     Waiting for input...
     Reading input from standard input

     Current dimensions of program PWSCF are:
     Max number of different atomic species (ntypx) = 10
     Max number of k-points (npk) =  40000
     Max angular momentum in pseudopotentials (lmaxx) =  3

     Subspace diagonalization in iterative solution of the eigenvalue problem:
     a serial algorithm will be used


     Parallelization info
     --------------------
     sticks:   dense  smooth     PW     G-vecs:    dense   smooth      PW
     Min         131     131     39                 2222     2222     365
     Max         134     134     40                 2223     2223     368
     Sum         661     661    199                11113    11113    1837



     bravais-lattice index     =            2
     lattice parameter (alat)  =       7.7200  a.u.
     unit-cell volume          =     115.0249 (a.u.)^3
     number of atoms/cell      =            1
     number of atomic types    =            1
     number of electrons       =        11.00
     number of Kohn-Sham states=           10
     kinetic-energy cutoff     =      80.0000  Ry
     charge density cutoff     =     320.0000  Ry
     convergence threshold     =      1.0E-08
     mixing beta               =       0.7000
     number of iterations used =            8  plain     mixing
     Exchange-correlation      = PBE ( 1  4  3  4 0 0)

     celldm(1)=   7.720000  celldm(2)=   0.000000  celldm(3)=   0.000000
     celldm(4)=   0.000000  celldm(5)=   0.000000  celldm(6)=   0.000000

     crystal axes: (cart. coord. in units of alat)
               a(1) = (  -0.500000   0.000000   0.500000 )  
               a(2) = (   0.000000   0.500000   0.500000 )  
               a(3) = (  -0.500000   0.500000   0.000000 )  

     reciprocal axes: (cart. coord. in units 2 pi/alat)
               b(1) = ( -1.000000 -1.000000  1.000000 )  
               b(2) = (  1.000000  1.000000  1.000000 )  
               b(3) = ( -1.000000  1.000000 -1.000000 )  


     PseudoPot. # 1 for Ag read from file:
     /home/lorenzo/pseudos/Ag/Ag.pbe-n-rrkjus_psl.1.0.0.UPF
     MD5 check sum: d841cbfac2b0861aec33b46768a516bf
     Pseudo is Ultrasoft + core correction, Zval = 11.0
     Generated using "atomic" code by A. Dal Corso v.6.2.2
     Using radial grid of 1237 points,  6 beta functions with: 
                l(1) =   0
                l(2) =   0
                l(3) =   1
                l(4) =   1
                l(5) =   2
                l(6) =   2
     Q(r) pseudized with 0 coefficients 


     atomic species   valence    mass     pseudopotential
        Ag            11.00   107.86820     Ag( 1.00)

     48 Sym. Ops., with inversion, found



   Cartesian axes

     site n.     atom                  positions (alat units)
         1           Ag  tau(   1) = (   0.0000000   0.0000000   0.0000000  )

     number of k points=     8  gaussian smearing, width (Ry)=  0.0100
                       cart. coord. in units 2pi/alat
        k(    1) = (   0.0000000   0.0000000   0.0000000), wk =   0.0312500
        k(    2) = (  -0.2500000   0.2500000  -0.2500000), wk =   0.2500000
        k(    3) = (   0.5000000  -0.5000000   0.5000000), wk =   0.1250000
        k(    4) = (   0.0000000   0.5000000   0.0000000), wk =   0.1875000
        k(    5) = (   0.7500000  -0.2500000   0.7500000), wk =   0.7500000
        k(    6) = (   0.5000000   0.0000000   0.5000000), wk =   0.3750000
        k(    7) = (   0.0000000  -1.0000000   0.0000000), wk =   0.0937500
        k(    8) = (  -0.5000000  -1.0000000   0.0000000), wk =   0.1875000

     Dense  grid:    11113 G-vectors     FFT dimensions: (  32,  32,  32)

     Estimated max dynamical RAM per process >      10.45 MB

     Estimated total dynamical RAM >      52.26 MB

     Initial potential from superposition of free atoms

     starting charge   10.99960, renormalised to   11.00000
     Starting wfcs are    9 randomized atomic wfcs +    1 random wfcs

     total cpu time spent up to now is        1.0 secs

     Self-consistent Calculation

     iteration #  1     ecut=    80.00 Ry     beta= 0.70
     Davidson diagonalization with overlap
     ethr =  1.00E-02,  avg # of iterations =  5.5

     Threshold (ethr) on eigenvalues was too large:
     Diagonalizing with lowered threshold

     Davidson diagonalization with overlap
     ethr =  2.61E-05,  avg # of iterations =  2.2

     total cpu time spent up to now is        1.3 secs

     total energy              =     -84.25909482 Ry
     Harris-Foulkes estimate   =     -84.26091441 Ry
     estimated scf accuracy    <       0.00323107 Ry

     iteration #  2     ecut=    80.00 Ry     beta= 0.70
     Davidson diagonalization with overlap
     ethr =  2.94E-05,  avg # of iterations =  2.5

     total cpu time spent up to now is        1.4 secs

     total energy              =     -84.25978370 Ry
     Harris-Foulkes estimate   =     -84.26083921 Ry
     estimated scf accuracy    <       0.00193046 Ry

     iteration #  3     ecut=    80.00 Ry     beta= 0.70
     Davidson diagonalization with overlap
     ethr =  1.75E-05,  avg # of iterations =  2.0

     total cpu time spent up to now is        1.5 secs

     total energy              =     -84.26023372 Ry
     Harris-Foulkes estimate   =     -84.26023432 Ry
     estimated scf accuracy    <       0.00002920 Ry

     iteration #  4     ecut=    80.00 Ry     beta= 0.70
     Davidson diagonalization with overlap
     ethr =  2.65E-07,  avg # of iterations =  2.9

     total cpu time spent up to now is        1.7 secs

     total energy              =     -84.26024051 Ry
     Harris-Foulkes estimate   =     -84.26024041 Ry
     estimated scf accuracy    <       0.00000031 Ry

     iteration #  5     ecut=    80.00 Ry     beta= 0.70
     Davidson diagonalization with overlap
     ethr =  2.86E-09,  avg # of iterations =  2.4

     total cpu time spent up to now is        1.8 secs

     total energy              =     -84.26024063 Ry
     Harris-Foulkes estimate   =     -84.26024068 Ry
     estimated scf accuracy    <       0.00000011 Ry

     iteration #  6     ecut=    80.00 Ry     beta= 0.70
     Davidson diagonalization with overlap
     ethr =  9.98E-10,  avg # of iterations =  2.1

     total cpu time spent up to now is        1.9 secs

     End of self-consistent calculation

          k = 0.0000 0.0000 0.0000 (  1411 PWs)   bands (ev):

     5.0652   8.0742   8.0742   8.0742   9.1132   9.1132  29.7993  33.0898
    33.0898  33.0898

          k =-0.2500 0.2500-0.2500 (  1390 PWs)   bands (ev):

     6.4558   8.2761   8.2761   8.3025   9.2407   9.2407  24.0776  30.2001
    32.6166  32.6167

          k = 0.5000-0.5000 0.5000 (  1404 PWs)   bands (ev):

     6.4681   8.0514   8.0514   9.9125   9.9125  12.4482  16.4711  28.8378
    31.1006  31.1006

          k = 0.0000 0.5000 0.0000 (  1387 PWs)   bands (ev):

     6.8662   7.2784   8.9523   8.9523   9.0675   9.4868  27.6400  27.6400
    28.7025  29.8645

          k = 0.7500-0.2500 0.7500 (  1400 PWs)   bands (ev):

     6.9426   7.5088   8.5533   8.9152   9.9701  13.8765  19.0168  24.1352
    26.6379  29.7529

          k = 0.5000 0.0000 0.5000 (  1388 PWs)   bands (ev):

     7.5111   7.7388   8.1293   8.7332   9.1278  12.3204  22.1700  22.2916
    30.4887  30.7519

          k = 0.0000-1.0000 0.0000 (  1362 PWs)   bands (ev):

     6.4254   6.5686   9.8798  10.1215  10.1215  14.4765  19.5998  23.7167
    23.7167  29.9656

          k =-0.5000-1.0000 0.0000 (  1384 PWs)   bands (ev):

     7.1798   7.7965   7.7965   9.1238  10.1225  18.8443  18.8443  19.9353
    21.0659  36.2696

     the Fermi energy is    13.7099 ev

!    total energy              =     -84.26024065 Ry
     Harris-Foulkes estimate   =     -84.26024065 Ry
     estimated scf accuracy    <          1.3E-10 Ry

     The total energy is the sum of the following terms:

     one-electron contribution =      -4.69382140 Ry
     hartree contribution      =      14.64411924 Ry
     xc contribution           =     -22.34888592 Ry
     ewald contribution        =     -71.86118018 Ry
     smearing contrib. (-TS)   =      -0.00047239 Ry

     convergence has been achieved in   6 iterations

     Forces acting on atoms (cartesian axes, Ry/au):

     atom    1 type  1   force =     0.00000000    0.00000000    0.00000000

     Total force =     0.000000     Total SCF correction =     0.000000


     Computing stress (Cartesian axis) and pressure

          total   stress  (Ry/bohr**3)                   (kbar)     P=   61.83
   0.00042032   0.00000000   0.00000000         61.83      0.00      0.00
   0.00000000   0.00042032  -0.00000000          0.00     61.83     -0.00
   0.00000000  -0.00000000   0.00042032          0.00     -0.00     61.83


     Writing output data file Ag.save/

     init_run     :      0.25s CPU      0.26s WALL (       1 calls)
     electrons    :      0.85s CPU      0.91s WALL (       1 calls)
     forces       :      0.04s CPU      0.04s WALL (       1 calls)
     stress       :      0.12s CPU      0.12s WALL (       1 calls)

     Called by init_run:
     wfcinit      :      0.03s CPU      0.03s WALL (       1 calls)
     potinit      :      0.01s CPU      0.01s WALL (       1 calls)
     hinit0       :      0.19s CPU      0.19s WALL (       1 calls)

     Called by electrons:
     c_bands      :      0.58s CPU      0.61s WALL (       7 calls)
     sum_band     :      0.18s CPU      0.19s WALL (       7 calls)
     v_of_rho     :      0.04s CPU      0.05s WALL (       7 calls)
     newd         :      0.07s CPU      0.07s WALL (       7 calls)
     mix_rho      :      0.00s CPU      0.00s WALL (       7 calls)

     Called by c_bands:
     init_us_2    :      0.02s CPU      0.02s WALL (     136 calls)
     cegterg      :      0.54s CPU      0.58s WALL (      56 calls)

     Called by sum_band:
     sum_band:bec :      0.00s CPU      0.00s WALL (      56 calls)
     addusdens    :      0.07s CPU      0.07s WALL (       7 calls)

     Called by *egterg:
     h_psi        :      0.44s CPU      0.46s WALL (     221 calls)
     s_psi        :      0.02s CPU      0.02s WALL (     221 calls)
     g_psi        :      0.00s CPU      0.00s WALL (     157 calls)
     cdiaghg      :      0.04s CPU      0.05s WALL (     205 calls)

     Called by h_psi:
     h_psi:pot    :      0.43s CPU      0.46s WALL (     221 calls)
     h_psi:calbec :      0.02s CPU      0.02s WALL (     221 calls)
     vloc_psi     :      0.39s CPU      0.42s WALL (     221 calls)
     add_vuspsi   :      0.02s CPU      0.02s WALL (     221 calls)

     General routines
     calbec       :      0.03s CPU      0.04s WALL (     317 calls)
     fft          :      0.02s CPU      0.02s WALL (     104 calls)
     ffts         :      0.00s CPU      0.00s WALL (       7 calls)
     fftw         :      0.43s CPU      0.46s WALL (    3516 calls)

     Parallel routines
     fft_scatt_xy :      0.05s CPU      0.05s WALL (    3627 calls)
     fft_scatt_yz :      0.11s CPU      0.12s WALL (    3627 calls)

     PWSCF        :     1.99s CPU         2.09s WALL


   This run was terminated on:   0:37:18  27Mar2024            

=------------------------------------------------------------------------------=
   JOB DONE.
=------------------------------------------------------------------------------=
