
     Program PWSCF v.6.3MaX starts on 27Mar2024 at  0:34:49 

     This program is part of the open-source Quantum ESPRESSO suite
     for quantum simulation of materials; please cite
         "P. Giannozzi et al., J. Phys.:Condens. Matter 21 395502 (2009);
         "P. Giannozzi et al., J. Phys.:Condens. Matter 29 465901 (2017);
          URL http://www.quantum-espresso.org", 
     in publications or presentations arising from this work. More details at
     http://www.quantum-espresso.org/quote

     Parallel version (MPI), running on     5 processors

     MPI processes distributed on     1 nodes
     R & G space division:  proc/nbgrp/npool/nimage =       5
     Waiting for input...
     Reading input from standard input

     Current dimensions of program PWSCF are:
     Max number of different atomic species (ntypx) = 10
     Max number of k-points (npk) =  40000
     Max angular momentum in pseudopotentials (lmaxx) =  3
               file Ag.pbesol-n-kjpaw_psl.1.0.0.UPF: wavefunction(s)  5S 5P renormalized

     Subspace diagonalization in iterative solution of the eigenvalue problem:
     a serial algorithm will be used


     Parallelization info
     --------------------
     sticks:   dense  smooth     PW     G-vecs:    dense   smooth      PW
     Min         122     122     39                 2016     2016     361
     Max         123     123     40                 2017     2017     363
     Sum         613     613    199                10081    10081    1807



     bravais-lattice index     =            2
     lattice parameter (alat)  =       7.7200  a.u.
     unit-cell volume          =     115.0249 (a.u.)^3
     number of atoms/cell      =            1
     number of atomic types    =            1
     number of electrons       =        11.00
     number of Kohn-Sham states=           10
     kinetic-energy cutoff     =      75.0000  Ry
     charge density cutoff     =     300.0000  Ry
     convergence threshold     =      1.0E-08
     mixing beta               =       0.7000
     number of iterations used =            8  plain     mixing
     Exchange-correlation      = SLA PW PSX PSC ( 1  4 10  8 0 0)

     celldm(1)=   7.720000  celldm(2)=   0.000000  celldm(3)=   0.000000
     celldm(4)=   0.000000  celldm(5)=   0.000000  celldm(6)=   0.000000

     crystal axes: (cart. coord. in units of alat)
               a(1) = (  -0.500000   0.000000   0.500000 )  
               a(2) = (   0.000000   0.500000   0.500000 )  
               a(3) = (  -0.500000   0.500000   0.000000 )  

     reciprocal axes: (cart. coord. in units 2 pi/alat)
               b(1) = ( -1.000000 -1.000000  1.000000 )  
               b(2) = (  1.000000  1.000000  1.000000 )  
               b(3) = ( -1.000000  1.000000 -1.000000 )  


     PseudoPot. # 1 for Ag read from file:
     /home/lorenzo/pseudos/Ag/Ag.pbesol-n-kjpaw_psl.1.0.0.UPF
     MD5 check sum: 3b245e14fa22881b2ac493bfd23f605f
     Pseudo is Projector augmented-wave + core cor, Zval = 11.0
     Generated using "atomic" code by A. Dal Corso v.6.2.2
     Shape of augmentation charge: PSQ
     Using radial grid of 1237 points,  6 beta functions with: 
                l(1) =   0
                l(2) =   0
                l(3) =   1
                l(4) =   1
                l(5) =   2
                l(6) =   2
     Q(r) pseudized with 0 coefficients 


     atomic species   valence    mass     pseudopotential
        Ag            11.00   107.86820     Ag( 1.00)

     48 Sym. Ops., with inversion, found



   Cartesian axes

     site n.     atom                  positions (alat units)
         1           Ag  tau(   1) = (   0.0000000   0.0000000   0.0000000  )

     number of k points=    16  gaussian smearing, width (Ry)=  0.0100
                       cart. coord. in units 2pi/alat
        k(    1) = (   0.0000000   0.0000000   0.0000000), wk =   0.0092593
        k(    2) = (  -0.1666667   0.1666667  -0.1666667), wk =   0.0740741
        k(    3) = (  -0.3333333   0.3333333  -0.3333333), wk =   0.0740741
        k(    4) = (   0.5000000  -0.5000000   0.5000000), wk =   0.0370370
        k(    5) = (   0.0000000   0.3333333   0.0000000), wk =   0.0555556
        k(    6) = (  -0.1666667   0.5000000  -0.1666667), wk =   0.2222222
        k(    7) = (   0.6666667  -0.3333333   0.6666667), wk =   0.2222222
        k(    8) = (   0.5000000  -0.1666667   0.5000000), wk =   0.2222222
        k(    9) = (   0.3333333   0.0000000   0.3333333), wk =   0.1111111
        k(   10) = (   0.0000000   0.6666667   0.0000000), wk =   0.0555556
        k(   11) = (   0.8333333  -0.1666667   0.8333333), wk =   0.2222222
        k(   12) = (   0.6666667  -0.0000000   0.6666667), wk =   0.1111111
        k(   13) = (   0.0000000  -1.0000000   0.0000000), wk =   0.0277778
        k(   14) = (   0.6666667  -0.3333333   1.0000000), wk =   0.2222222
        k(   15) = (   0.5000000  -0.1666667   0.8333333), wk =   0.2222222
        k(   16) = (  -0.3333333  -1.0000000   0.0000000), wk =   0.1111111

     Dense  grid:    10081 G-vectors     FFT dimensions: (  32,  32,  32)

     Estimated max dynamical RAM per process >       9.94 MB

     Estimated total dynamical RAM >      49.72 MB

     Initial potential from superposition of free atoms

     starting charge   10.99964, renormalised to   11.00000
     Starting wfcs are    9 randomized atomic wfcs +    1 random wfcs
     Checking if some PAW data can be deallocated... 

     total cpu time spent up to now is        1.3 secs

     Self-consistent Calculation

     iteration #  1     ecut=    75.00 Ry     beta= 0.70
     Davidson diagonalization with overlap
     ethr =  1.00E-02,  avg # of iterations =  5.1

     Threshold (ethr) on eigenvalues was too large:
     Diagonalizing with lowered threshold

     Davidson diagonalization with overlap
     ethr =  4.60E-05,  avg # of iterations =  2.2

     total cpu time spent up to now is        1.9 secs

     total energy              =    -350.23309090 Ry
     Harris-Foulkes estimate   =    -350.23671085 Ry
     estimated scf accuracy    <       0.00545801 Ry

     iteration #  2     ecut=    75.00 Ry     beta= 0.70
     Davidson diagonalization with overlap
     ethr =  4.96E-05,  avg # of iterations =  2.0

     total cpu time spent up to now is        2.2 secs

     total energy              =    -350.23463578 Ry
     Harris-Foulkes estimate   =    -350.23664020 Ry
     estimated scf accuracy    <       0.00416897 Ry

     iteration #  3     ecut=    75.00 Ry     beta= 0.70
     Davidson diagonalization with overlap
     ethr =  3.79E-05,  avg # of iterations =  1.6

     total cpu time spent up to now is        2.5 secs

     total energy              =    -350.23543647 Ry
     Harris-Foulkes estimate   =    -350.23541984 Ry
     estimated scf accuracy    <       0.00001464 Ry

     iteration #  4     ecut=    75.00 Ry     beta= 0.70
     Davidson diagonalization with overlap
     ethr =  1.33E-07,  avg # of iterations =  3.2

     total cpu time spent up to now is        2.8 secs

     total energy              =    -350.23544526 Ry
     Harris-Foulkes estimate   =    -350.23544509 Ry
     estimated scf accuracy    <       0.00000052 Ry

     iteration #  5     ecut=    75.00 Ry     beta= 0.70
     Davidson diagonalization with overlap
     ethr =  4.71E-09,  avg # of iterations =  1.0

     total cpu time spent up to now is        3.1 secs

     End of self-consistent calculation

          k = 0.0000 0.0000 0.0000 (  1243 PWs)   bands (ev):

     4.8045   7.9148   7.9148   7.9148   8.9676   8.9676  29.5435  32.8290
    32.8290  32.8290

          k =-0.1667 0.1667-0.1667 (  1278 PWs)   bands (ev):

     5.6035   7.8046   8.0934   8.0934   8.9409   8.9409  27.1155  30.3022
    32.7103  32.7103

          k =-0.3333 0.3333-0.3333 (  1272 PWs)   bands (ev):

     6.3806   8.0294   8.0294   9.2973   9.3928   9.3928  20.6222  29.3129
    31.7174  31.7174

          k = 0.5000-0.5000 0.5000 (  1260 PWs)   bands (ev):

     6.2776   7.8938   7.8938   9.7708   9.7708  12.1888  16.2508  28.5895
    30.8270  30.8270

          k = 0.0000 0.3333 0.0000 (  1283 PWs)   bands (ev):

     5.8740   7.5003   8.3299   8.3299   8.6304   9.1536  29.5818  29.7193
    29.7193  30.2451

          k =-0.1667 0.5000-0.1667 (  1269 PWs)   bands (ev):

     6.7615   7.4957   8.1002   8.4987   9.5173   9.8680  23.2472  28.0516
    28.6990  30.3165

          k = 0.6667-0.3333 0.6667 (  1258 PWs)   bands (ev):

     6.6845   7.6541   8.3112   8.5651   9.7985  13.2238  17.3591  26.3214
    28.1603  29.4185

          k = 0.5000-0.1667 0.5000 (  1264 PWs)   bands (ev):

     6.8359   7.7383   8.2951   8.5015   9.2904  12.1346  19.2033  25.1259
    29.9349  30.5639

          k = 0.3333 0.0000 0.3333 (  1263 PWs)   bands (ev):

     6.6591   7.5279   8.1591   8.4504   8.6007   9.7895  25.3587  25.7060
    32.2698  33.3826

          k = 0.0000 0.6667 0.0000 (  1266 PWs)   bands (ev):

     6.6239   6.7436   9.3385   9.3385   9.5398  10.4366  24.9386  25.3523
    25.3523  29.6842

          k = 0.8333-0.1667 0.8333 (  1260 PWs)   bands (ev):

     6.5710   6.8260   8.9970   9.2584   9.8661  13.9191  20.4974  21.7740
    24.8567  29.6505

          k = 0.6667-0.0000 0.6667 (  1276 PWs)   bands (ev):

     6.9363   7.5138   8.1373   8.9227   9.4889  15.7940  18.4603  20.1903
    26.9527  29.6057

          k = 0.0000-1.0000 0.0000 (  1266 PWs)   bands (ev):

     6.2472   6.3952   9.7406   9.9795   9.9795  14.2109  19.3747  23.4476
    23.4476  29.7428

          k = 0.6667-0.3333 1.0000 (  1257 PWs)   bands (ev):

     7.1709   7.2391   7.8966   9.1609   9.3271  12.4572  22.2651  22.2821
    25.6723  33.4852

          k = 0.5000-0.1667 0.8333 (  1252 PWs)   bands (ev):

     7.2344   7.2803   7.9385   8.8410   9.7316  16.3055  17.0431  22.8803
    23.5172  32.9897

          k =-0.3333-1.0000 0.0000 (  1256 PWs)   bands (ev):

     6.7687   6.9497   8.5182   9.2174   9.9803  16.6051  19.5430  20.6811
    21.4093  33.0686

     the Fermi energy is    12.4880 ev

!    total energy              =    -350.23544529 Ry
     Harris-Foulkes estimate   =    -350.23544529 Ry
     estimated scf accuracy    <          4.2E-09 Ry

     total all-electron energy =    -10627.245854 Ry

     The total energy is the sum of the following terms:

     one-electron contribution =       1.61504474 Ry
     hartree contribution      =      14.56897789 Ry
     xc contribution           =     -22.14318007 Ry
     ewald contribution        =     -71.86118018 Ry
     one-center paw contrib.   =    -272.41451039 Ry
     smearing contrib. (-TS)   =      -0.00059728 Ry

     convergence has been achieved in   5 iterations

     Forces acting on atoms (cartesian axes, Ry/au):

     atom    1 type  1   force =     0.00000000    0.00000000    0.00000000

     Total force =     0.000000     Total SCF correction =     0.000000


     Computing stress (Cartesian axis) and pressure

          total   stress  (Ry/bohr**3)                   (kbar)     P=  -13.39
  -0.00009100  -0.00000000   0.00000000        -13.39     -0.00      0.00
  -0.00000000  -0.00009100   0.00000000         -0.00    -13.39      0.00
   0.00000000  -0.00000000  -0.00009100          0.00     -0.00    -13.39


     Writing output data file Ag.save/

     init_run     :      0.36s CPU      0.39s WALL (       1 calls)
     electrons    :      1.65s CPU      1.80s WALL (       1 calls)
     forces       :      0.04s CPU      0.04s WALL (       1 calls)
     stress       :      0.13s CPU      0.13s WALL (       1 calls)

     Called by init_run:
     wfcinit      :      0.06s CPU      0.07s WALL (       1 calls)
     potinit      :      0.10s CPU      0.11s WALL (       1 calls)
     hinit0       :      0.17s CPU      0.17s WALL (       1 calls)

     Called by electrons:
     c_bands      :      0.87s CPU      0.94s WALL (       6 calls)
     sum_band     :      0.24s CPU      0.26s WALL (       6 calls)
     v_of_rho     :      0.03s CPU      0.04s WALL (       6 calls)
     newd         :      0.06s CPU      0.07s WALL (       6 calls)
     PAW_pot      :      0.54s CPU      0.61s WALL (       6 calls)
     mix_rho      :      0.00s CPU      0.00s WALL (       6 calls)

     Called by c_bands:
     init_us_2    :      0.04s CPU      0.04s WALL (     240 calls)
     cegterg      :      0.83s CPU      0.89s WALL (      96 calls)

     Called by sum_band:
     sum_band:bec :      0.00s CPU      0.00s WALL (      96 calls)
     addusdens    :      0.05s CPU      0.06s WALL (       6 calls)

     Called by *egterg:
     h_psi        :      0.68s CPU      0.74s WALL (     353 calls)
     s_psi        :      0.02s CPU      0.02s WALL (     353 calls)
     g_psi        :      0.00s CPU      0.00s WALL (     241 calls)
     cdiaghg      :      0.07s CPU      0.07s WALL (     321 calls)

     Called by h_psi:
     h_psi:pot    :      0.68s CPU      0.73s WALL (     353 calls)
     h_psi:calbec :      0.03s CPU      0.04s WALL (     353 calls)
     vloc_psi     :      0.62s CPU      0.67s WALL (     353 calls)
     add_vuspsi   :      0.02s CPU      0.03s WALL (     353 calls)

     General routines
     calbec       :      0.06s CPU      0.06s WALL (     529 calls)
     fft          :      0.02s CPU      0.02s WALL (      93 calls)
     ffts         :      0.00s CPU      0.00s WALL (       6 calls)
     fftw         :      0.71s CPU      0.77s WALL (    5954 calls)

     Parallel routines
     fft_scatt_xy :      0.07s CPU      0.08s WALL (    6053 calls)
     fft_scatt_yz :      0.23s CPU      0.24s WALL (    6053 calls)

     PWSCF        :     3.06s CPU         3.30s WALL


   This run was terminated on:   0:34:53  27Mar2024            

=------------------------------------------------------------------------------=
   JOB DONE.
=------------------------------------------------------------------------------=
