
     Program PWSCF v.6.3MaX starts on 27Mar2024 at  0: 4: 0 

     This program is part of the open-source Quantum ESPRESSO suite
     for quantum simulation of materials; please cite
         "P. Giannozzi et al., J. Phys.:Condens. Matter 21 395502 (2009);
         "P. Giannozzi et al., J. Phys.:Condens. Matter 29 465901 (2017);
          URL http://www.quantum-espresso.org", 
     in publications or presentations arising from this work. More details at
     http://www.quantum-espresso.org/quote

     Parallel version (MPI), running on     5 processors

     MPI processes distributed on     1 nodes
     R & G space division:  proc/nbgrp/npool/nimage =       5
     Waiting for input...
     Reading input from standard input

     Current dimensions of program PWSCF are:
     Max number of different atomic species (ntypx) = 10
     Max number of k-points (npk) =  40000
     Max angular momentum in pseudopotentials (lmaxx) =  3
               file Ag.pbesol-n-kjpaw_psl.1.0.0.UPF: wavefunction(s)  5S 5P renormalized

     Subspace diagonalization in iterative solution of the eigenvalue problem:
     a serial algorithm will be used


     Parallelization info
     --------------------
     sticks:   dense  smooth     PW     G-vecs:    dense   smooth      PW
     Min         164     164     50                 3117     3117     527
     Max         165     165     51                 3120     3120     528
     Sum         823     823    253                15593    15593    2637



     bravais-lattice index     =            2
     lattice parameter (alat)  =       7.7200  a.u.
     unit-cell volume          =     115.0249 (a.u.)^3
     number of atoms/cell      =            1
     number of atomic types    =            1
     number of electrons       =        11.00
     number of Kohn-Sham states=           10
     kinetic-energy cutoff     =     100.0000  Ry
     charge density cutoff     =     400.0000  Ry
     convergence threshold     =      1.0E-08
     mixing beta               =       0.7000
     number of iterations used =            8  plain     mixing
     Exchange-correlation      = SLA PW PSX PSC ( 1  4 10  8 0 0)

     celldm(1)=   7.720000  celldm(2)=   0.000000  celldm(3)=   0.000000
     celldm(4)=   0.000000  celldm(5)=   0.000000  celldm(6)=   0.000000

     crystal axes: (cart. coord. in units of alat)
               a(1) = (  -0.500000   0.000000   0.500000 )  
               a(2) = (   0.000000   0.500000   0.500000 )  
               a(3) = (  -0.500000   0.500000   0.000000 )  

     reciprocal axes: (cart. coord. in units 2 pi/alat)
               b(1) = ( -1.000000 -1.000000  1.000000 )  
               b(2) = (  1.000000  1.000000  1.000000 )  
               b(3) = ( -1.000000  1.000000 -1.000000 )  


     PseudoPot. # 1 for Ag read from file:
     /home/lorenzo/pseudos/Ag/Ag.pbesol-n-kjpaw_psl.1.0.0.UPF
     MD5 check sum: 3b245e14fa22881b2ac493bfd23f605f
     Pseudo is Projector augmented-wave + core cor, Zval = 11.0
     Generated using "atomic" code by A. Dal Corso v.6.2.2
     Shape of augmentation charge: PSQ
     Using radial grid of 1237 points,  6 beta functions with: 
                l(1) =   0
                l(2) =   0
                l(3) =   1
                l(4) =   1
                l(5) =   2
                l(6) =   2
     Q(r) pseudized with 0 coefficients 


     atomic species   valence    mass     pseudopotential
        Ag            11.00   107.86820     Ag( 1.00)

     48 Sym. Ops., with inversion, found



   Cartesian axes

     site n.     atom                  positions (alat units)
         1           Ag  tau(   1) = (   0.0000000   0.0000000   0.0000000  )

     number of k points=    35  gaussian smearing, width (Ry)=  0.0100
                       cart. coord. in units 2pi/alat
        k(    1) = (   0.0000000   0.0000000   0.0000000), wk =   0.0027435
        k(    2) = (  -0.1111111   0.1111111  -0.1111111), wk =   0.0219479
        k(    3) = (  -0.2222222   0.2222222  -0.2222222), wk =   0.0219479
        k(    4) = (  -0.3333333   0.3333333  -0.3333333), wk =   0.0219479
        k(    5) = (  -0.4444444   0.4444444  -0.4444444), wk =   0.0219479
        k(    6) = (   0.0000000   0.2222222   0.0000000), wk =   0.0164609
        k(    7) = (  -0.1111111   0.3333333  -0.1111111), wk =   0.0658436
        k(    8) = (  -0.2222222   0.4444444  -0.2222222), wk =   0.0658436
        k(    9) = (  -0.3333333   0.5555556  -0.3333333), wk =   0.0658436
        k(   10) = (   0.5555556  -0.3333333   0.5555556), wk =   0.0658436
        k(   11) = (   0.4444444  -0.2222222   0.4444444), wk =   0.0658436
        k(   12) = (   0.3333333  -0.1111111   0.3333333), wk =   0.0658436
        k(   13) = (   0.2222222  -0.0000000   0.2222222), wk =   0.0329218
        k(   14) = (   0.0000000   0.4444444   0.0000000), wk =   0.0164609
        k(   15) = (  -0.1111111   0.5555556  -0.1111111), wk =   0.0658436
        k(   16) = (  -0.2222222   0.6666667  -0.2222222), wk =   0.0658436
        k(   17) = (   0.6666667  -0.2222222   0.6666667), wk =   0.0658436
        k(   18) = (   0.5555556  -0.1111111   0.5555556), wk =   0.0658436
        k(   19) = (   0.4444444   0.0000000   0.4444444), wk =   0.0329218
        k(   20) = (   0.0000000   0.6666667   0.0000000), wk =   0.0164609
        k(   21) = (  -0.1111111   0.7777778  -0.1111111), wk =   0.0658436
        k(   22) = (   0.7777778  -0.1111111   0.7777778), wk =   0.0658436
        k(   23) = (   0.6666667  -0.0000000   0.6666667), wk =   0.0329218
        k(   24) = (   0.0000000   0.8888889   0.0000000), wk =   0.0164609
        k(   25) = (   0.8888889   0.0000000   0.8888889), wk =   0.0329218
        k(   26) = (  -0.2222222   0.4444444   0.0000000), wk =   0.0658436
        k(   27) = (  -0.3333333   0.5555556  -0.1111111), wk =   0.1316872
        k(   28) = (   0.5555556  -0.3333333   0.7777778), wk =   0.1316872
        k(   29) = (  -0.2222222   0.6666667   0.0000000), wk =   0.0658436
        k(   30) = (   0.6666667  -0.2222222   0.8888889), wk =   0.1316872
        k(   31) = (   0.5555556  -0.1111111   0.7777778), wk =   0.1316872
        k(   32) = (   0.4444444   0.0000000   0.6666667), wk =   0.0658436
        k(   33) = (   0.7777778  -0.1111111   1.0000000), wk =   0.0658436
        k(   34) = (   0.6666667  -0.0000000   0.8888889), wk =   0.0658436
        k(   35) = (   0.5555556  -0.1111111   1.0000000), wk =   0.0658436

     Dense  grid:    15593 G-vectors     FFT dimensions: (  36,  36,  36)

     Estimated max dynamical RAM per process >      15.79 MB

     Estimated total dynamical RAM >      78.94 MB

     Initial potential from superposition of free atoms

     starting charge   10.99964, renormalised to   11.00000
     Starting wfcs are    9 randomized atomic wfcs +    1 random wfcs
     Checking if some PAW data can be deallocated... 

     total cpu time spent up to now is        1.5 secs

     Self-consistent Calculation

     iteration #  1     ecut=   100.00 Ry     beta= 0.70
     Davidson diagonalization with overlap
     ethr =  1.00E-02,  avg # of iterations =  4.7

     Threshold (ethr) on eigenvalues was too large:
     Diagonalizing with lowered threshold

     Davidson diagonalization with overlap
     ethr =  4.70E-05,  avg # of iterations =  2.3

     total cpu time spent up to now is        3.3 secs

     total energy              =    -350.23984873 Ry
     Harris-Foulkes estimate   =    -350.24355247 Ry
     estimated scf accuracy    <       0.00557724 Ry

     iteration #  2     ecut=   100.00 Ry     beta= 0.70
     Davidson diagonalization with overlap
     ethr =  5.07E-05,  avg # of iterations =  2.1

     total cpu time spent up to now is        4.2 secs

     total energy              =    -350.24144134 Ry
     Harris-Foulkes estimate   =    -350.24348307 Ry
     estimated scf accuracy    <       0.00424252 Ry

     iteration #  3     ecut=   100.00 Ry     beta= 0.70
     Davidson diagonalization with overlap
     ethr =  3.86E-05,  avg # of iterations =  1.6

     total cpu time spent up to now is        5.0 secs

     total energy              =    -350.24225163 Ry
     Harris-Foulkes estimate   =    -350.24223493 Ry
     estimated scf accuracy    <       0.00001553 Ry

     iteration #  4     ecut=   100.00 Ry     beta= 0.70
     Davidson diagonalization with overlap
     ethr =  1.41E-07,  avg # of iterations =  3.0

     total cpu time spent up to now is        5.9 secs

     total energy              =    -350.24226040 Ry
     Harris-Foulkes estimate   =    -350.24226024 Ry
     estimated scf accuracy    <       0.00000051 Ry

     iteration #  5     ecut=   100.00 Ry     beta= 0.70
     Davidson diagonalization with overlap
     ethr =  4.62E-09,  avg # of iterations =  1.0

     total cpu time spent up to now is        6.5 secs

     End of self-consistent calculation

          k = 0.0000 0.0000 0.0000 (  1917 PWs)   bands (ev):

     4.8052   7.9132   7.9132   7.9132   8.9644   8.9644  29.5457  32.8281
    32.8281  32.8281

          k =-0.1111 0.1111-0.1111 (  1952 PWs)   bands (ev):

     5.1818   7.8359   8.0122   8.0122   8.9333   8.9333  28.9608  30.5735
    32.7967  32.7968

          k =-0.2222 0.2222-0.2222 (  1943 PWs)   bands (ev):

     6.0536   7.9220   8.1260   8.1260   9.0171   9.0171  24.9371  30.1173
    32.5111  32.5111

          k =-0.3333 0.3333-0.3333 (  1940 PWs)   bands (ev):

     6.3802   8.0271   8.0271   9.2971   9.3901   9.3901  20.6218  29.3137
    31.7176  31.7176

          k =-0.4444 0.4444-0.4444 (  1937 PWs)   bands (ev):

     6.2953   7.9090   7.9090   9.7194   9.7194  11.5860  17.0146  28.6778
    30.9450  30.9450

          k = 0.0000 0.2222 0.0000 (  1941 PWs)   bands (ev):

     5.3085   7.7160   8.1015   8.1015   8.7772   9.0508  29.5615  31.2175
    31.2175  31.2227

          k =-0.1111 0.3333-0.1111 (  1945 PWs)   bands (ev):

     6.0574   7.5583   8.2247   8.2821   8.8167   9.1721  26.6620  29.8361
    30.0287  32.5602

          k =-0.2222 0.4444-0.2222 (  1951 PWs)   bands (ev):

     6.5966   7.9900   8.0109   8.2648   9.4835   9.7485  22.2555  29.1825
    29.2567  31.3975

          k =-0.3333 0.5556-0.3333 (  1946 PWs)   bands (ev):

     6.5253   7.8097   8.1314   8.8155   9.7591  11.7153  18.2468  28.2298
    29.1033  29.9262

          k = 0.5556-0.3333 0.5556 (  1956 PWs)   bands (ev):

     6.4920   7.7676   8.0636   9.1554   9.7035  13.0706  16.4348  27.4048
    29.4791  29.8816

          k = 0.4444-0.2222 0.4444 (  1940 PWs)   bands (ev):

     6.5965   7.8807   8.1291   8.7995   9.3051  11.1057  19.5275  27.1194
    30.0885  31.7133

          k = 0.3333-0.1111 0.3333 (  1938 PWs)   bands (ev):

     6.5636   7.7639   8.1715   8.2752   8.8165   9.7377  23.7276  27.4142
    31.5884  34.2308

          k = 0.2222-0.0000 0.2222 (  1943 PWs)   bands (ev):

     5.7600   7.6782   8.1645   8.1670   8.7469   9.1370  28.0868  28.0885
    32.1461  34.4165

          k = 0.0000 0.4444 0.0000 (  1964 PWs)   bands (ev):

     6.4576   7.2423   8.6270   8.6270   8.6632   9.2741  28.1449  28.1449
    29.2261  29.6129

          k =-0.1111 0.5556-0.1111 (  1950 PWs)   bands (ev):

     6.8104   7.1231   8.4198   8.7792   9.5282   9.9405  24.2976  26.9709
    27.5814  29.9066

          k =-0.2222 0.6667-0.2222 (  1948 PWs)   bands (ev):

     6.7700   7.4027   8.2941   8.6703   9.8001  12.1629  20.1234  25.5486
    26.6937  29.5781

          k = 0.6667-0.2222 0.6667 (  1942 PWs)   bands (ev):

     6.8378   7.5250   8.3558   8.5430   9.7265  14.8427  16.7660  23.9877
    27.4872  29.4500

          k = 0.5556-0.1111 0.5556 (  1947 PWs)   bands (ev):

     7.0656   7.6172   8.2048   8.5042   9.3023  13.2546  19.0327  23.1325
    29.3028  29.7981

          k = 0.4444 0.0000 0.4444 (  1945 PWs)   bands (ev):

     7.2695   7.5033   8.0089   8.5472   8.7936  11.1582  23.0079  23.1720
    30.7414  31.8203

          k = 0.0000 0.6667 0.0000 (  1948 PWs)   bands (ev):

     6.6219   6.7425   9.3366   9.3366   9.5364  10.4365  24.9385  25.3522
    25.3522  29.6840

          k =-0.1111 0.7778-0.1111 (  1947 PWs)   bands (ev):

     6.5476   6.6994   9.2098   9.3324   9.8229  12.5454  22.2187  22.8132
    24.7233  29.7067

          k = 0.7778-0.1111 0.7778 (  1933 PWs)   bands (ev):

     6.6447   7.0177   8.7347   9.1656   9.7964  15.4268  18.8168  20.9369
    25.2940  29.6020

          k = 0.6667-0.0000 0.6667 (  1935 PWs)   bands (ev):

     6.9347   7.5119   8.1360   8.9195   9.4868  15.7936  18.4602  20.1900
    26.9528  29.6058

          k = 0.0000 0.8889 0.0000 (  1948 PWs)   bands (ev):

     6.2971   6.4353   9.7127   9.8931   9.8931  13.4267  20.3592  23.6753
    23.6753  29.7349

          k = 0.8889 0.0000 0.8889 (  1938 PWs)   bands (ev):

     6.3656   6.5321   9.5717   9.6041   9.9195  14.8875  19.4046  21.7240
    23.8849  29.7320

          k =-0.2222 0.4444 0.0000 (  1943 PWs)   bands (ev):

     6.7804   7.3467   8.0810   8.6268   8.8849   9.7760  25.5215  25.8248
    30.2464  32.1989

          k =-0.3333 0.5556-0.1111 (  1942 PWs)   bands (ev):

     6.9645   7.7270   7.8341   8.6195   9.3239  11.2791  21.3439  25.2288
    28.1964  32.1668

          k = 0.5556-0.3333 0.7778 (  1939 PWs)   bands (ev):

     6.8516   7.5613   8.3270   8.5122   9.6595  13.6265  17.5455  25.4939
    26.5395  31.3553

          k =-0.2222 0.6667 0.0000 (  1942 PWs)   bands (ev):

     6.9229   6.9365   8.3948   9.3286   9.3974  11.5853  23.4403  23.6130
    25.2643  31.7250

          k = 0.6667-0.2222 0.8889 (  1943 PWs)   bands (ev):

     6.9032   7.1984   8.1908   9.0788   9.7267  14.0919  19.6177  23.1600
    23.7795  31.8638

          k = 0.5556-0.1111 0.7778 (  1940 PWs)   bands (ev):

     7.0925   7.4055   7.9819   8.8514   9.6775  16.1031  17.4011  21.8457
    24.6702  32.0661

          k = 0.4444 0.0000 0.6667 (  1942 PWs)   bands (ev):

     7.4335   7.4742   7.5952   8.9070   9.3348  13.4234  20.9106  21.3476
    26.2684  32.8456

          k = 0.7778-0.1111 1.0000 (  1952 PWs)   bands (ev):

     6.5627   6.6767   9.0265   9.5124   9.8918  14.5614  20.5006  22.1817
    22.3867  31.4703

          k = 0.6667-0.0000 0.8889 (  1931 PWs)   bands (ev):

     6.7639   7.0408   8.4829   9.1805   9.8857  16.8429  18.9015  19.8177
    23.1153  31.8584

          k = 0.5556-0.1111 1.0000 (  1934 PWs)   bands (ev):

     7.0355   7.3865   7.8432   9.0149   9.8882  16.6642  19.4939  20.3639
    21.7425  35.0360

     the Fermi energy is    12.9228 ev

!    total energy              =    -350.24226042 Ry
     Harris-Foulkes estimate   =    -350.24226043 Ry
     estimated scf accuracy    <          6.3E-09 Ry

     total all-electron energy =    -10627.252669 Ry

     The total energy is the sum of the following terms:

     one-electron contribution =       1.60727934 Ry
     hartree contribution      =      14.56792636 Ry
     xc contribution           =     -22.14262925 Ry
     ewald contribution        =     -71.86118018 Ry
     one-center paw contrib.   =    -272.41359904 Ry
     smearing contrib. (-TS)   =      -0.00005766 Ry

     convergence has been achieved in   5 iterations

     Forces acting on atoms (cartesian axes, Ry/au):

     atom    1 type  1   force =     0.00000000    0.00000000    0.00000000

     Total force =     0.000000     Total SCF correction =     0.000000


     Computing stress (Cartesian axis) and pressure

          total   stress  (Ry/bohr**3)                   (kbar)     P=  -22.97
  -0.00015615   0.00000000   0.00000000        -22.97      0.00      0.00
   0.00000000  -0.00015615  -0.00000000          0.00    -22.97     -0.00
   0.00000000  -0.00000000  -0.00015615          0.00     -0.00    -22.97


     Writing output data file Ag.save/

     init_run     :      0.60s CPU      0.64s WALL (       1 calls)
     electrons    :      4.78s CPU      5.03s WALL (       1 calls)
     forces       :      0.10s CPU      0.10s WALL (       1 calls)
     stress       :      0.32s CPU      0.32s WALL (       1 calls)

     Called by init_run:
     wfcinit      :      0.21s CPU      0.22s WALL (       1 calls)
     potinit      :      0.13s CPU      0.15s WALL (       1 calls)
     hinit0       :      0.22s CPU      0.22s WALL (       1 calls)

     Called by electrons:
     c_bands      :      3.46s CPU      3.65s WALL (       6 calls)
     sum_band     :      0.71s CPU      0.76s WALL (       6 calls)
     v_of_rho     :      0.06s CPU      0.06s WALL (       6 calls)
     newd         :      0.10s CPU      0.10s WALL (       6 calls)
     PAW_pot      :      0.58s CPU      0.61s WALL (       6 calls)
     mix_rho      :      0.00s CPU      0.00s WALL (       6 calls)

     Called by c_bands:
     init_us_2    :      0.12s CPU      0.12s WALL (     525 calls)
     cegterg      :      3.30s CPU      3.49s WALL (     210 calls)

     Called by sum_band:
     sum_band:bec :      0.00s CPU      0.00s WALL (     210 calls)
     addusdens    :      0.10s CPU      0.10s WALL (       6 calls)

     Called by *egterg:
     h_psi        :      2.77s CPU      2.94s WALL (     759 calls)
     s_psi        :      0.08s CPU      0.08s WALL (     759 calls)
     g_psi        :      0.01s CPU      0.01s WALL (     514 calls)
     cdiaghg      :      0.18s CPU      0.18s WALL (     689 calls)

     Called by h_psi:
     h_psi:pot    :      2.76s CPU      2.93s WALL (     759 calls)
     h_psi:calbec :      0.16s CPU      0.17s WALL (     759 calls)
     vloc_psi     :      2.51s CPU      2.66s WALL (     759 calls)
     add_vuspsi   :      0.08s CPU      0.09s WALL (     759 calls)

     General routines
     calbec       :      0.27s CPU      0.28s WALL (    1144 calls)
     fft          :      0.03s CPU      0.04s WALL (      93 calls)
     ffts         :      0.00s CPU      0.00s WALL (       6 calls)
     fftw         :      2.81s CPU      2.99s WALL (   13028 calls)

     Parallel routines
     fft_scatt_xy :      0.21s CPU      0.23s WALL (   13127 calls)
     fft_scatt_yz :      0.88s CPU      0.93s WALL (   13127 calls)

     PWSCF        :     6.71s CPU         7.08s WALL


   This run was terminated on:   0: 4: 7  27Mar2024            

=------------------------------------------------------------------------------=
   JOB DONE.
=------------------------------------------------------------------------------=
