
     Program PWSCF v.6.3MaX starts on 27Mar2024 at  0:35:46 

     This program is part of the open-source Quantum ESPRESSO suite
     for quantum simulation of materials; please cite
         "P. Giannozzi et al., J. Phys.:Condens. Matter 21 395502 (2009);
         "P. Giannozzi et al., J. Phys.:Condens. Matter 29 465901 (2017);
          URL http://www.quantum-espresso.org", 
     in publications or presentations arising from this work. More details at
     http://www.quantum-espresso.org/quote

     Parallel version (MPI), running on     5 processors

     MPI processes distributed on     1 nodes
     R & G space division:  proc/nbgrp/npool/nimage =       5
     Waiting for input...
     Reading input from standard input

     Current dimensions of program PWSCF are:
     Max number of different atomic species (ntypx) = 10
     Max number of k-points (npk) =  40000
     Max angular momentum in pseudopotentials (lmaxx) =  3

     Subspace diagonalization in iterative solution of the eigenvalue problem:
     a serial algorithm will be used


     Parallelization info
     --------------------
     sticks:   dense  smooth     PW     G-vecs:    dense   smooth      PW
     Min         122     122     39                 2016     2016     361
     Max         123     123     40                 2017     2017     363
     Sum         613     613    199                10081    10081    1807



     bravais-lattice index     =            2
     lattice parameter (alat)  =       7.7200  a.u.
     unit-cell volume          =     115.0249 (a.u.)^3
     number of atoms/cell      =            1
     number of atomic types    =            1
     number of electrons       =        11.00
     number of Kohn-Sham states=           10
     kinetic-energy cutoff     =      75.0000  Ry
     charge density cutoff     =     300.0000  Ry
     convergence threshold     =      1.0E-08
     mixing beta               =       0.7000
     number of iterations used =            8  plain     mixing
     Exchange-correlation      = PBESOL ( 1  4 10  8 0 0)

     celldm(1)=   7.720000  celldm(2)=   0.000000  celldm(3)=   0.000000
     celldm(4)=   0.000000  celldm(5)=   0.000000  celldm(6)=   0.000000

     crystal axes: (cart. coord. in units of alat)
               a(1) = (  -0.500000   0.000000   0.500000 )  
               a(2) = (   0.000000   0.500000   0.500000 )  
               a(3) = (  -0.500000   0.500000   0.000000 )  

     reciprocal axes: (cart. coord. in units 2 pi/alat)
               b(1) = ( -1.000000 -1.000000  1.000000 )  
               b(2) = (  1.000000  1.000000  1.000000 )  
               b(3) = ( -1.000000  1.000000 -1.000000 )  


     PseudoPot. # 1 for Ag read from file:
     /home/lorenzo/pseudos/Ag/Ag.pbesol-n-rrkjus_psl.1.0.0.UPF
     MD5 check sum: 3b43e8aa747a56f565f44d11355b8b45
     Pseudo is Ultrasoft + core correction, Zval = 11.0
     Generated using "atomic" code by A. Dal Corso v.6.2.2
     Using radial grid of 1237 points,  6 beta functions with: 
                l(1) =   0
                l(2) =   0
                l(3) =   1
                l(4) =   1
                l(5) =   2
                l(6) =   2
     Q(r) pseudized with 0 coefficients 


     atomic species   valence    mass     pseudopotential
        Ag            11.00   107.86820     Ag( 1.00)

     48 Sym. Ops., with inversion, found



   Cartesian axes

     site n.     atom                  positions (alat units)
         1           Ag  tau(   1) = (   0.0000000   0.0000000   0.0000000  )

     number of k points=    35  gaussian smearing, width (Ry)=  0.0100
                       cart. coord. in units 2pi/alat
        k(    1) = (   0.0000000   0.0000000   0.0000000), wk =   0.0027435
        k(    2) = (  -0.1111111   0.1111111  -0.1111111), wk =   0.0219479
        k(    3) = (  -0.2222222   0.2222222  -0.2222222), wk =   0.0219479
        k(    4) = (  -0.3333333   0.3333333  -0.3333333), wk =   0.0219479
        k(    5) = (  -0.4444444   0.4444444  -0.4444444), wk =   0.0219479
        k(    6) = (   0.0000000   0.2222222   0.0000000), wk =   0.0164609
        k(    7) = (  -0.1111111   0.3333333  -0.1111111), wk =   0.0658436
        k(    8) = (  -0.2222222   0.4444444  -0.2222222), wk =   0.0658436
        k(    9) = (  -0.3333333   0.5555556  -0.3333333), wk =   0.0658436
        k(   10) = (   0.5555556  -0.3333333   0.5555556), wk =   0.0658436
        k(   11) = (   0.4444444  -0.2222222   0.4444444), wk =   0.0658436
        k(   12) = (   0.3333333  -0.1111111   0.3333333), wk =   0.0658436
        k(   13) = (   0.2222222  -0.0000000   0.2222222), wk =   0.0329218
        k(   14) = (   0.0000000   0.4444444   0.0000000), wk =   0.0164609
        k(   15) = (  -0.1111111   0.5555556  -0.1111111), wk =   0.0658436
        k(   16) = (  -0.2222222   0.6666667  -0.2222222), wk =   0.0658436
        k(   17) = (   0.6666667  -0.2222222   0.6666667), wk =   0.0658436
        k(   18) = (   0.5555556  -0.1111111   0.5555556), wk =   0.0658436
        k(   19) = (   0.4444444   0.0000000   0.4444444), wk =   0.0329218
        k(   20) = (   0.0000000   0.6666667   0.0000000), wk =   0.0164609
        k(   21) = (  -0.1111111   0.7777778  -0.1111111), wk =   0.0658436
        k(   22) = (   0.7777778  -0.1111111   0.7777778), wk =   0.0658436
        k(   23) = (   0.6666667  -0.0000000   0.6666667), wk =   0.0329218
        k(   24) = (   0.0000000   0.8888889   0.0000000), wk =   0.0164609
        k(   25) = (   0.8888889   0.0000000   0.8888889), wk =   0.0329218
        k(   26) = (  -0.2222222   0.4444444   0.0000000), wk =   0.0658436
        k(   27) = (  -0.3333333   0.5555556  -0.1111111), wk =   0.1316872
        k(   28) = (   0.5555556  -0.3333333   0.7777778), wk =   0.1316872
        k(   29) = (  -0.2222222   0.6666667   0.0000000), wk =   0.0658436
        k(   30) = (   0.6666667  -0.2222222   0.8888889), wk =   0.1316872
        k(   31) = (   0.5555556  -0.1111111   0.7777778), wk =   0.1316872
        k(   32) = (   0.4444444   0.0000000   0.6666667), wk =   0.0658436
        k(   33) = (   0.7777778  -0.1111111   1.0000000), wk =   0.0658436
        k(   34) = (   0.6666667  -0.0000000   0.8888889), wk =   0.0658436
        k(   35) = (   0.5555556  -0.1111111   1.0000000), wk =   0.0658436

     Dense  grid:    10081 G-vectors     FFT dimensions: (  32,  32,  32)

     Estimated max dynamical RAM per process >      10.67 MB

     Estimated total dynamical RAM >      53.37 MB

     Initial potential from superposition of free atoms

     starting charge   10.99964, renormalised to   11.00000
     Starting wfcs are    9 randomized atomic wfcs +    1 random wfcs

     total cpu time spent up to now is        1.1 secs

     Self-consistent Calculation

     iteration #  1     ecut=    75.00 Ry     beta= 0.70
     Davidson diagonalization with overlap
     ethr =  1.00E-02,  avg # of iterations =  4.6

     Threshold (ethr) on eigenvalues was too large:
     Diagonalizing with lowered threshold

     Davidson diagonalization with overlap
     ethr =  4.29E-05,  avg # of iterations =  2.3

     total cpu time spent up to now is        2.0 secs

     total energy              =     -84.18142146 Ry
     Harris-Foulkes estimate   =     -84.18471986 Ry
     estimated scf accuracy    <       0.00509755 Ry

     iteration #  2     ecut=    75.00 Ry     beta= 0.70
     Davidson diagonalization with overlap
     ethr =  4.63E-05,  avg # of iterations =  2.0

     total cpu time spent up to now is        2.5 secs

     total energy              =     -84.18260914 Ry
     Harris-Foulkes estimate   =     -84.18451495 Ry
     estimated scf accuracy    <       0.00354585 Ry

     iteration #  3     ecut=    75.00 Ry     beta= 0.70
     Davidson diagonalization with overlap
     ethr =  3.22E-05,  avg # of iterations =  2.0

     total cpu time spent up to now is        2.9 secs

     total energy              =     -84.18339235 Ry
     Harris-Foulkes estimate   =     -84.18339441 Ry
     estimated scf accuracy    <       0.00002528 Ry

     iteration #  4     ecut=    75.00 Ry     beta= 0.70
     Davidson diagonalization with overlap
     ethr =  2.30E-07,  avg # of iterations =  2.8

     total cpu time spent up to now is        3.3 secs

     total energy              =     -84.18340147 Ry
     Harris-Foulkes estimate   =     -84.18340145 Ry
     estimated scf accuracy    <       0.00000053 Ry

     iteration #  5     ecut=    75.00 Ry     beta= 0.70
     Davidson diagonalization with overlap
     ethr =  4.78E-09,  avg # of iterations =  2.1

     total cpu time spent up to now is        3.7 secs

     total energy              =     -84.18340157 Ry
     Harris-Foulkes estimate   =     -84.18340159 Ry
     estimated scf accuracy    <       0.00000003 Ry

     iteration #  6     ecut=    75.00 Ry     beta= 0.70
     Davidson diagonalization with overlap
     ethr =  2.52E-10,  avg # of iterations =  2.3

     total cpu time spent up to now is        4.2 secs

     End of self-consistent calculation

          k = 0.0000 0.0000 0.0000 (  1243 PWs)   bands (ev):

     4.8082   7.9213   7.9213   7.9213   8.9703   8.9703  29.5470  32.8313
    32.8313  32.8313

          k =-0.1111 0.1111-0.1111 (  1267 PWs)   bands (ev):

     5.1849   7.8439   8.0203   8.0203   8.9392   8.9392  28.9643  30.5760
    32.8007  32.8007

          k =-0.2222 0.2222-0.2222 (  1272 PWs)   bands (ev):

     6.0574   7.9291   8.1336   8.1336   9.0236   9.0236  24.9425  30.1193
    32.5163  32.5163

          k =-0.3333 0.3333-0.3333 (  1272 PWs)   bands (ev):

     6.3859   8.0340   8.0340   9.3022   9.3977   9.3977  20.6277  29.3156
    31.7227  31.7227

          k =-0.4444 0.4444-0.4444 (  1254 PWs)   bands (ev):

     6.3015   7.9155   7.9155   9.7275   9.7275  11.5902  17.0210  28.6795
    30.9495  30.9495

          k = 0.0000 0.2222 0.0000 (  1271 PWs)   bands (ev):

     5.3116   7.7239   8.1098   8.1098   8.7829   9.0567  29.5638  31.2221
    31.2221  31.2257

          k =-0.1111 0.3333-0.1111 (  1280 PWs)   bands (ev):

     6.0608   7.5660   8.2321   8.2902   8.8232   9.1783  26.6670  29.8390
    30.0338  32.5633

          k =-0.2222 0.4444-0.2222 (  1267 PWs)   bands (ev):

     6.6020   7.9965   8.0174   8.2720   9.4908   9.7551  22.2612  29.1853
    29.2619  31.4025

          k =-0.3333 0.5556-0.3333 (  1255 PWs)   bands (ev):

     6.5316   7.8159   8.1381   8.8226   9.7671  11.7208  18.2528  28.2328
    29.1080  29.9307

          k = 0.5556-0.3333 0.5556 (  1250 PWs)   bands (ev):

     6.4984   7.7738   8.0701   9.1628   9.7117  13.0754  16.4413  27.4087
    29.4825  29.8862

          k = 0.4444-0.2222 0.4444 (  1272 PWs)   bands (ev):

     6.6027   7.8873   8.1357   8.8059   9.3130  11.1119  19.5334  27.1239
    30.0914  31.7180

          k = 0.3333-0.1111 0.3333 (  1274 PWs)   bands (ev):

     6.5682   7.7712   8.1778   8.2825   8.8234   9.7448  23.7331  27.4190
    31.5913  34.2334

          k = 0.2222-0.0000 0.2222 (  1265 PWs)   bands (ev):

     5.7633   7.6861   8.1729   8.1747   8.7526   9.1434  28.0912  28.0932
    32.1486  34.4200

          k = 0.0000 0.4444 0.0000 (  1283 PWs)   bands (ev):

     6.4611   7.2499   8.6356   8.6356   8.6684   9.2801  28.1500  28.1500
    29.2292  29.6172

          k =-0.1111 0.5556-0.1111 (  1277 PWs)   bands (ev):

     6.8153   7.1298   8.4269   8.7870   9.5352   9.9467  24.3028  26.9758
    27.5856  29.9117

          k =-0.2222 0.6667-0.2222 (  1257 PWs)   bands (ev):

     6.7763   7.4083   8.3016   8.6773   9.8082  12.1687  20.1288  25.5533
    26.6984  29.5827

          k = 0.6667-0.2222 0.6667 (  1254 PWs)   bands (ev):

     6.8444   7.5306   8.3634   8.5495   9.7349  14.8480  16.7719  23.9926
    27.4919  29.4540

          k = 0.5556-0.1111 0.5556 (  1259 PWs)   bands (ev):

     7.0723   7.6235   8.2113   8.5103   9.3108  13.2605  19.0385  23.1377
    29.3076  29.8015

          k = 0.4444 0.0000 0.4444 (  1267 PWs)   bands (ev):

     7.2754   7.5109   8.0142   8.5528   8.8024  11.1650  23.0127  23.1781
    30.7444  31.8252

          k = 0.0000 0.6667 0.0000 (  1266 PWs)   bands (ev):

     6.6264   6.7497   9.3456   9.3456   9.5425  10.4407  24.9434  25.3569
    25.3569  29.6898

          k =-0.1111 0.7778-0.1111 (  1261 PWs)   bands (ev):

     6.5528   6.7059   9.2182   9.3396   9.8311  12.5504  22.2236  22.8182
    24.7277  29.7122

          k = 0.7778-0.1111 0.7778 (  1265 PWs)   bands (ev):

     6.6506   7.0238   8.7428   9.1720   9.8054  15.4322  18.8218  20.9421
    25.2984  29.6071

          k = 0.6667-0.0000 0.6667 (  1276 PWs)   bands (ev):

     6.9409   7.5177   8.1437   8.9253   9.4961  15.7991  18.4661  20.1949
    26.9574  29.6101

          k = 0.0000 0.8889 0.0000 (  1266 PWs)   bands (ev):

     6.3016   6.4423   9.7188   9.9027   9.9027  13.4308  20.3644  23.6794
    23.6794  29.7414

          k = 0.8889 0.0000 0.8889 (  1264 PWs)   bands (ev):

     6.3704   6.5389   9.5807   9.6103   9.9291  14.8921  19.4098  21.7285
    23.8890  29.7378

          k =-0.2222 0.4444 0.0000 (  1277 PWs)   bands (ev):

     6.7843   7.3543   8.0877   8.6354   8.8906   9.7831  25.5263  25.8305
    30.2501  32.2022

          k =-0.3333 0.5556-0.1111 (  1260 PWs)   bands (ev):

     6.9708   7.7325   7.8412   8.6265   9.3314  11.2856  21.3495  25.2339
    28.2006  32.1707

          k = 0.5556-0.3333 0.7778 (  1260 PWs)   bands (ev):

     6.8583   7.5671   8.3338   8.5192   9.6679  13.6320  17.5514  25.4987
    26.5440  31.3588

          k =-0.2222 0.6667 0.0000 (  1260 PWs)   bands (ev):

     6.9275   6.9438   8.4021   9.3377   9.4034  11.5912  23.4450  23.6185
    25.2690  31.7297

          k = 0.6667-0.2222 0.8889 (  1254 PWs)   bands (ev):

     6.9092   7.2043   8.1982   9.0853   9.7355  14.0976  19.6230  23.1650
    23.7843  31.8682

          k = 0.5556-0.1111 0.7778 (  1258 PWs)   bands (ev):

     7.0986   7.4116   7.9895   8.8575   9.6866  16.1085  17.4068  21.8507
    24.6750  32.0700

          k = 0.4444 0.0000 0.6667 (  1252 PWs)   bands (ev):

     7.4395   7.4817   7.6011   8.9129   9.3439  13.4294  20.9165  21.3524
    26.2731  32.8493

          k = 0.7778-0.1111 1.0000 (  1260 PWs)   bands (ev):

     6.5674   6.6839   9.0346   9.5188   9.9014  14.5665  20.5057  22.1867
    22.3912  31.4758

          k = 0.6667-0.0000 0.8889 (  1261 PWs)   bands (ev):

     6.7693   7.0474   8.4909   9.1864   9.8953  16.8484  18.9065  19.8229
    23.1201  31.8630

          k = 0.5556-0.1111 1.0000 (  1237 PWs)   bands (ev):

     7.0403   7.3940   7.8507   9.0208   9.8977  16.6696  19.4995  20.3686
    21.7476  35.0395

     the Fermi energy is    12.9276 ev

!    total energy              =     -84.18340158 Ry
     Harris-Foulkes estimate   =     -84.18340158 Ry
     estimated scf accuracy    <          6.6E-10 Ry

     The total energy is the sum of the following terms:

     one-electron contribution =      -4.74097318 Ry
     hartree contribution      =      14.55913337 Ry
     xc contribution           =     -22.14032394 Ry
     ewald contribution        =     -71.86118018 Ry
     smearing contrib. (-TS)   =      -0.00005765 Ry

     convergence has been achieved in   6 iterations

     Forces acting on atoms (cartesian axes, Ry/au):

     atom    1 type  1   force =     0.00000000    0.00000000    0.00000000

     Total force =     0.000000     Total SCF correction =     0.000000


     Computing stress (Cartesian axis) and pressure

          total   stress  (Ry/bohr**3)                   (kbar)     P=  -22.56
  -0.00015338  -0.00000000  -0.00000000        -22.56     -0.00     -0.00
  -0.00000000  -0.00015338   0.00000000         -0.00    -22.56      0.00
  -0.00000000   0.00000000  -0.00015338         -0.00      0.00    -22.56


     Writing output data file Ag.save/

     init_run     :      0.32s CPU      0.34s WALL (       1 calls)
     electrons    :      2.89s CPU      3.11s WALL (       1 calls)
     forces       :      0.08s CPU      0.08s WALL (       1 calls)
     stress       :      0.27s CPU      0.27s WALL (       1 calls)

     Called by init_run:
     wfcinit      :      0.12s CPU      0.14s WALL (       1 calls)
     potinit      :      0.01s CPU      0.01s WALL (       1 calls)
     hinit0       :      0.17s CPU      0.17s WALL (       1 calls)

     Called by electrons:
     c_bands      :      2.31s CPU      2.51s WALL (       7 calls)
     sum_band     :      0.48s CPU      0.51s WALL (       7 calls)
     v_of_rho     :      0.04s CPU      0.04s WALL (       7 calls)
     newd         :      0.07s CPU      0.07s WALL (       7 calls)
     mix_rho      :      0.00s CPU      0.00s WALL (       7 calls)

     Called by c_bands:
     init_us_2    :      0.09s CPU      0.09s WALL (     595 calls)
     cegterg      :      2.20s CPU      2.38s WALL (     245 calls)

     Called by sum_band:
     sum_band:bec :      0.00s CPU      0.00s WALL (     245 calls)
     addusdens    :      0.06s CPU      0.07s WALL (       7 calls)

     Called by *egterg:
     h_psi        :      1.76s CPU      1.92s WALL (     911 calls)
     s_psi        :      0.06s CPU      0.06s WALL (     911 calls)
     g_psi        :      0.01s CPU      0.01s WALL (     631 calls)
     cdiaghg      :      0.18s CPU      0.19s WALL (     841 calls)

     Called by h_psi:
     h_psi:pot    :      1.75s CPU      1.91s WALL (     911 calls)
     h_psi:calbec :      0.09s CPU      0.10s WALL (     911 calls)
     vloc_psi     :      1.59s CPU      1.74s WALL (     911 calls)
     add_vuspsi   :      0.06s CPU      0.06s WALL (     911 calls)

     General routines
     calbec       :      0.15s CPU      0.16s WALL (    1331 calls)
     fft          :      0.02s CPU      0.03s WALL (     104 calls)
     ffts         :      0.00s CPU      0.00s WALL (       7 calls)
     fftw         :      1.77s CPU      1.93s WALL (   15152 calls)

     Parallel routines
     fft_scatt_xy :      0.18s CPU      0.20s WALL (   15263 calls)
     fft_scatt_yz :      0.54s CPU      0.59s WALL (   15263 calls)

     PWSCF        :     4.30s CPU         4.61s WALL


   This run was terminated on:   0:35:51  27Mar2024            

=------------------------------------------------------------------------------=
   JOB DONE.
=------------------------------------------------------------------------------=
