
     Program PWSCF v.6.3MaX starts on 27Mar2024 at  0:42:54 

     This program is part of the open-source Quantum ESPRESSO suite
     for quantum simulation of materials; please cite
         "P. Giannozzi et al., J. Phys.:Condens. Matter 21 395502 (2009);
         "P. Giannozzi et al., J. Phys.:Condens. Matter 29 465901 (2017);
          URL http://www.quantum-espresso.org", 
     in publications or presentations arising from this work. More details at
     http://www.quantum-espresso.org/quote

     Parallel version (MPI), running on     5 processors

     MPI processes distributed on     1 nodes
     R & G space division:  proc/nbgrp/npool/nimage =       5
     Waiting for input...
     Reading input from standard input

     Current dimensions of program PWSCF are:
     Max number of different atomic species (ntypx) = 10
     Max number of k-points (npk) =  40000
     Max angular momentum in pseudopotentials (lmaxx) =  3

     Subspace diagonalization in iterative solution of the eigenvalue problem:
     a serial algorithm will be used


     Parallelization info
     --------------------
     sticks:   dense  smooth     PW     G-vecs:    dense   smooth      PW
     Min         149     149     43                 2664     2664     445
     Max         149     149     45                 2665     2665     446
     Sum         745     745    223                13323    13323    2229



     bravais-lattice index     =            2
     lattice parameter (alat)  =       7.7200  a.u.
     unit-cell volume          =     115.0249 (a.u.)^3
     number of atoms/cell      =            1
     number of atomic types    =            1
     number of electrons       =        11.00
     number of Kohn-Sham states=           10
     kinetic-energy cutoff     =      90.0000  Ry
     charge density cutoff     =     360.0000  Ry
     convergence threshold     =      1.0E-08
     mixing beta               =       0.7000
     number of iterations used =            8  plain     mixing
     Exchange-correlation      = PBE ( 1  4  3  4 0 0)

     celldm(1)=   7.720000  celldm(2)=   0.000000  celldm(3)=   0.000000
     celldm(4)=   0.000000  celldm(5)=   0.000000  celldm(6)=   0.000000

     crystal axes: (cart. coord. in units of alat)
               a(1) = (  -0.500000   0.000000   0.500000 )  
               a(2) = (   0.000000   0.500000   0.500000 )  
               a(3) = (  -0.500000   0.500000   0.000000 )  

     reciprocal axes: (cart. coord. in units 2 pi/alat)
               b(1) = ( -1.000000 -1.000000  1.000000 )  
               b(2) = (  1.000000  1.000000  1.000000 )  
               b(3) = ( -1.000000  1.000000 -1.000000 )  


     PseudoPot. # 1 for Ag read from file:
     /home/lorenzo/pseudos/Ag/Ag.pbe-n-rrkjus_psl.1.0.0.UPF
     MD5 check sum: d841cbfac2b0861aec33b46768a516bf
     Pseudo is Ultrasoft + core correction, Zval = 11.0
     Generated using "atomic" code by A. Dal Corso v.6.2.2
     Using radial grid of 1237 points,  6 beta functions with: 
                l(1) =   0
                l(2) =   0
                l(3) =   1
                l(4) =   1
                l(5) =   2
                l(6) =   2
     Q(r) pseudized with 0 coefficients 


     atomic species   valence    mass     pseudopotential
        Ag            11.00   107.86820     Ag( 1.00)

     48 Sym. Ops., with inversion, found



   Cartesian axes

     site n.     atom                  positions (alat units)
         1           Ag  tau(   1) = (   0.0000000   0.0000000   0.0000000  )

     number of k points=    56  gaussian smearing, width (Ry)=  0.0100
                       cart. coord. in units 2pi/alat
        k(    1) = (   0.0000000   0.0000000   0.0000000), wk =   0.0015026
        k(    2) = (  -0.0909091   0.0909091  -0.0909091), wk =   0.0120210
        k(    3) = (  -0.1818182   0.1818182  -0.1818182), wk =   0.0120210
        k(    4) = (  -0.2727273   0.2727273  -0.2727273), wk =   0.0120210
        k(    5) = (  -0.3636364   0.3636364  -0.3636364), wk =   0.0120210
        k(    6) = (  -0.4545455   0.4545455  -0.4545455), wk =   0.0120210
        k(    7) = (   0.0000000   0.1818182   0.0000000), wk =   0.0090158
        k(    8) = (  -0.0909091   0.2727273  -0.0909091), wk =   0.0360631
        k(    9) = (  -0.1818182   0.3636364  -0.1818182), wk =   0.0360631
        k(   10) = (  -0.2727273   0.4545455  -0.2727273), wk =   0.0360631
        k(   11) = (  -0.3636364   0.5454545  -0.3636364), wk =   0.0360631
        k(   12) = (   0.5454545  -0.3636364   0.5454545), wk =   0.0360631
        k(   13) = (   0.4545455  -0.2727273   0.4545455), wk =   0.0360631
        k(   14) = (   0.3636364  -0.1818182   0.3636364), wk =   0.0360631
        k(   15) = (   0.2727273  -0.0909091   0.2727273), wk =   0.0360631
        k(   16) = (   0.1818182  -0.0000000   0.1818182), wk =   0.0180316
        k(   17) = (   0.0000000   0.3636364   0.0000000), wk =   0.0090158
        k(   18) = (  -0.0909091   0.4545455  -0.0909091), wk =   0.0360631
        k(   19) = (  -0.1818182   0.5454545  -0.1818182), wk =   0.0360631
        k(   20) = (  -0.2727273   0.6363636  -0.2727273), wk =   0.0360631
        k(   21) = (   0.6363636  -0.2727273   0.6363636), wk =   0.0360631
        k(   22) = (   0.5454545  -0.1818182   0.5454545), wk =   0.0360631
        k(   23) = (   0.4545455  -0.0909091   0.4545455), wk =   0.0360631
        k(   24) = (   0.3636364   0.0000000   0.3636364), wk =   0.0180316
        k(   25) = (   0.0000000   0.5454545   0.0000000), wk =   0.0090158
        k(   26) = (  -0.0909091   0.6363636  -0.0909091), wk =   0.0360631
        k(   27) = (  -0.1818182   0.7272727  -0.1818182), wk =   0.0360631
        k(   28) = (   0.7272727  -0.1818182   0.7272727), wk =   0.0360631
        k(   29) = (   0.6363636  -0.0909091   0.6363636), wk =   0.0360631
        k(   30) = (   0.5454545   0.0000000   0.5454545), wk =   0.0180316
        k(   31) = (   0.0000000   0.7272727   0.0000000), wk =   0.0090158
        k(   32) = (  -0.0909091   0.8181818  -0.0909091), wk =   0.0360631
        k(   33) = (   0.8181818  -0.0909091   0.8181818), wk =   0.0360631
        k(   34) = (   0.7272727   0.0000000   0.7272727), wk =   0.0180316
        k(   35) = (   0.0000000   0.9090909   0.0000000), wk =   0.0090158
        k(   36) = (   0.9090909  -0.0000000   0.9090909), wk =   0.0180316
        k(   37) = (  -0.1818182   0.3636364   0.0000000), wk =   0.0360631
        k(   38) = (  -0.2727273   0.4545455  -0.0909091), wk =   0.0721262
        k(   39) = (  -0.3636364   0.5454545  -0.1818182), wk =   0.0721262
        k(   40) = (   0.5454545  -0.3636364   0.7272727), wk =   0.0721262
        k(   41) = (  -0.1818182   0.5454545   0.0000000), wk =   0.0360631
        k(   42) = (  -0.2727273   0.6363636  -0.0909091), wk =   0.0721262
        k(   43) = (   0.6363636  -0.2727273   0.8181818), wk =   0.0721262
        k(   44) = (   0.5454545  -0.1818182   0.7272727), wk =   0.0721262
        k(   45) = (   0.4545455  -0.0909091   0.6363636), wk =   0.0721262
        k(   46) = (   0.3636364   0.0000000   0.5454545), wk =   0.0360631
        k(   47) = (  -0.1818182   0.7272727   0.0000000), wk =   0.0360631
        k(   48) = (   0.7272727  -0.1818182   0.9090909), wk =   0.0721262
        k(   49) = (   0.6363636  -0.0909091   0.8181818), wk =   0.0721262
        k(   50) = (   0.5454545   0.0000000   0.7272727), wk =   0.0360631
        k(   51) = (   0.8181818  -0.0909091   1.0000000), wk =   0.0360631
        k(   52) = (   0.7272727   0.0000000   0.9090909), wk =   0.0360631
        k(   53) = (   0.6363636  -0.2727273   1.0000000), wk =   0.0360631
        k(   54) = (   0.5454545  -0.1818182   0.9090909), wk =   0.0721262
        k(   55) = (   0.6363636  -0.0909091   1.0000000), wk =   0.0360631
        k(   56) = (   0.5454545   0.0000000   0.9090909), wk =   0.0360631

     Dense  grid:    13323 G-vectors     FFT dimensions: (  36,  36,  36)

     Estimated max dynamical RAM per process >      14.83 MB

     Estimated total dynamical RAM >      74.17 MB

     Initial potential from superposition of free atoms

     starting charge   10.99960, renormalised to   11.00000
     Starting wfcs are    9 randomized atomic wfcs +    1 random wfcs

     total cpu time spent up to now is        1.3 secs

     Self-consistent Calculation

     iteration #  1     ecut=    90.00 Ry     beta= 0.70
     Davidson diagonalization with overlap
     ethr =  1.00E-02,  avg # of iterations =  4.5

     Threshold (ethr) on eigenvalues was too large:
     Diagonalizing with lowered threshold

     Davidson diagonalization with overlap
     ethr =  2.57E-05,  avg # of iterations =  2.5

     total cpu time spent up to now is        3.4 secs

     total energy              =     -84.27288170 Ry
     Harris-Foulkes estimate   =     -84.27463765 Ry
     estimated scf accuracy    <       0.00312877 Ry

     iteration #  2     ecut=    90.00 Ry     beta= 0.70
     Davidson diagonalization with overlap
     ethr =  2.84E-05,  avg # of iterations =  2.0

     total cpu time spent up to now is        4.8 secs

     total energy              =     -84.27354336 Ry
     Harris-Foulkes estimate   =     -84.27461062 Ry
     estimated scf accuracy    <       0.00196796 Ry

     iteration #  3     ecut=    90.00 Ry     beta= 0.70
     Davidson diagonalization with overlap
     ethr =  1.79E-05,  avg # of iterations =  2.0

     total cpu time spent up to now is        5.7 secs

     total energy              =     -84.27400297 Ry
     Harris-Foulkes estimate   =     -84.27400301 Ry
     estimated scf accuracy    <       0.00002984 Ry

     iteration #  4     ecut=    90.00 Ry     beta= 0.70
     Davidson diagonalization with overlap
     ethr =  2.71E-07,  avg # of iterations =  2.3

     total cpu time spent up to now is        6.6 secs

     total energy              =     -84.27400931 Ry
     Harris-Foulkes estimate   =     -84.27400919 Ry
     estimated scf accuracy    <       0.00000021 Ry

     iteration #  5     ecut=    90.00 Ry     beta= 0.70
     Davidson diagonalization with overlap
     ethr =  1.94E-09,  avg # of iterations =  2.5

     total cpu time spent up to now is        7.7 secs

     total energy              =     -84.27400940 Ry
     Harris-Foulkes estimate   =     -84.27400943 Ry
     estimated scf accuracy    <       0.00000005 Ry

     iteration #  6     ecut=    90.00 Ry     beta= 0.70
     Davidson diagonalization with overlap
     ethr =  4.94E-10,  avg # of iterations =  2.1

     total cpu time spent up to now is        8.6 secs

     End of self-consistent calculation

          k = 0.0000 0.0000 0.0000 (  1639 PWs)   bands (ev):

     5.0679   8.0823   8.0823   8.0823   9.1185   9.1185  29.8002  33.0912
    33.0912  33.0912

          k =-0.0909 0.0909-0.0909 (  1669 PWs)   bands (ev):

     5.3230   8.0273   8.1514   8.1514   9.0947   9.0947  29.5741  31.1830
    33.0725  33.0725

          k =-0.1818 0.1818-0.1818 (  1666 PWs)   bands (ev):

     5.9896   7.9900   8.2748   8.2748   9.1057   9.1057  26.7793  30.5200
    32.9278  32.9278

          k =-0.2727 0.2727-0.2727 (  1643 PWs)   bands (ev):

     6.5406   8.2654   8.2654   8.5550   9.3208   9.3208  23.1851  30.0406
    32.4681  32.4681

          k =-0.3636 0.3636-0.3636 (  1655 PWs)   bands (ev):

     6.5671   8.1537   8.1537   9.6544   9.6544  10.1392  19.7626  29.3427
    31.7343  31.7343

          k =-0.4545 0.4545-0.4545 (  1673 PWs)   bands (ev):

     6.4874   8.0693   8.0693   9.8874   9.8874  12.0209  17.0132  28.9006
    31.1817  31.1817

          k = 0.0000 0.1818 0.0000 (  1671 PWs)   bands (ev):

     5.4086   7.9491   8.2084   8.2084   8.9892   9.1766  29.8066  31.8575
    31.9566  31.9566

          k =-0.0909 0.2727-0.0909 (  1659 PWs)   bands (ev):

     5.9510   7.8204   8.3486   8.3543   8.9225   9.2423  28.1292  30.2715
    31.0413  33.0086

          k =-0.1818 0.3636-0.1818 (  1656 PWs)   bands (ev):

     6.6106   7.9319   8.3078   8.4098   9.2788   9.4281  24.5463  29.9070
    30.3236  33.1734

          k =-0.2727 0.4545-0.2727 (  1652 PWs)   bands (ev):

     6.7369   8.1233   8.3261   8.6548   9.7185  10.3169  21.0158  29.2733
    29.8606  31.5959

          k =-0.3636 0.5455-0.3636 (  1661 PWs)   bands (ev):

     6.6478   7.9972   8.2194   9.2528   9.9146  12.0699  17.9030  28.6433
    29.8266  30.3675

          k = 0.5455-0.3636 0.5455 (  1662 PWs)   bands (ev):

     6.6198   7.9732   8.1732   9.4840   9.8766  13.0703  16.5961  28.1870
    29.8719  30.4193

          k = 0.4545-0.2727 0.4545 (  1657 PWs)   bands (ev):

     6.6920   8.0514   8.2178   9.2806   9.6000  11.5100  18.8762  28.0227
    30.1779  31.7224

          k = 0.3636-0.1818 0.3636 (  1652 PWs)   bands (ev):

     6.7707   8.1514   8.3332   8.5773   9.2041  10.1420  22.1793  28.2015
    31.1405  33.6643

          k = 0.2727-0.0909 0.2727 (  1654 PWs)   bands (ev):

     6.4367   7.8668   8.3533   8.3963   8.9192   9.4800  25.7610  28.6252
    32.2936  34.3823

          k = 0.1818-0.0000 0.1818 (  1667 PWs)   bands (ev):

     5.7260   7.9145   8.2518   8.2833   8.9634   9.1982  29.0222  29.3848
    32.2142  34.2763

          k = 0.0000 0.3636 0.0000 (  1656 PWs)   bands (ev):

     6.3013   7.6050   8.5698   8.5698   8.7706   9.3347  29.5480  29.5480
    29.8324  30.2331

          k =-0.0909 0.4545-0.0909 (  1655 PWs)   bands (ev):

     6.8344   7.4550   8.4683   8.7341   9.3069   9.4927  26.1869  28.4672
    29.4866  30.7937

          k =-0.1818 0.5455-0.1818 (  1655 PWs)   bands (ev):

     6.9917   7.6861   8.2970   8.7073   9.7645  10.5857  22.5999  27.8611
    28.1999  30.2045

          k =-0.2727 0.6364-0.2727 (  1659 PWs)   bands (ev):

     6.9251   7.8140   8.4764   8.5967   9.9479  12.4711  19.2707  26.7522
    27.8439  29.7853

          k = 0.6364-0.2727 0.6364 (  1665 PWs)   bands (ev):

     6.9343   7.7760   8.5080   8.7470   9.8890  14.4389  16.7864  25.6074
    28.5202  29.6528

          k = 0.5455-0.1818 0.5455 (  1655 PWs)   bands (ev):

     7.0439   7.8295   8.4935   8.7060   9.5842  13.2919  18.3743  24.9330
    29.8926  29.9425

          k = 0.4545-0.0909 0.4545 (  1657 PWs)   bands (ev):

     7.2204   7.9038   8.3244   8.5697   9.1432  11.5110  21.5673  24.7841
    30.7480  31.8332

          k = 0.3636 0.0000 0.3636 (  1656 PWs)   bands (ev):

     7.1159   7.6791   8.2923   8.7031   8.7292  10.2599  24.9224  25.2573
    32.0404  34.0867

          k = 0.0000 0.5455 0.0000 (  1656 PWs)   bands (ev):

     6.9221   7.1803   9.1049   9.1049   9.3874   9.5468  27.0444  27.0444
    27.8760  29.8790

          k =-0.0909 0.6364-0.0909 (  1663 PWs)   bands (ev):

     6.9302   7.0794   9.0084   9.2126   9.7714  10.7918  24.3276  25.9770
    26.1763  30.0094

          k =-0.1818 0.7273-0.1818 (  1655 PWs)   bands (ev):

     6.8873   7.2503   8.7956   9.1187   9.9764  12.7982  21.0278  24.2505
    25.9947  29.8563

          k = 0.7273-0.1818 0.7273 (  1660 PWs)   bands (ev):

     6.9673   7.5028   8.5670   8.9963   9.9272  15.2118  18.0594  22.8565
    26.5788  29.7601

          k = 0.6364-0.0909 0.6364 (  1656 PWs)   bands (ev):

     7.1827   7.7546   8.2863   8.8958   9.6376  15.3181  18.2151  21.8984
    27.8785  29.8487

          k = 0.5455 0.0000 0.5455 (  1650 PWs)   bands (ev):

     7.4511   7.8445   8.0742   8.7957   9.2825  13.2332  21.1837  21.6330
    29.7172  30.2018

          k = 0.0000 0.7273 0.0000 (  1664 PWs)   bands (ev):

     6.7122   6.8126   9.6801   9.6801   9.7471  11.4728  23.8038  25.0216
    25.0216  29.9301

          k =-0.0909 0.8182-0.0909 (  1655 PWs)   bands (ev):

     6.6467   6.7742   9.6124   9.6308   9.9977  13.1699  21.9064  23.0163
    24.5874  29.9625

          k = 0.8182-0.0909 0.8182 (  1664 PWs)   bands (ev):

     6.7227   6.9971   9.2013   9.4916   9.9956  15.3933  19.9904  20.7876
    24.9835  29.8866

          k = 0.7273 0.0000 0.7273 (  1666 PWs)   bands (ev):

     6.9333   7.4046   8.6549   9.2661   9.7971  17.5719  17.5787  20.1062
    26.1493  29.8309

          k = 0.0000 0.9091 0.0000 (  1664 PWs)   bands (ev):

     6.4652   6.6033   9.8688  10.0742  10.0742  13.9197  20.2964  23.8709
    23.8709  29.9630

          k = 0.9091-0.0000 0.9091 (  1664 PWs)   bands (ev):

     6.5139   6.6656   9.7956   9.8521  10.0918  14.9373  19.6280  22.4636
    24.0121  29.9797

          k =-0.1818 0.3636 0.0000 (  1655 PWs)   bands (ev):

     6.5479   7.6519   8.3596   8.5713   8.9238   9.5038  27.1933  27.4074
    31.9610  32.0635

          k =-0.2727 0.4545-0.0909 (  1659 PWs)   bands (ev):

     7.0377   7.7771   8.1674   8.6498   9.2144  10.2496  23.6771  26.7569
    30.3456  32.6018

          k =-0.3636 0.5455-0.1818 (  1656 PWs)   bands (ev):

     6.9733   7.9540   8.3428   8.6104   9.6259  11.6537  20.2338  26.5606
    28.8381  31.8003

          k = 0.5455-0.3636 0.7273 (  1657 PWs)   bands (ev):

     6.8815   7.8236   8.4146   8.8828   9.8439  13.5652  17.3157  26.8262
    27.6533  31.1388

          k =-0.1818 0.5455 0.0000 (  1666 PWs)   bands (ev):

     7.1427   7.2823   8.4128   9.0987   9.3787  10.3265  25.2842  25.5142
    28.1544  31.6219

          k =-0.2727 0.6364-0.0909 (  1658 PWs)   bands (ev):

     7.1149   7.4835   8.2744   9.0863   9.6818  11.8989  21.9289  25.0576
    26.3897  31.7353

          k = 0.6364-0.2727 0.8182 (  1661 PWs)   bands (ev):

     7.1013   7.6159   8.3027   8.9195   9.8764  14.0146  18.7504  24.8736
    25.3180  31.5200

          k = 0.5455-0.1818 0.7273 (  1658 PWs)   bands (ev):

     7.2089   7.6087   8.3808   8.7910   9.8106  15.4691  17.1138  23.8168
    26.0796  31.6670

          k = 0.4545-0.0909 0.6364 (  1654 PWs)   bands (ev):

     7.3826   7.6898   8.1014   8.8752   9.5274  13.3991  19.8859  23.2402
    27.2977  32.3933

          k = 0.3636 0.0000 0.5455 (  1661 PWs)   bands (ev):

     7.5502   7.6008   7.9275   9.0120   9.1173  11.5931  23.1574  23.2789
    28.7862  33.6599

          k =-0.1818 0.7273 0.0000 (  1668 PWs)   bands (ev):

     6.9067   6.9546   8.9655   9.6753   9.6954  12.2716  23.5562  23.8184
    24.1742  31.3210

          k = 0.7273-0.1818 0.9091 (  1663 PWs)   bands (ev):

     6.9150   7.1310   8.7414   9.4369   9.9468  14.3695  20.6504  22.4096
    23.8949  31.4921

          k = 0.6364-0.0909 0.8182 (  1656 PWs)   bands (ev):

     7.0550   7.4429   8.4204   9.1841   9.9110  16.8659  17.8999  21.1688
    24.6133  31.5921

          k = 0.5455 0.0000 0.7273 (  1659 PWs)   bands (ev):

     7.3143   7.7543   7.9948   9.0386   9.6816  15.4564  19.4610  20.7116
    25.8296  31.9655

          k = 0.8182-0.0909 1.0000 (  1661 PWs)   bands (ev):

     6.6456   6.7662   9.4479   9.7441  10.0737  14.7283  20.3900  22.8016
    22.8984  31.1900

          k = 0.7273 0.0000 0.9091 (  1658 PWs)   bands (ev):

     6.8007   7.0200   9.0063   9.4839  10.0687  16.3690  19.6674  20.4329
    23.4464  31.4545

          k = 0.6364-0.2727 1.0000 (  1657 PWs)   bands (ev):

     7.3615   7.3677   8.0928   9.3090   9.6672  13.7272  21.6514  21.8864
    24.7340  34.1217

          k = 0.5455-0.1818 0.9091 (  1662 PWs)   bands (ev):

     7.3372   7.5496   8.0081   9.1061   9.8982  15.9813  18.7038  22.1862
    23.4220  33.8810

          k = 0.6364-0.0909 1.0000 (  1653 PWs)   bands (ev):

     7.0560   7.2495   8.4526   9.3189  10.0721  16.3957  20.5965  20.6877
    21.7134  33.8488

          k = 0.5455 0.0000 0.9091 (  1656 PWs)   bands (ev):

     7.1888   7.6034   8.0265   9.1430  10.0696  18.2552  18.4266  20.2417
    22.1316  34.4901

     the Fermi energy is    13.1114 ev

!    total energy              =     -84.27400941 Ry
     Harris-Foulkes estimate   =     -84.27400941 Ry
     estimated scf accuracy    <          4.5E-10 Ry

     The total energy is the sum of the following terms:

     one-electron contribution =      -4.71282640 Ry
     hartree contribution      =      14.64982465 Ry
     xc contribution           =     -22.34960689 Ry
     ewald contribution        =     -71.86118018 Ry
     smearing contrib. (-TS)   =      -0.00022060 Ry

     convergence has been achieved in   6 iterations

     Forces acting on atoms (cartesian axes, Ry/au):

     atom    1 type  1   force =     0.00000000    0.00000000    0.00000000

     Total force =     0.000000     Total SCF correction =     0.000000


     Computing stress (Cartesian axis) and pressure

          total   stress  (Ry/bohr**3)                   (kbar)     P=   48.15
   0.00032730  -0.00000000  -0.00000000         48.15     -0.00     -0.00
   0.00000000   0.00032730   0.00000000          0.00     48.15      0.00
  -0.00000000  -0.00000000   0.00032730         -0.00     -0.00     48.15


     Writing output data file Ag.save/

     init_run     :      0.51s CPU      0.53s WALL (       1 calls)
     electrons    :      6.93s CPU      7.35s WALL (       1 calls)
     forces       :      0.13s CPU      0.13s WALL (       1 calls)
     stress       :      0.35s CPU      0.35s WALL (       1 calls)

     Called by init_run:
     wfcinit      :      0.27s CPU      0.29s WALL (       1 calls)
     potinit      :      0.01s CPU      0.02s WALL (       1 calls)
     hinit0       :      0.20s CPU      0.20s WALL (       1 calls)

     Called by electrons:
     c_bands      :      5.70s CPU      6.07s WALL (       7 calls)
     sum_band     :      1.10s CPU      1.15s WALL (       7 calls)
     v_of_rho     :      0.06s CPU      0.06s WALL (       7 calls)
     newd         :      0.08s CPU      0.08s WALL (       7 calls)
     mix_rho      :      0.00s CPU      0.00s WALL (       7 calls)

     Called by c_bands:
     init_us_2    :      0.18s CPU      0.19s WALL (     952 calls)
     cegterg      :      5.46s CPU      5.82s WALL (     392 calls)

     Called by sum_band:
     sum_band:bec :      0.00s CPU      0.00s WALL (     392 calls)
     addusdens    :      0.09s CPU      0.09s WALL (       7 calls)

     Called by *egterg:
     h_psi        :      4.63s CPU      4.96s WALL (    1450 calls)
     s_psi        :      0.14s CPU      0.14s WALL (    1450 calls)
     g_psi        :      0.01s CPU      0.01s WALL (    1002 calls)
     cdiaghg      :      0.29s CPU      0.30s WALL (    1338 calls)

     Called by h_psi:
     h_psi:pot    :      4.60s CPU      4.94s WALL (    1450 calls)
     h_psi:calbec :      0.20s CPU      0.21s WALL (    1450 calls)
     vloc_psi     :      4.26s CPU      4.57s WALL (    1450 calls)
     add_vuspsi   :      0.14s CPU      0.15s WALL (    1450 calls)

     General routines
     calbec       :      0.34s CPU      0.36s WALL (    2122 calls)
     fft          :      0.04s CPU      0.04s WALL (     104 calls)
     ffts         :      0.00s CPU      0.00s WALL (       7 calls)
     fftw         :      4.76s CPU      5.09s WALL (   24526 calls)

     Parallel routines
     fft_scatt_xy :      0.41s CPU      0.43s WALL (   24637 calls)
     fft_scatt_yz :      1.00s CPU      1.08s WALL (   24637 calls)

     PWSCF        :     8.71s CPU         9.24s WALL


   This run was terminated on:   0:43: 3  27Mar2024            

=------------------------------------------------------------------------------=
   JOB DONE.
=------------------------------------------------------------------------------=
