
     Program PWSCF v.6.3MaX starts on 27Mar2024 at  0:16:27 

     This program is part of the open-source Quantum ESPRESSO suite
     for quantum simulation of materials; please cite
         "P. Giannozzi et al., J. Phys.:Condens. Matter 21 395502 (2009);
         "P. Giannozzi et al., J. Phys.:Condens. Matter 29 465901 (2017);
          URL http://www.quantum-espresso.org", 
     in publications or presentations arising from this work. More details at
     http://www.quantum-espresso.org/quote

     Parallel version (MPI), running on     5 processors

     MPI processes distributed on     1 nodes
     R & G space division:  proc/nbgrp/npool/nimage =       5
     Waiting for input...
     Reading input from standard input

     Current dimensions of program PWSCF are:
     Max number of different atomic species (ntypx) = 10
     Max number of k-points (npk) =  40000
     Max angular momentum in pseudopotentials (lmaxx) =  3
               file Ag.pbesol-n-kjpaw_psl.1.0.0.UPF: wavefunction(s)  5S 5P renormalized

     Subspace diagonalization in iterative solution of the eigenvalue problem:
     a serial algorithm will be used


     Parallelization info
     --------------------
     sticks:   dense  smooth     PW     G-vecs:    dense   smooth      PW
     Min          62      62     21                  765      765     148
     Max          63      63     22                  770      770     151
     Sum         313     313    109                 3839     3839     749



     bravais-lattice index     =            2
     lattice parameter (alat)  =       7.7200  a.u.
     unit-cell volume          =     115.0249 (a.u.)^3
     number of atoms/cell      =            1
     number of atomic types    =            1
     number of electrons       =        11.00
     number of Kohn-Sham states=           10
     kinetic-energy cutoff     =      40.0000  Ry
     charge density cutoff     =     160.0000  Ry
     convergence threshold     =      1.0E-08
     mixing beta               =       0.7000
     number of iterations used =            8  plain     mixing
     Exchange-correlation      = SLA PW PSX PSC ( 1  4 10  8 0 0)

     celldm(1)=   7.720000  celldm(2)=   0.000000  celldm(3)=   0.000000
     celldm(4)=   0.000000  celldm(5)=   0.000000  celldm(6)=   0.000000

     crystal axes: (cart. coord. in units of alat)
               a(1) = (  -0.500000   0.000000   0.500000 )  
               a(2) = (   0.000000   0.500000   0.500000 )  
               a(3) = (  -0.500000   0.500000   0.000000 )  

     reciprocal axes: (cart. coord. in units 2 pi/alat)
               b(1) = ( -1.000000 -1.000000  1.000000 )  
               b(2) = (  1.000000  1.000000  1.000000 )  
               b(3) = ( -1.000000  1.000000 -1.000000 )  


     PseudoPot. # 1 for Ag read from file:
     /home/lorenzo/pseudos/Ag/Ag.pbesol-n-kjpaw_psl.1.0.0.UPF
     MD5 check sum: 3b245e14fa22881b2ac493bfd23f605f
     Pseudo is Projector augmented-wave + core cor, Zval = 11.0
     Generated using "atomic" code by A. Dal Corso v.6.2.2
     Shape of augmentation charge: PSQ
     Using radial grid of 1237 points,  6 beta functions with: 
                l(1) =   0
                l(2) =   0
                l(3) =   1
                l(4) =   1
                l(5) =   2
                l(6) =   2
     Q(r) pseudized with 0 coefficients 


     atomic species   valence    mass     pseudopotential
        Ag            11.00   107.86820     Ag( 1.00)

     48 Sym. Ops., with inversion, found



   Cartesian axes

     site n.     atom                  positions (alat units)
         1           Ag  tau(   1) = (   0.0000000   0.0000000   0.0000000  )

     number of k points=    56  gaussian smearing, width (Ry)=  0.0100
                       cart. coord. in units 2pi/alat
        k(    1) = (   0.0000000   0.0000000   0.0000000), wk =   0.0015026
        k(    2) = (  -0.0909091   0.0909091  -0.0909091), wk =   0.0120210
        k(    3) = (  -0.1818182   0.1818182  -0.1818182), wk =   0.0120210
        k(    4) = (  -0.2727273   0.2727273  -0.2727273), wk =   0.0120210
        k(    5) = (  -0.3636364   0.3636364  -0.3636364), wk =   0.0120210
        k(    6) = (  -0.4545455   0.4545455  -0.4545455), wk =   0.0120210
        k(    7) = (   0.0000000   0.1818182   0.0000000), wk =   0.0090158
        k(    8) = (  -0.0909091   0.2727273  -0.0909091), wk =   0.0360631
        k(    9) = (  -0.1818182   0.3636364  -0.1818182), wk =   0.0360631
        k(   10) = (  -0.2727273   0.4545455  -0.2727273), wk =   0.0360631
        k(   11) = (  -0.3636364   0.5454545  -0.3636364), wk =   0.0360631
        k(   12) = (   0.5454545  -0.3636364   0.5454545), wk =   0.0360631
        k(   13) = (   0.4545455  -0.2727273   0.4545455), wk =   0.0360631
        k(   14) = (   0.3636364  -0.1818182   0.3636364), wk =   0.0360631
        k(   15) = (   0.2727273  -0.0909091   0.2727273), wk =   0.0360631
        k(   16) = (   0.1818182  -0.0000000   0.1818182), wk =   0.0180316
        k(   17) = (   0.0000000   0.3636364   0.0000000), wk =   0.0090158
        k(   18) = (  -0.0909091   0.4545455  -0.0909091), wk =   0.0360631
        k(   19) = (  -0.1818182   0.5454545  -0.1818182), wk =   0.0360631
        k(   20) = (  -0.2727273   0.6363636  -0.2727273), wk =   0.0360631
        k(   21) = (   0.6363636  -0.2727273   0.6363636), wk =   0.0360631
        k(   22) = (   0.5454545  -0.1818182   0.5454545), wk =   0.0360631
        k(   23) = (   0.4545455  -0.0909091   0.4545455), wk =   0.0360631
        k(   24) = (   0.3636364   0.0000000   0.3636364), wk =   0.0180316
        k(   25) = (   0.0000000   0.5454545   0.0000000), wk =   0.0090158
        k(   26) = (  -0.0909091   0.6363636  -0.0909091), wk =   0.0360631
        k(   27) = (  -0.1818182   0.7272727  -0.1818182), wk =   0.0360631
        k(   28) = (   0.7272727  -0.1818182   0.7272727), wk =   0.0360631
        k(   29) = (   0.6363636  -0.0909091   0.6363636), wk =   0.0360631
        k(   30) = (   0.5454545   0.0000000   0.5454545), wk =   0.0180316
        k(   31) = (   0.0000000   0.7272727   0.0000000), wk =   0.0090158
        k(   32) = (  -0.0909091   0.8181818  -0.0909091), wk =   0.0360631
        k(   33) = (   0.8181818  -0.0909091   0.8181818), wk =   0.0360631
        k(   34) = (   0.7272727   0.0000000   0.7272727), wk =   0.0180316
        k(   35) = (   0.0000000   0.9090909   0.0000000), wk =   0.0090158
        k(   36) = (   0.9090909  -0.0000000   0.9090909), wk =   0.0180316
        k(   37) = (  -0.1818182   0.3636364   0.0000000), wk =   0.0360631
        k(   38) = (  -0.2727273   0.4545455  -0.0909091), wk =   0.0721262
        k(   39) = (  -0.3636364   0.5454545  -0.1818182), wk =   0.0721262
        k(   40) = (   0.5454545  -0.3636364   0.7272727), wk =   0.0721262
        k(   41) = (  -0.1818182   0.5454545   0.0000000), wk =   0.0360631
        k(   42) = (  -0.2727273   0.6363636  -0.0909091), wk =   0.0721262
        k(   43) = (   0.6363636  -0.2727273   0.8181818), wk =   0.0721262
        k(   44) = (   0.5454545  -0.1818182   0.7272727), wk =   0.0721262
        k(   45) = (   0.4545455  -0.0909091   0.6363636), wk =   0.0721262
        k(   46) = (   0.3636364   0.0000000   0.5454545), wk =   0.0360631
        k(   47) = (  -0.1818182   0.7272727   0.0000000), wk =   0.0360631
        k(   48) = (   0.7272727  -0.1818182   0.9090909), wk =   0.0721262
        k(   49) = (   0.6363636  -0.0909091   0.8181818), wk =   0.0721262
        k(   50) = (   0.5454545   0.0000000   0.7272727), wk =   0.0360631
        k(   51) = (   0.8181818  -0.0909091   1.0000000), wk =   0.0360631
        k(   52) = (   0.7272727   0.0000000   0.9090909), wk =   0.0360631
        k(   53) = (   0.6363636  -0.2727273   1.0000000), wk =   0.0360631
        k(   54) = (   0.5454545  -0.1818182   0.9090909), wk =   0.0721262
        k(   55) = (   0.6363636  -0.0909091   1.0000000), wk =   0.0360631
        k(   56) = (   0.5454545   0.0000000   0.9090909), wk =   0.0360631

     Dense  grid:     3839 G-vectors     FFT dimensions: (  24,  24,  24)

     Estimated max dynamical RAM per process >       5.01 MB

     Estimated total dynamical RAM >      25.03 MB

     Initial potential from superposition of free atoms

     starting charge   10.99964, renormalised to   11.00000
     Starting wfcs are    9 randomized atomic wfcs +    1 random wfcs
     Checking if some PAW data can be deallocated... 

     total cpu time spent up to now is        1.3 secs

     Self-consistent Calculation

     iteration #  1     ecut=    40.00 Ry     beta= 0.70
     Davidson diagonalization with overlap
     ethr =  1.00E-02,  avg # of iterations =  4.6

     Threshold (ethr) on eigenvalues was too large:
     Diagonalizing with lowered threshold

     Davidson diagonalization with overlap
     ethr =  5.05E-05,  avg # of iterations =  2.0

     total cpu time spent up to now is        2.1 secs

     total energy              =    -350.23136302 Ry
     Harris-Foulkes estimate   =    -350.23518433 Ry
     estimated scf accuracy    <       0.00595814 Ry

     iteration #  2     ecut=    40.00 Ry     beta= 0.70
     Davidson diagonalization with overlap
     ethr =  5.42E-05,  avg # of iterations =  2.1

     total cpu time spent up to now is        2.6 secs

     total energy              =    -350.23298328 Ry
     Harris-Foulkes estimate   =    -350.23513868 Ry
     estimated scf accuracy    <       0.00443499 Ry

     iteration #  3     ecut=    40.00 Ry     beta= 0.70
     Davidson diagonalization with overlap
     ethr =  4.03E-05,  avg # of iterations =  1.7

     total cpu time spent up to now is        3.2 secs

     total energy              =    -350.23385713 Ry
     Harris-Foulkes estimate   =    -350.23383805 Ry
     estimated scf accuracy    <       0.00001651 Ry

     iteration #  4     ecut=    40.00 Ry     beta= 0.70
     Davidson diagonalization with overlap
     ethr =  1.50E-07,  avg # of iterations =  2.9

     total cpu time spent up to now is        3.7 secs

     total energy              =    -350.23386626 Ry
     Harris-Foulkes estimate   =    -350.23386602 Ry
     estimated scf accuracy    <       0.00000048 Ry

     iteration #  5     ecut=    40.00 Ry     beta= 0.70
     Davidson diagonalization with overlap
     ethr =  4.34E-09,  avg # of iterations =  1.3

     total cpu time spent up to now is        4.1 secs

     End of self-consistent calculation

          k = 0.0000 0.0000 0.0000 (   531 PWs)   bands (ev):

     4.8054   7.9157   7.9157   7.9157   8.9675   8.9675  29.5442  32.8303
    32.8303  37.1539

          k =-0.0909 0.0909-0.0909 (   516 PWs)   bands (ev):

     5.0607   7.8596   7.9853   7.9853   8.9436   8.9436  29.3224  30.9270
    32.8132  32.8132

          k =-0.1818 0.1818-0.1818 (   501 PWs)   bands (ev):

     5.7322   7.8147   8.1101   8.1101   8.9535   8.9535  26.5334  30.2684
    32.6707  32.6707

          k =-0.2727 0.2727-0.2727 (   489 PWs)   bands (ev):

     6.3142   8.1025   8.1025   8.3447   9.1680   9.1680  22.9427  29.7912
    32.2077  32.2077

          k =-0.3636 0.3636-0.3636 (   492 PWs)   bands (ev):

     6.3646   7.9909   7.9909   9.5031   9.5031   9.8993  19.5246  29.0924
    31.4652  31.4652

          k =-0.4545 0.4545-0.4545 (   489 PWs)   bands (ev):

     6.2909   7.9062   7.9062   9.7378   9.7378  11.7650  16.7850  28.6497
    30.9072  30.9072

          k = 0.0000 0.1818 0.0000 (   515 PWs)   bands (ev):

     5.1463   7.7812   8.0425   8.0425   8.8368   9.0260  29.5548  31.6060
    31.6987  31.6987

          k =-0.0909 0.2727-0.0909 (   507 PWs)   bands (ev):

     5.6911   7.6501   8.1835   8.1895   8.7666   9.0918  27.8815  30.0225
    30.7844  32.7551

          k =-0.1818 0.3636-0.1818 (   495 PWs)   bands (ev):

     6.3728   7.7467   8.1446   8.2468   9.1109   9.2772  24.3019  29.6621
    30.0654  32.9162

          k =-0.2727 0.4545-0.2727 (   498 PWs)   bands (ev):

     6.5324   7.9600   8.1640   8.4658   9.5681  10.1162  20.7746  29.0283
    29.5985  31.3327

          k =-0.3636 0.5455-0.3636 (   489 PWs)   bands (ev):

     6.4520   7.8331   8.0572   9.0832   9.7654  11.8369  17.6688  28.3970
    29.5600  30.1017

          k = 0.5455-0.3636 0.5455 (   487 PWs)   bands (ev):

     6.4253   7.8090   8.0109   9.3197   9.7267  12.8253  16.3697  27.9382
    29.6072  30.1502

          k = 0.4545-0.2727 0.4545 (   495 PWs)   bands (ev):

     6.4944   7.8872   8.0558   9.1041   9.4476  11.2905  18.6393  27.7727
    29.9157  31.4534

          k = 0.3636-0.1818 0.3636 (   494 PWs)   bands (ev):

     6.5578   7.9838   8.1716   8.3810   9.0493   9.9661  21.9371  27.9530
    30.8805  33.3970

          k = 0.2727-0.0909 0.2727 (   497 PWs)   bands (ev):

     6.1860   7.6906   8.1868   8.2329   8.7648   9.3236  25.5158  28.3774
    32.0351  34.1254

          k = 0.1818-0.0000 0.1818 (   505 PWs)   bands (ev):

     5.4647   7.7455   8.0864   8.1174   8.8110   9.0466  28.7752  29.1332
    31.9542  34.0186

          k = 0.0000 0.3636 0.0000 (   496 PWs)   bands (ev):

     6.0451   7.4339   8.4059   8.4059   8.6080   9.1854  29.2911  29.2911
    29.5899  29.9926

          k =-0.0909 0.4545-0.0909 (   490 PWs)   bands (ev):

     6.5977   7.2800   8.3010   8.5724   9.1292   9.3434  25.9382  28.2090
    29.2492  30.5443

          k =-0.1818 0.5455-0.1818 (   497 PWs)   bands (ev):

     6.7942   7.5029   8.1200   8.5472   9.6150  10.3839  22.3539  27.6001
    27.9577  29.9557

          k =-0.2727 0.6364-0.2727 (   492 PWs)   bands (ev):

     6.7356   7.6452   8.2949   8.4368   9.7990  12.2493  19.0289  26.5066
    27.5806  29.5371

          k = 0.6364-0.2727 0.6364 (   487 PWs)   bands (ev):

     6.7453   7.6076   8.3481   8.5724   9.7389  14.2030  16.5540  25.3597
    28.2564  29.4033

          k = 0.5455-0.1818 0.5455 (   492 PWs)   bands (ev):

     6.8530   7.6619   8.3340   8.5274   9.4310  13.0680  18.1369  24.6846
    29.6304  29.6907

          k = 0.4545-0.0909 0.4545 (   497 PWs)   bands (ev):

     7.0222   7.7321   8.1377   8.4111   8.9861  11.3128  21.3244  24.5372
    30.4940  31.5733

          k = 0.3636 0.0000 0.3636 (   491 PWs)   bands (ev):

     6.8792   7.5055   8.1233   8.5411   8.5739  10.0879  24.6728  25.0163
    31.7844  33.8294

          k = 0.0000 0.5455 0.0000 (   488 PWs)   bands (ev):

     6.7096   7.0057   8.9445   8.9445   9.1752   9.3993  26.7843  26.7843
    27.6382  29.6466

          k =-0.0909 0.6364-0.0909 (   490 PWs)   bands (ev):

     6.7401   6.8999   8.8334   9.0557   9.6226  10.5739  24.0727  25.7359
    25.9138  29.7727

          k =-0.1818 0.7273-0.1818 (   489 PWs)   bands (ev):

     6.7051   7.0722   8.6184   8.9629   9.8275  12.5716  20.7765  24.0100
    25.7306  29.6188

          k = 0.7273-0.1818 0.7273 (   489 PWs)   bands (ev):

     6.7869   7.3264   8.3908   8.8406   9.7769  14.9786  17.8145  22.6147
    26.3152  29.5207

          k = 0.6364-0.0909 0.6364 (   493 PWs)   bands (ev):

     7.0035   7.5768   8.1097   8.7402   9.4836  15.0848  17.9762  21.6544
    27.6170  29.6054

          k = 0.5455 0.0000 0.5455 (   496 PWs)   bands (ev):

     7.2697   7.6678   7.8903   8.6402   9.1248  13.0158  20.9434  21.3858
    29.4575  29.9539

          k = 0.0000 0.7273 0.0000 (   484 PWs)   bands (ev):

     6.5256   6.6350   9.5243   9.5243   9.6009  11.2274  23.5636  24.7562
    24.7562  29.7034

          k =-0.0909 0.8182-0.0909 (   486 PWs)   bands (ev):

     6.4644   6.5952   9.4496   9.4805   9.8478  12.9254  21.6629  22.7622
    24.3203  29.7318

          k = 0.8182-0.0909 0.8182 (   485 PWs)   bands (ev):

     6.5433   6.8179   9.0320   9.3412   9.8445  15.1497  19.7321  20.5581
    24.7172  29.6541

          k = 0.7273 0.0000 0.7273 (   492 PWs)   bands (ev):

     6.7558   7.2254   8.4812   9.1144   9.6433  17.3283  17.3330  19.8718
    25.8858  29.5939

          k = 0.0000 0.9091 0.0000 (   472 PWs)   bands (ev):

     6.2830   6.4242   9.7236   9.9227   9.9227  13.6584  20.0640  23.6013
    23.6013  29.7415

          k = 0.9091-0.0000 0.9091 (   480 PWs)   bands (ev):

     6.3328   6.4862   9.6493   9.6939   9.9407  14.6781  19.3974  22.2036
    23.7428  29.7517

          k =-0.1818 0.3636 0.0000 (   496 PWs)   bands (ev):

     6.2948   7.4801   8.1967   8.4077   8.7630   9.3483  26.9429  27.1627
    31.7113  31.8086

          k =-0.2727 0.4545-0.0909 (   496 PWs)   bands (ev):

     6.8197   7.5891   8.0039   8.4875   9.0541  10.0726  23.4320  26.5086
    30.0945  32.3451

          k =-0.3636 0.5455-0.1818 (   493 PWs)   bands (ev):

     6.7781   7.7887   8.1662   8.4403   9.4718  11.4446  19.9924  26.3102
    28.5862  31.5381

          k = 0.5455-0.3636 0.7273 (   495 PWs)   bands (ev):

     6.6897   7.6572   8.2537   8.7086   9.6930  13.3331  17.0817  26.5763
    27.3982  30.8743

          k =-0.1818 0.5455 0.0000 (   494 PWs)   bands (ev):

     6.9318   7.1073   8.2388   8.9383   9.2182  10.1385  25.0307  25.2659
    27.9092  31.3764

          k =-0.2727 0.6364-0.0909 (   489 PWs)   bands (ev):

     6.9302   7.3038   8.0958   8.9266   9.5284  11.6861  21.6808  24.8041
    26.1462  31.4850

          k = 0.6364-0.2727 0.8182 (   490 PWs)   bands (ev):

     6.9178   7.4434   8.1248   8.7604   9.7253  13.7869  18.5072  24.6227
    25.0708  31.2660

          k = 0.5455-0.1818 0.7273 (   483 PWs)   bands (ev):

     7.0247   7.4367   8.2045   8.6336   9.6586  15.2344  16.8774  23.5691
    25.8296  31.4098

          k = 0.4545-0.0909 0.6364 (   493 PWs)   bands (ev):

     7.1961   7.5208   7.9194   8.7164   9.3722  13.1783  19.6437  22.9924
    27.0488  32.1332

          k = 0.3636 0.0000 0.5455 (   492 PWs)   bands (ev):

     7.3744   7.3922   7.7612   8.8523   8.9577  11.3934  22.9069  23.0370
    28.5371  33.3973

          k =-0.1818 0.7273 0.0000 (   482 PWs)   bands (ev):

     6.7223   6.7771   8.7954   9.5196   9.5439  12.0433  23.2921  23.5640
    23.9394  31.0829

          k = 0.7273-0.1818 0.9091 (   483 PWs)   bands (ev):

     6.7356   6.9528   8.5688   9.2834   9.7952  14.1350  20.3962  22.1698
    23.6423  31.2485

          k = 0.6364-0.0909 0.8182 (   490 PWs)   bands (ev):

     6.8779   7.2642   8.2455   9.0305   9.7584  16.6272  17.6540  20.9285
    24.3612  31.3443

          k = 0.5455 0.0000 0.7273 (   489 PWs)   bands (ev):

     7.1398   7.5722   7.8183   8.8844   9.5267  15.2230  19.2188  20.4679
    25.5803  31.7123

          k = 0.8182-0.0909 1.0000 (   484 PWs)   bands (ev):

     6.4649   6.5871   9.2856   9.5947   9.9220  14.4789  20.1520  22.5421
    22.6422  30.9547

          k = 0.7273 0.0000 0.9091 (   487 PWs)   bands (ev):

     6.6221   6.8409   8.8363   9.3340   9.9170  16.1204  19.4205  20.1947
    23.1907  31.2131

          k = 0.6364-0.2727 1.0000 (   489 PWs)   bands (ev):

     7.1840   7.1902   7.9124   9.1544   9.5117  13.5019  21.4059  21.6325
    24.4933  33.8711

          k = 0.5455-0.1818 0.9091 (   491 PWs)   bands (ev):

     7.1631   7.3703   7.8298   8.9514   9.7452  15.7459  18.4600  21.9328
    23.1844  33.6227

          k = 0.6364-0.0909 1.0000 (   496 PWs)   bands (ev):

     6.8791   7.0710   8.2783   9.1662   9.9202  16.1542  20.3391  20.4382
    21.4833  33.5991

          k = 0.5455 0.0000 0.9091 (   491 PWs)   bands (ev):

     7.0137   7.4249   7.8504   8.9891   9.9179  18.0098  18.1810  19.9965
    21.8937  34.2357

     the Fermi energy is    12.8708 ev

!    total energy              =    -350.23386629 Ry
     Harris-Foulkes estimate   =    -350.23386629 Ry
     estimated scf accuracy    <          1.7E-09 Ry

     total all-electron energy =    -10627.244275 Ry

     The total energy is the sum of the following terms:

     one-electron contribution =       1.62064886 Ry
     hartree contribution      =      14.55888371 Ry
     xc contribution           =     -22.14026971 Ry
     ewald contribution        =     -71.86118024 Ry
     one-center paw contrib.   =    -272.41174051 Ry
     smearing contrib. (-TS)   =      -0.00020840 Ry

     convergence has been achieved in   5 iterations

     Forces acting on atoms (cartesian axes, Ry/au):

     atom    1 type  1   force =     0.00000000    0.00000000    0.00000000

     Total force =     0.000000     Total SCF correction =     0.000000


     Computing stress (Cartesian axis) and pressure

          total   stress  (Ry/bohr**3)                   (kbar)     P=  -31.30
  -0.00021276   0.00000000   0.00000000        -31.30      0.00      0.00
   0.00000000  -0.00021276   0.00000000          0.00    -31.30      0.00
   0.00000000   0.00000000  -0.00021276          0.00      0.00    -31.30


     Writing output data file Ag.save/

     init_run     :      0.44s CPU      0.47s WALL (       1 calls)
     electrons    :      2.59s CPU      2.81s WALL (       1 calls)
     forces       :      0.05s CPU      0.05s WALL (       1 calls)
     stress       :      0.15s CPU      0.15s WALL (       1 calls)

     Called by init_run:
     wfcinit      :      0.16s CPU      0.18s WALL (       1 calls)
     potinit      :      0.13s CPU      0.14s WALL (       1 calls)
     hinit0       :      0.12s CPU      0.12s WALL (       1 calls)

     Called by electrons:
     c_bands      :      1.67s CPU      1.79s WALL (       6 calls)
     sum_band     :      0.41s CPU      0.43s WALL (       6 calls)
     v_of_rho     :      0.02s CPU      0.02s WALL (       6 calls)
     newd         :      0.03s CPU      0.03s WALL (       6 calls)
     PAW_pot      :      0.59s CPU      0.68s WALL (       6 calls)
     mix_rho      :      0.00s CPU      0.00s WALL (       6 calls)

     Called by c_bands:
     init_us_2    :      0.05s CPU      0.06s WALL (     840 calls)
     cegterg      :      1.60s CPU      1.72s WALL (     336 calls)

     Called by sum_band:
     sum_band:bec :      0.00s CPU      0.00s WALL (     336 calls)
     addusdens    :      0.02s CPU      0.02s WALL (       6 calls)

     Called by *egterg:
     h_psi        :      1.28s CPU      1.38s WALL (    1207 calls)
     s_psi        :      0.04s CPU      0.04s WALL (    1207 calls)
     g_psi        :      0.00s CPU      0.00s WALL (     815 calls)
     cdiaghg      :      0.22s CPU      0.23s WALL (    1095 calls)

     Called by h_psi:
     h_psi:pot    :      1.28s CPU      1.37s WALL (    1207 calls)
     h_psi:calbec :      0.06s CPU      0.06s WALL (    1207 calls)
     vloc_psi     :      1.17s CPU      1.25s WALL (    1207 calls)
     add_vuspsi   :      0.04s CPU      0.04s WALL (    1207 calls)

     General routines
     calbec       :      0.11s CPU      0.11s WALL (    1823 calls)
     fft          :      0.01s CPU      0.01s WALL (      93 calls)
     ffts         :      0.00s CPU      0.00s WALL (       6 calls)
     fftw         :      1.38s CPU      1.48s WALL (   20762 calls)

     Parallel routines
     fft_scatt_xy :      0.12s CPU      0.13s WALL (   20861 calls)
     fft_scatt_yz :      0.46s CPU      0.49s WALL (   20861 calls)

     PWSCF        :     4.09s CPU         4.40s WALL


   This run was terminated on:   0:16:31  27Mar2024            

=------------------------------------------------------------------------------=
   JOB DONE.
=------------------------------------------------------------------------------=
