
     Program PWSCF v.6.3MaX starts on 27Mar2024 at  0: 4:56 

     This program is part of the open-source Quantum ESPRESSO suite
     for quantum simulation of materials; please cite
         "P. Giannozzi et al., J. Phys.:Condens. Matter 21 395502 (2009);
         "P. Giannozzi et al., J. Phys.:Condens. Matter 29 465901 (2017);
          URL http://www.quantum-espresso.org", 
     in publications or presentations arising from this work. More details at
     http://www.quantum-espresso.org/quote

     Parallel version (MPI), running on     5 processors

     MPI processes distributed on     1 nodes
     R & G space division:  proc/nbgrp/npool/nimage =       5
     Waiting for input...
     Reading input from standard input

     Current dimensions of program PWSCF are:
     Max number of different atomic species (ntypx) = 10
     Max number of k-points (npk) =  40000
     Max angular momentum in pseudopotentials (lmaxx) =  3
               file Ag.pbesol-n-kjpaw_psl.1.0.0.UPF: wavefunction(s)  5S 5P renormalized

     Subspace diagonalization in iterative solution of the eigenvalue problem:
     a serial algorithm will be used


     Parallelization info
     --------------------
     sticks:   dense  smooth     PW     G-vecs:    dense   smooth      PW
     Min          17      17      6                  106      106      22
     Max          17      17      7                  107      107      23
     Sum          85      85     31                  531      531     113



     bravais-lattice index     =            2
     lattice parameter (alat)  =       7.7200  a.u.
     unit-cell volume          =     115.0249 (a.u.)^3
     number of atoms/cell      =            1
     number of atomic types    =            1
     number of electrons       =        11.00
     number of Kohn-Sham states=           10
     kinetic-energy cutoff     =      10.0000  Ry
     charge density cutoff     =      40.0000  Ry
     convergence threshold     =      1.0E-08
     mixing beta               =       0.7000
     number of iterations used =            8  plain     mixing
     Exchange-correlation      = SLA PW PSX PSC ( 1  4 10  8 0 0)

     celldm(1)=   7.720000  celldm(2)=   0.000000  celldm(3)=   0.000000
     celldm(4)=   0.000000  celldm(5)=   0.000000  celldm(6)=   0.000000

     crystal axes: (cart. coord. in units of alat)
               a(1) = (  -0.500000   0.000000   0.500000 )  
               a(2) = (   0.000000   0.500000   0.500000 )  
               a(3) = (  -0.500000   0.500000   0.000000 )  

     reciprocal axes: (cart. coord. in units 2 pi/alat)
               b(1) = ( -1.000000 -1.000000  1.000000 )  
               b(2) = (  1.000000  1.000000  1.000000 )  
               b(3) = ( -1.000000  1.000000 -1.000000 )  


     PseudoPot. # 1 for Ag read from file:
     /home/lorenzo/pseudos/Ag/Ag.pbesol-n-kjpaw_psl.1.0.0.UPF
     MD5 check sum: 3b245e14fa22881b2ac493bfd23f605f
     Pseudo is Projector augmented-wave + core cor, Zval = 11.0
     Generated using "atomic" code by A. Dal Corso v.6.2.2
     Shape of augmentation charge: PSQ
     Using radial grid of 1237 points,  6 beta functions with: 
                l(1) =   0
                l(2) =   0
                l(3) =   1
                l(4) =   1
                l(5) =   2
                l(6) =   2
     Q(r) pseudized with 0 coefficients 


     atomic species   valence    mass     pseudopotential
        Ag            11.00   107.86820     Ag( 1.00)

     48 Sym. Ops., with inversion, found



   Cartesian axes

     site n.     atom                  positions (alat units)
         1           Ag  tau(   1) = (   0.0000000   0.0000000   0.0000000  )

     number of k points=     4  gaussian smearing, width (Ry)=  0.0100
                       cart. coord. in units 2pi/alat
        k(    1) = (   0.0000000   0.0000000   0.0000000), wk =   0.0740741
        k(    2) = (  -0.3333333   0.3333333  -0.3333333), wk =   0.5925926
        k(    3) = (   0.0000000   0.6666667   0.0000000), wk =   0.4444444
        k(    4) = (   0.6666667  -0.0000000   0.6666667), wk =   0.8888889

     Dense  grid:      531 G-vectors     FFT dimensions: (  12,  12,  12)

     Estimated max dynamical RAM per process >       1.04 MB

     Estimated total dynamical RAM >       5.20 MB

     Initial potential from superposition of free atoms
     Check: negative starting charge=   -0.000249

     starting charge   10.99964, renormalised to   11.00000

     negative rho (up, down):  2.491E-04 0.000E+00
     Starting wfcs are    9 randomized atomic wfcs +    1 random wfcs
     Checking if some PAW data can be deallocated... 

     total cpu time spent up to now is        1.0 secs

     Self-consistent Calculation

     iteration #  1     ecut=    10.00 Ry     beta= 0.70
     Davidson diagonalization with overlap
     ethr =  1.00E-02,  avg # of iterations =  4.5

     total cpu time spent up to now is        1.1 secs

     total energy              =    -335.35516228 Ry
     Harris-Foulkes estimate   =    -343.40679379 Ry
     estimated scf accuracy    <      10.52015441 Ry

     iteration #  2     ecut=    10.00 Ry     beta= 0.70
     Davidson diagonalization with overlap
     ethr =  1.00E-02,  avg # of iterations =  3.2

     total cpu time spent up to now is        1.2 secs

     total energy              =    -337.49885485 Ry
     Harris-Foulkes estimate   =    -337.62208894 Ry
     estimated scf accuracy    <       0.43835145 Ry

     iteration #  3     ecut=    10.00 Ry     beta= 0.70
     Davidson diagonalization with overlap
     ethr =  3.99E-03,  avg # of iterations =  1.0

     total cpu time spent up to now is        1.3 secs

     total energy              =    -337.50814905 Ry
     Harris-Foulkes estimate   =    -337.51314693 Ry
     estimated scf accuracy    <       0.03387144 Ry

     iteration #  4     ecut=    10.00 Ry     beta= 0.70
     Davidson diagonalization with overlap
     ethr =  3.08E-04,  avg # of iterations =  1.2

     total cpu time spent up to now is        1.4 secs

     total energy              =    -337.50864195 Ry
     Harris-Foulkes estimate   =    -337.50864718 Ry
     estimated scf accuracy    <       0.00001877 Ry

     iteration #  5     ecut=    10.00 Ry     beta= 0.70
     Davidson diagonalization with overlap
     ethr =  1.71E-07,  avg # of iterations =  2.5

     total cpu time spent up to now is        1.6 secs

     total energy              =    -337.50865802 Ry
     Harris-Foulkes estimate   =    -337.50865780 Ry
     estimated scf accuracy    <       0.00000083 Ry

     iteration #  6     ecut=    10.00 Ry     beta= 0.70
     Davidson diagonalization with overlap
     ethr =  7.58E-09,  avg # of iterations =  1.0

     total cpu time spent up to now is        1.7 secs

     End of self-consistent calculation

          k = 0.0000 0.0000 0.0000 (    59 PWs)   bands (ev):

     3.2439  11.3702  11.3702  11.3702  15.1758  15.1758  29.8328  29.8328
    29.8328  32.8235

          k =-0.3333 0.3333-0.3333 (    64 PWs)   bands (ev):

     5.9045  10.4445  11.3769  11.3769  13.3664  13.3664  19.6277  28.2525
    28.2525  33.0329

          k = 0.0000 0.6667 0.0000 (    52 PWs)   bands (ev):

     7.2179  11.3826  14.5645  17.2475  17.5476  17.5476  21.6318  25.7875
    25.7875  37.2348

          k = 0.6667-0.0000 0.6667 (    63 PWs)   bands (ev):

     9.1820  10.4667  10.6230  12.4206  14.2703  14.7302  20.0480  20.4370
    25.4921  35.4841

     the Fermi energy is    17.3086 ev

!    total energy              =    -337.50865804 Ry
     Harris-Foulkes estimate   =    -337.50865804 Ry
     estimated scf accuracy    <          1.1E-09 Ry

     total all-electron energy =    -10614.519067 Ry

     The total energy is the sum of the following terms:

     one-electron contribution =      18.22999524 Ry
     hartree contribution      =       4.11335785 Ry
     xc contribution           =     -18.99881317 Ry
     ewald contribution        =     -71.86118018 Ry
     one-center paw contrib.   =    -268.99087810 Ry
     smearing contrib. (-TS)   =      -0.00113966 Ry

     convergence has been achieved in   6 iterations

     Forces acting on atoms (cartesian axes, Ry/au):

     atom    1 type  1   force =     0.00000000    0.00000000    0.00000000

     Total force =     0.000000     Total SCF correction =     0.000000


     Computing stress (Cartesian axis) and pressure

          total   stress  (Ry/bohr**3)                   (kbar)     P=********
  -0.10574411   0.00000000  -0.00000000     -15555.49      0.00     -0.00
   0.00000000  -0.10574411   0.00000000          0.00 -15555.49      0.00
  -0.00000000   0.00000000  -0.10574411         -0.00      0.00 -15555.49


     Writing output data file Ag.save/

     init_run     :      0.16s CPU      0.18s WALL (       1 calls)
     electrons    :      0.65s CPU      0.74s WALL (       1 calls)
     forces       :      0.00s CPU      0.00s WALL (       1 calls)
     stress       :      0.01s CPU      0.01s WALL (       1 calls)

     Called by init_run:
     wfcinit      :      0.00s CPU      0.00s WALL (       1 calls)
     potinit      :      0.09s CPU      0.11s WALL (       1 calls)
     hinit0       :      0.06s CPU      0.06s WALL (       1 calls)

     Called by electrons:
     c_bands      :      0.05s CPU      0.05s WALL (       6 calls)
     sum_band     :      0.01s CPU      0.01s WALL (       6 calls)
     v_of_rho     :      0.00s CPU      0.00s WALL (       7 calls)
     newd         :      0.00s CPU      0.00s WALL (       7 calls)
     PAW_pot      :      0.67s CPU      0.75s WALL (       7 calls)
     mix_rho      :      0.00s CPU      0.00s WALL (       6 calls)

     Called by c_bands:
     init_us_2    :      0.00s CPU      0.00s WALL (      60 calls)
     cegterg      :      0.05s CPU      0.05s WALL (      24 calls)

     Called by sum_band:
     sum_band:bec :      0.00s CPU      0.00s WALL (      24 calls)
     addusdens    :      0.00s CPU      0.00s WALL (       6 calls)

     Called by *egterg:
     h_psi        :      0.02s CPU      0.03s WALL (      82 calls)
     s_psi        :      0.00s CPU      0.00s WALL (      82 calls)
     g_psi        :      0.00s CPU      0.00s WALL (      54 calls)
     cdiaghg      :      0.02s CPU      0.02s WALL (      78 calls)

     Called by h_psi:
     h_psi:pot    :      0.02s CPU      0.03s WALL (      82 calls)
     h_psi:calbec :      0.00s CPU      0.00s WALL (      82 calls)
     vloc_psi     :      0.02s CPU      0.03s WALL (      82 calls)
     add_vuspsi   :      0.00s CPU      0.00s WALL (      82 calls)

     General routines
     calbec       :      0.00s CPU      0.00s WALL (     126 calls)
     fft          :      0.00s CPU      0.00s WALL (     103 calls)
     ffts         :      0.00s CPU      0.00s WALL (       6 calls)
     fftw         :      0.02s CPU      0.03s WALL (    1558 calls)

     Parallel routines
     fft_scatt_xy :      0.00s CPU      0.00s WALL (    1667 calls)
     fft_scatt_yz :      0.01s CPU      0.01s WALL (    1667 calls)

     PWSCF        :     1.63s CPU         1.78s WALL


   This run was terminated on:   0: 4:58  27Mar2024            

=------------------------------------------------------------------------------=
   JOB DONE.
=------------------------------------------------------------------------------=
