
     Program PWSCF v.6.3MaX starts on 27Mar2024 at  0: 2: 3 

     This program is part of the open-source Quantum ESPRESSO suite
     for quantum simulation of materials; please cite
         "P. Giannozzi et al., J. Phys.:Condens. Matter 21 395502 (2009);
         "P. Giannozzi et al., J. Phys.:Condens. Matter 29 465901 (2017);
          URL http://www.quantum-espresso.org", 
     in publications or presentations arising from this work. More details at
     http://www.quantum-espresso.org/quote

     Parallel version (MPI), running on     5 processors

     MPI processes distributed on     1 nodes
     R & G space division:  proc/nbgrp/npool/nimage =       5
     Waiting for input...
     Reading input from standard input

     Current dimensions of program PWSCF are:
     Max number of different atomic species (ntypx) = 10
     Max number of k-points (npk) =  40000
     Max angular momentum in pseudopotentials (lmaxx) =  3

     Subspace diagonalization in iterative solution of the eigenvalue problem:
     a serial algorithm will be used


     Parallelization info
     --------------------
     sticks:   dense  smooth     PW     G-vecs:    dense   smooth      PW
     Min         164     164     48                 3117     3117     488
     Max         165     165     49                 3120     3120     491
     Sum         823     823    241                15593    15593    2445



     bravais-lattice index     =            2
     lattice parameter (alat)  =       7.7200  a.u.
     unit-cell volume          =     115.0249 (a.u.)^3
     number of atoms/cell      =            1
     number of atomic types    =            1
     number of electrons       =        11.00
     number of Kohn-Sham states=           10
     kinetic-energy cutoff     =     100.0000  Ry
     charge density cutoff     =     400.0000  Ry
     convergence threshold     =      1.0E-08
     mixing beta               =       0.7000
     number of iterations used =            8  plain     mixing
     Exchange-correlation      = PBESOL ( 1  4 10  8 0 0)

     celldm(1)=   7.720000  celldm(2)=   0.000000  celldm(3)=   0.000000
     celldm(4)=   0.000000  celldm(5)=   0.000000  celldm(6)=   0.000000

     crystal axes: (cart. coord. in units of alat)
               a(1) = (  -0.500000   0.000000   0.500000 )  
               a(2) = (   0.000000   0.500000   0.500000 )  
               a(3) = (  -0.500000   0.500000   0.000000 )  

     reciprocal axes: (cart. coord. in units 2 pi/alat)
               b(1) = ( -1.000000 -1.000000  1.000000 )  
               b(2) = (  1.000000  1.000000  1.000000 )  
               b(3) = ( -1.000000  1.000000 -1.000000 )  


     PseudoPot. # 1 for Ag read from file:
     /home/lorenzo/pseudos/Ag/Ag.pbesol-n-rrkjus_psl.1.0.0.UPF
     MD5 check sum: 3b43e8aa747a56f565f44d11355b8b45
     Pseudo is Ultrasoft + core correction, Zval = 11.0
     Generated using "atomic" code by A. Dal Corso v.6.2.2
     Using radial grid of 1237 points,  6 beta functions with: 
                l(1) =   0
                l(2) =   0
                l(3) =   1
                l(4) =   1
                l(5) =   2
                l(6) =   2
     Q(r) pseudized with 0 coefficients 


     atomic species   valence    mass     pseudopotential
        Ag            11.00   107.86820     Ag( 1.00)

     48 Sym. Ops., with inversion, found



   Cartesian axes

     site n.     atom                  positions (alat units)
         1           Ag  tau(   1) = (   0.0000000   0.0000000   0.0000000  )

     number of k points=     3  gaussian smearing, width (Ry)=  0.0100
                       cart. coord. in units 2pi/alat
        k(    1) = (   0.0000000   0.0000000   0.0000000), wk =   0.2500000
        k(    2) = (   0.5000000  -0.5000000   0.5000000), wk =   1.0000000
        k(    3) = (   0.0000000  -1.0000000   0.0000000), wk =   0.7500000

     Dense  grid:    15593 G-vectors     FFT dimensions: (  36,  36,  36)

     Estimated max dynamical RAM per process >      13.89 MB

     Estimated total dynamical RAM >      69.47 MB

     Initial potential from superposition of free atoms

     starting charge   10.99964, renormalised to   11.00000
     Starting wfcs are    9 randomized atomic wfcs +    1 random wfcs

     total cpu time spent up to now is        1.0 secs

     Self-consistent Calculation

     iteration #  1     ecut=   100.00 Ry     beta= 0.70
     Davidson diagonalization with overlap
     ethr =  1.00E-02,  avg # of iterations =  6.7

     Threshold (ethr) on eigenvalues was too large:
     Diagonalizing with lowered threshold

     Davidson diagonalization with overlap
     ethr =  1.84E-05,  avg # of iterations =  3.7

     total cpu time spent up to now is        1.3 secs

     total energy              =     -84.03393366 Ry
     Harris-Foulkes estimate   =     -84.03431189 Ry
     estimated scf accuracy    <       0.00187517 Ry

     iteration #  2     ecut=   100.00 Ry     beta= 0.70
     Davidson diagonalization with overlap
     ethr =  1.70E-05,  avg # of iterations =  1.7

     total cpu time spent up to now is        1.4 secs

     total energy              =     -84.03404411 Ry
     Harris-Foulkes estimate   =     -84.03419073 Ry
     estimated scf accuracy    <       0.00029810 Ry

     iteration #  3     ecut=   100.00 Ry     beta= 0.70
     Davidson diagonalization with overlap
     ethr =  2.71E-06,  avg # of iterations =  5.0

     total cpu time spent up to now is        1.5 secs

     total energy              =     -84.03410769 Ry
     Harris-Foulkes estimate   =     -84.03413793 Ry
     estimated scf accuracy    <       0.00006768 Ry

     iteration #  4     ecut=   100.00 Ry     beta= 0.70
     Davidson diagonalization with overlap
     ethr =  6.15E-07,  avg # of iterations =  2.0

     total cpu time spent up to now is        1.6 secs

     total energy              =     -84.03411902 Ry
     Harris-Foulkes estimate   =     -84.03411903 Ry
     estimated scf accuracy    <       0.00000009 Ry

     iteration #  5     ecut=   100.00 Ry     beta= 0.70
     Davidson diagonalization with overlap
     ethr =  7.90E-10,  avg # of iterations =  3.3

     total cpu time spent up to now is        1.7 secs

     total energy              =     -84.03411937 Ry
     Harris-Foulkes estimate   =     -84.03411939 Ry
     estimated scf accuracy    <       0.00000006 Ry

     iteration #  6     ecut=   100.00 Ry     beta= 0.70
     Davidson diagonalization with overlap
     ethr =  5.82E-10,  avg # of iterations =  1.0

     total cpu time spent up to now is        1.8 secs

     total energy              =     -84.03411936 Ry
     Harris-Foulkes estimate   =     -84.03411937 Ry
     estimated scf accuracy    <       0.00000003 Ry

     iteration #  7     ecut=   100.00 Ry     beta= 0.70
     Davidson diagonalization with overlap
     ethr =  2.89E-10,  avg # of iterations =  2.0

     total cpu time spent up to now is        1.9 secs

     End of self-consistent calculation

          k = 0.0000 0.0000 0.0000 (  1917 PWs)   bands (ev):

     4.8196   8.2200   8.2200   8.2200   9.3202   9.3202  29.4883  32.8647
    32.8647  32.8647

          k = 0.5000-0.5000 0.5000 (  1946 PWs)   bands (ev):

     6.4827   8.2049   8.2049  10.1348  10.1348  12.2026  16.4351  28.5522
    30.8918  30.8918

          k = 0.0000-1.0000 0.0000 (  1964 PWs)   bands (ev):

     6.4850   6.6470  10.1139  10.3425  10.3425  14.2286  19.5391  23.4918
    23.4918  29.8712

     the Fermi energy is    12.2675 ev

!    total energy              =     -84.03411936 Ry
     Harris-Foulkes estimate   =     -84.03411936 Ry
     estimated scf accuracy    <          2.6E-10 Ry

     The total energy is the sum of the following terms:

     one-electron contribution =      -4.75506962 Ry
     hartree contribution      =      14.79119029 Ry
     xc contribution           =     -22.20681284 Ry
     ewald contribution        =     -71.86118018 Ry
     smearing contrib. (-TS)   =      -0.00224702 Ry

     convergence has been achieved in   7 iterations

     Forces acting on atoms (cartesian axes, Ry/au):

     atom    1 type  1   force =     0.00000000    0.00000000    0.00000000

     Total force =     0.000000     Total SCF correction =     0.000000


     Computing stress (Cartesian axis) and pressure

          total   stress  (Ry/bohr**3)                   (kbar)     P=  221.14
   0.00150329  -0.00000000   0.00000000        221.14     -0.00      0.00
  -0.00000000   0.00150329   0.00000000         -0.00    221.14      0.00
   0.00000000   0.00000000   0.00150329          0.00      0.00    221.14


     Writing output data file Ag.save/

     init_run     :      0.27s CPU      0.28s WALL (       1 calls)
     electrons    :      0.88s CPU      0.91s WALL (       1 calls)
     forces       :      0.06s CPU      0.06s WALL (       1 calls)
     stress       :      0.22s CPU      0.22s WALL (       1 calls)

     Called by init_run:
     wfcinit      :      0.02s CPU      0.02s WALL (       1 calls)
     potinit      :      0.02s CPU      0.02s WALL (       1 calls)
     hinit0       :      0.21s CPU      0.22s WALL (       1 calls)

     Called by electrons:
     c_bands      :      0.47s CPU      0.49s WALL (       8 calls)
     sum_band     :      0.23s CPU      0.23s WALL (       8 calls)
     v_of_rho     :      0.08s CPU      0.08s WALL (       8 calls)
     newd         :      0.12s CPU      0.12s WALL (       8 calls)
     mix_rho      :      0.01s CPU      0.01s WALL (       8 calls)

     Called by c_bands:
     init_us_2    :      0.02s CPU      0.02s WALL (      57 calls)
     cegterg      :      0.45s CPU      0.47s WALL (      24 calls)

     Called by sum_band:
     sum_band:bec :      0.00s CPU      0.00s WALL (      24 calls)
     addusdens    :      0.12s CPU      0.12s WALL (       8 calls)

     Called by *egterg:
     h_psi        :      0.35s CPU      0.37s WALL (     103 calls)
     s_psi        :      0.01s CPU      0.01s WALL (     103 calls)
     g_psi        :      0.00s CPU      0.00s WALL (      76 calls)
     cdiaghg      :      0.03s CPU      0.03s WALL (      97 calls)

     Called by h_psi:
     h_psi:pot    :      0.35s CPU      0.37s WALL (     103 calls)
     h_psi:calbec :      0.02s CPU      0.02s WALL (     103 calls)
     vloc_psi     :      0.32s CPU      0.33s WALL (     103 calls)
     add_vuspsi   :      0.01s CPU      0.01s WALL (     103 calls)

     General routines
     calbec       :      0.03s CPU      0.03s WALL (     142 calls)
     fft          :      0.05s CPU      0.05s WALL (     115 calls)
     ffts         :      0.00s CPU      0.00s WALL (       8 calls)
     fftw         :      0.35s CPU      0.37s WALL (    1506 calls)

     Parallel routines
     fft_scatt_xy :      0.03s CPU      0.03s WALL (    1629 calls)
     fft_scatt_yz :      0.09s CPU      0.10s WALL (    1629 calls)

     PWSCF        :     2.17s CPU         2.24s WALL


   This run was terminated on:   0: 2: 5  27Mar2024            

=------------------------------------------------------------------------------=
   JOB DONE.
=------------------------------------------------------------------------------=
