
     Program PWSCF v.6.3MaX starts on 27Mar2024 at  0:26:50 

     This program is part of the open-source Quantum ESPRESSO suite
     for quantum simulation of materials; please cite
         "P. Giannozzi et al., J. Phys.:Condens. Matter 21 395502 (2009);
         "P. Giannozzi et al., J. Phys.:Condens. Matter 29 465901 (2017);
          URL http://www.quantum-espresso.org", 
     in publications or presentations arising from this work. More details at
     http://www.quantum-espresso.org/quote

     Parallel version (MPI), running on     5 processors

     MPI processes distributed on     1 nodes
     R & G space division:  proc/nbgrp/npool/nimage =       5
     Waiting for input...
     Reading input from standard input

     Current dimensions of program PWSCF are:
     Max number of different atomic species (ntypx) = 10
     Max number of k-points (npk) =  40000
     Max angular momentum in pseudopotentials (lmaxx) =  3

     Subspace diagonalization in iterative solution of the eigenvalue problem:
     a serial algorithm will be used


     Parallelization info
     --------------------
     sticks:   dense  smooth     PW     G-vecs:    dense   smooth      PW
     Min          99      99     32                 1446     1446     258
     Max         100     100     33                 1449     1449     259
     Sum         499     499    163                 7239     7239    1291



     bravais-lattice index     =            2
     lattice parameter (alat)  =       7.7200  a.u.
     unit-cell volume          =     115.0249 (a.u.)^3
     number of atoms/cell      =            1
     number of atomic types    =            1
     number of electrons       =        11.00
     number of Kohn-Sham states=           10
     kinetic-energy cutoff     =      60.0000  Ry
     charge density cutoff     =     240.0000  Ry
     convergence threshold     =      1.0E-08
     mixing beta               =       0.7000
     number of iterations used =            8  plain     mixing
     Exchange-correlation      = PBE ( 1  4  3  4 0 0)

     celldm(1)=   7.720000  celldm(2)=   0.000000  celldm(3)=   0.000000
     celldm(4)=   0.000000  celldm(5)=   0.000000  celldm(6)=   0.000000

     crystal axes: (cart. coord. in units of alat)
               a(1) = (  -0.500000   0.000000   0.500000 )  
               a(2) = (   0.000000   0.500000   0.500000 )  
               a(3) = (  -0.500000   0.500000   0.000000 )  

     reciprocal axes: (cart. coord. in units 2 pi/alat)
               b(1) = ( -1.000000 -1.000000  1.000000 )  
               b(2) = (  1.000000  1.000000  1.000000 )  
               b(3) = ( -1.000000  1.000000 -1.000000 )  


     PseudoPot. # 1 for Ag read from file:
     /home/lorenzo/pseudos/Ag/Ag.pbe-n-rrkjus_psl.1.0.0.UPF
     MD5 check sum: d841cbfac2b0861aec33b46768a516bf
     Pseudo is Ultrasoft + core correction, Zval = 11.0
     Generated using "atomic" code by A. Dal Corso v.6.2.2
     Using radial grid of 1237 points,  6 beta functions with: 
                l(1) =   0
                l(2) =   0
                l(3) =   1
                l(4) =   1
                l(5) =   2
                l(6) =   2
     Q(r) pseudized with 0 coefficients 


     atomic species   valence    mass     pseudopotential
        Ag            11.00   107.86820     Ag( 1.00)

     48 Sym. Ops., with inversion, found



   Cartesian axes

     site n.     atom                  positions (alat units)
         1           Ag  tau(   1) = (   0.0000000   0.0000000   0.0000000  )

     number of k points=    20  gaussian smearing, width (Ry)=  0.0100
                       cart. coord. in units 2pi/alat
        k(    1) = (   0.0000000   0.0000000   0.0000000), wk =   0.0058309
        k(    2) = (  -0.1428571   0.1428571  -0.1428571), wk =   0.0466472
        k(    3) = (  -0.2857143   0.2857143  -0.2857143), wk =   0.0466472
        k(    4) = (  -0.4285714   0.4285714  -0.4285714), wk =   0.0466472
        k(    5) = (   0.0000000   0.2857143   0.0000000), wk =   0.0349854
        k(    6) = (  -0.1428571   0.4285714  -0.1428571), wk =   0.1399417
        k(    7) = (  -0.2857143   0.5714286  -0.2857143), wk =   0.1399417
        k(    8) = (   0.5714286  -0.2857143   0.5714286), wk =   0.1399417
        k(    9) = (   0.4285714  -0.1428571   0.4285714), wk =   0.1399417
        k(   10) = (   0.2857143  -0.0000000   0.2857143), wk =   0.0699708
        k(   11) = (   0.0000000   0.5714286   0.0000000), wk =   0.0349854
        k(   12) = (  -0.1428571   0.7142857  -0.1428571), wk =   0.1399417
        k(   13) = (   0.7142857  -0.1428571   0.7142857), wk =   0.1399417
        k(   14) = (   0.5714286   0.0000000   0.5714286), wk =   0.0699708
        k(   15) = (   0.0000000   0.8571429   0.0000000), wk =   0.0349854
        k(   16) = (   0.8571429  -0.0000000   0.8571429), wk =   0.0699708
        k(   17) = (  -0.2857143   0.5714286   0.0000000), wk =   0.1399417
        k(   18) = (   0.5714286  -0.2857143   0.8571429), wk =   0.2798834
        k(   19) = (   0.7142857  -0.1428571   1.0000000), wk =   0.1399417
        k(   20) = (   0.5714286   0.0000000   0.8571429), wk =   0.1399417

     Dense  grid:     7239 G-vectors     FFT dimensions: (  27,  27,  27)

     Estimated max dynamical RAM per process >       7.50 MB

     Estimated total dynamical RAM >      37.50 MB

     Initial potential from superposition of free atoms

     starting charge   10.99960, renormalised to   11.00000
     Starting wfcs are    9 randomized atomic wfcs +    1 random wfcs

     total cpu time spent up to now is        1.0 secs

     Self-consistent Calculation

     iteration #  1     ecut=    60.00 Ry     beta= 0.70
     Davidson diagonalization with overlap
     ethr =  1.00E-02,  avg # of iterations =  4.5

     Threshold (ethr) on eigenvalues was too large:
     Diagonalizing with lowered threshold

     Davidson diagonalization with overlap
     ethr =  2.37E-05,  avg # of iterations =  3.2

     total cpu time spent up to now is        1.4 secs

     total energy              =     -84.27536871 Ry
     Harris-Foulkes estimate   =     -84.27696234 Ry
     estimated scf accuracy    <       0.00289925 Ry

     iteration #  2     ecut=    60.00 Ry     beta= 0.70
     Davidson diagonalization with overlap
     ethr =  2.64E-05,  avg # of iterations =  2.0

     total cpu time spent up to now is        1.6 secs

     total energy              =     -84.27598482 Ry
     Harris-Foulkes estimate   =     -84.27694281 Ry
     estimated scf accuracy    <       0.00175958 Ry

     iteration #  3     ecut=    60.00 Ry     beta= 0.70
     Davidson diagonalization with overlap
     ethr =  1.60E-05,  avg # of iterations =  2.0

     total cpu time spent up to now is        1.8 secs

     total energy              =     -84.27639770 Ry
     Harris-Foulkes estimate   =     -84.27639708 Ry
     estimated scf accuracy    <       0.00002808 Ry

     iteration #  4     ecut=    60.00 Ry     beta= 0.70
     Davidson diagonalization with overlap
     ethr =  2.55E-07,  avg # of iterations =  2.3

     total cpu time spent up to now is        2.0 secs

     total energy              =     -84.27640345 Ry
     Harris-Foulkes estimate   =     -84.27640336 Ry
     estimated scf accuracy    <       0.00000020 Ry

     iteration #  5     ecut=    60.00 Ry     beta= 0.70
     Davidson diagonalization with overlap
     ethr =  1.80E-09,  avg # of iterations =  2.7

     total cpu time spent up to now is        2.2 secs

     total energy              =     -84.27640355 Ry
     Harris-Foulkes estimate   =     -84.27640357 Ry
     estimated scf accuracy    <       0.00000005 Ry

     iteration #  6     ecut=    60.00 Ry     beta= 0.70
     Davidson diagonalization with overlap
     ethr =  4.58E-10,  avg # of iterations =  2.1

     total cpu time spent up to now is        2.4 secs

     End of self-consistent calculation

          k = 0.0000 0.0000 0.0000 (   893 PWs)   bands (ev):

     5.0703   8.0922   8.0922   8.0922   9.1287   9.1287  29.8026  33.0928
    33.0928  33.0928

          k =-0.1429 0.1429-0.1429 (   914 PWs)   bands (ev):

     5.6745   7.9912   8.2378   8.2378   9.0940   9.0940  28.2451  30.6173
    33.0198  33.0198

          k =-0.2857 0.2857-0.2857 (   905 PWs)   bands (ev):

     6.5740   8.2615   8.2615   8.7348   9.3771   9.3771  22.6822  29.9433
    32.3759  32.3759

          k =-0.4286 0.4286-0.4286 (   893 PWs)   bands (ev):

     6.5130   8.0955   8.0955   9.8524   9.8524  11.5318  17.6690  28.9880
    31.2959  31.2959

          k = 0.0000 0.2857 0.0000 (   909 PWs)   bands (ev):

     5.8789   7.7804   8.3989   8.3989   8.8535   9.2668  29.8219  30.6445
    30.6445  30.9018

          k =-0.1429 0.4286-0.1429 (   902 PWs)   bands (ev):

     6.8105   7.6690   8.3250   8.5890   9.4406   9.5181  24.9476  29.1182
    29.6484  31.5871

          k =-0.2857 0.5714-0.2857 (   904 PWs)   bands (ev):

     6.8510   7.9566   8.4514   8.6020   9.9122  11.7412  19.5101  28.0843
    28.6397  30.0270

          k = 0.5714-0.2857 0.5714 (   903 PWs)   bands (ev):

     6.8196   7.8782   8.3436   9.0815   9.8288  13.7256  16.8207  26.6196
    29.6982  29.6999

          k = 0.4286-0.1429 0.4286 (   903 PWs)   bands (ev):

     7.0046   8.0294   8.4456   8.5275   9.2299  11.0805  21.2936  26.2546
    30.7848  32.4186

          k = 0.2857-0.0000 0.2857 (   911 PWs)   bands (ev):

     6.5336   7.7658   8.3682   8.4933   8.8213   9.5981  26.7498  27.0221
    33.0219  33.3928

          k = 0.0000 0.5714 0.0000 (   894 PWs)   bands (ev):

     6.9284   7.1307   9.2000   9.2000   9.5878   9.6213  26.7192  26.7192
    27.3390  29.8917

          k =-0.1429 0.7143-0.1429 (   895 PWs)   bands (ev):

     6.8694   7.1135   8.9877   9.2408   9.9520  12.2263  22.2164  24.3843
    25.7468  29.9174

          k = 0.7143-0.1429 0.7143 (   904 PWs)   bands (ev):

     6.9964   7.5265   8.5515   9.0464   9.8843  15.9935  17.5926  22.1697
    26.6253  29.7802

          k = 0.5714 0.0000 0.5714 (   899 PWs)   bands (ev):

     7.3991   7.9289   8.0298   8.8508   9.3755  13.7967  20.6363  21.3113
    29.1498  30.0826

          k = 0.0000 0.8571 0.0000 (   906 PWs)   bands (ev):

     6.5228   6.6519   9.8555  10.0065  10.0065  13.2839  21.1358  24.0933
    24.0933  29.9626

          k = 0.8571-0.0000 0.8571 (   906 PWs)   bands (ev):

     6.6183   6.8211   9.5392   9.6853  10.0476  15.5300  19.6593  21.1854
    24.4334  29.9408

          k =-0.2857 0.5714 0.0000 (   897 PWs)   bands (ev):

     7.3900   7.4293   8.0942   9.1928   9.2573  11.2607  23.7811  23.9817
    27.8706  33.1675

          k = 0.5714-0.2857 0.8571 (   906 PWs)   bands (ev):

     7.2853   7.6032   8.1951   8.9314   9.7850  14.2767  18.7406  23.9940
    25.5008  32.5997

          k = 0.7143-0.1429 1.0000 (   904 PWs)   bands (ev):

     6.9373   7.0429   8.7881   9.5353  10.0026  14.9240  21.3113  21.8330
    22.3739  32.6500

          k = 0.5714 0.0000 0.8571 (   910 PWs)   bands (ev):

     7.1824   7.5516   8.1584   9.1610   9.9962  17.6879  18.3242  20.2703
    23.2951  33.2795

     the Fermi energy is    13.2637 ev

!    total energy              =     -84.27640356 Ry
     Harris-Foulkes estimate   =     -84.27640356 Ry
     estimated scf accuracy    <          4.5E-10 Ry

     The total energy is the sum of the following terms:

     one-electron contribution =      -4.72036370 Ry
     hartree contribution      =      14.65629411 Ry
     xc contribution           =     -22.35105724 Ry
     ewald contribution        =     -71.86118019 Ry
     smearing contrib. (-TS)   =      -0.00009653 Ry

     convergence has been achieved in   6 iterations

     Forces acting on atoms (cartesian axes, Ry/au):

     atom    1 type  1   force =     0.00000000    0.00000000    0.00000000

     Total force =     0.000000     Total SCF correction =     0.000000


     Computing stress (Cartesian axis) and pressure

          total   stress  (Ry/bohr**3)                   (kbar)     P=   39.11
   0.00026589  -0.00000000  -0.00000000         39.11     -0.00     -0.00
  -0.00000000   0.00026589   0.00000000         -0.00     39.11      0.00
  -0.00000000   0.00000000   0.00026589         -0.00      0.00     39.11


     Writing output data file Ag.save/

     init_run     :      0.23s CPU      0.24s WALL (       1 calls)
     electrons    :      1.38s CPU      1.46s WALL (       1 calls)
     forces       :      0.03s CPU      0.03s WALL (       1 calls)
     stress       :      0.11s CPU      0.11s WALL (       1 calls)

     Called by init_run:
     wfcinit      :      0.06s CPU      0.07s WALL (       1 calls)
     potinit      :      0.01s CPU      0.01s WALL (       1 calls)
     hinit0       :      0.15s CPU      0.15s WALL (       1 calls)

     Called by electrons:
     c_bands      :      1.08s CPU      1.14s WALL (       7 calls)
     sum_band     :      0.23s CPU      0.25s WALL (       7 calls)
     v_of_rho     :      0.03s CPU      0.03s WALL (       7 calls)
     newd         :      0.05s CPU      0.05s WALL (       7 calls)
     mix_rho      :      0.00s CPU      0.00s WALL (       7 calls)

     Called by c_bands:
     init_us_2    :      0.03s CPU      0.04s WALL (     340 calls)
     cegterg      :      1.04s CPU      1.09s WALL (     140 calls)

     Called by sum_band:
     sum_band:bec :      0.00s CPU      0.00s WALL (     140 calls)
     addusdens    :      0.05s CPU      0.05s WALL (       7 calls)

     Called by *egterg:
     h_psi        :      0.84s CPU      0.88s WALL (     536 calls)
     s_psi        :      0.03s CPU      0.03s WALL (     536 calls)
     g_psi        :      0.00s CPU      0.00s WALL (     376 calls)
     cdiaghg      :      0.10s CPU      0.10s WALL (     496 calls)

     Called by h_psi:
     h_psi:pot    :      0.84s CPU      0.88s WALL (     536 calls)
     h_psi:calbec :      0.04s CPU      0.04s WALL (     536 calls)
     vloc_psi     :      0.77s CPU      0.81s WALL (     536 calls)
     add_vuspsi   :      0.03s CPU      0.03s WALL (     536 calls)

     General routines
     calbec       :      0.06s CPU      0.06s WALL (     776 calls)
     fft          :      0.02s CPU      0.02s WALL (     104 calls)
     ffts         :      0.00s CPU      0.00s WALL (       7 calls)
     fftw         :      0.86s CPU      0.90s WALL (    8836 calls)

     Parallel routines
     fft_scatt_xy :      0.08s CPU      0.08s WALL (    8947 calls)
     fft_scatt_yz :      0.20s CPU      0.20s WALL (    8947 calls)

     PWSCF        :     2.49s CPU         2.62s WALL


   This run was terminated on:   0:26:53  27Mar2024            

=------------------------------------------------------------------------------=
   JOB DONE.
=------------------------------------------------------------------------------=
