
     Program PWSCF v.6.3MaX starts on 27Mar2024 at  0: 6: 1 

     This program is part of the open-source Quantum ESPRESSO suite
     for quantum simulation of materials; please cite
         "P. Giannozzi et al., J. Phys.:Condens. Matter 21 395502 (2009);
         "P. Giannozzi et al., J. Phys.:Condens. Matter 29 465901 (2017);
          URL http://www.quantum-espresso.org", 
     in publications or presentations arising from this work. More details at
     http://www.quantum-espresso.org/quote

     Parallel version (MPI), running on     5 processors

     MPI processes distributed on     1 nodes
     R & G space division:  proc/nbgrp/npool/nimage =       5
     Waiting for input...
     Reading input from standard input

     Current dimensions of program PWSCF are:
     Max number of different atomic species (ntypx) = 10
     Max number of k-points (npk) =  40000
     Max angular momentum in pseudopotentials (lmaxx) =  3

     Subspace diagonalization in iterative solution of the eigenvalue problem:
     a serial algorithm will be used


     Parallelization info
     --------------------
     sticks:   dense  smooth     PW     G-vecs:    dense   smooth      PW
     Min          24      24     11                  178      178      51
     Max          25      25     11                  181      181      52
     Sum         121     121     55                  893      893     259



     bravais-lattice index     =            2
     lattice parameter (alat)  =       7.7200  a.u.
     unit-cell volume          =     115.0249 (a.u.)^3
     number of atoms/cell      =            1
     number of atomic types    =            1
     number of electrons       =        11.00
     number of Kohn-Sham states=           10
     kinetic-energy cutoff     =      15.0000  Ry
     charge density cutoff     =      60.0000  Ry
     convergence threshold     =      1.0E-08
     mixing beta               =       0.7000
     number of iterations used =            8  plain     mixing
     Exchange-correlation      = PBE ( 1  4  3  4 0 0)

     celldm(1)=   7.720000  celldm(2)=   0.000000  celldm(3)=   0.000000
     celldm(4)=   0.000000  celldm(5)=   0.000000  celldm(6)=   0.000000

     crystal axes: (cart. coord. in units of alat)
               a(1) = (  -0.500000   0.000000   0.500000 )  
               a(2) = (   0.000000   0.500000   0.500000 )  
               a(3) = (  -0.500000   0.500000   0.000000 )  

     reciprocal axes: (cart. coord. in units 2 pi/alat)
               b(1) = ( -1.000000 -1.000000  1.000000 )  
               b(2) = (  1.000000  1.000000  1.000000 )  
               b(3) = ( -1.000000  1.000000 -1.000000 )  


     PseudoPot. # 1 for Ag read from file:
     /home/lorenzo/pseudos/Ag/Ag.pbe-n-rrkjus_psl.1.0.0.UPF
     MD5 check sum: d841cbfac2b0861aec33b46768a516bf
     Pseudo is Ultrasoft + core correction, Zval = 11.0
     Generated using "atomic" code by A. Dal Corso v.6.2.2
     Using radial grid of 1237 points,  6 beta functions with: 
                l(1) =   0
                l(2) =   0
                l(3) =   1
                l(4) =   1
                l(5) =   2
                l(6) =   2
     Q(r) pseudized with 0 coefficients 


     atomic species   valence    mass     pseudopotential
        Ag            11.00   107.86820     Ag( 1.00)

     48 Sym. Ops., with inversion, found



   Cartesian axes

     site n.     atom                  positions (alat units)
         1           Ag  tau(   1) = (   0.0000000   0.0000000   0.0000000  )

     number of k points=    47  gaussian smearing, width (Ry)=  0.0100
                       cart. coord. in units 2pi/alat
        k(    1) = (   0.0000000   0.0000000   0.0000000), wk =   0.0020000
        k(    2) = (  -0.1000000   0.1000000  -0.1000000), wk =   0.0160000
        k(    3) = (  -0.2000000   0.2000000  -0.2000000), wk =   0.0160000
        k(    4) = (  -0.3000000   0.3000000  -0.3000000), wk =   0.0160000
        k(    5) = (  -0.4000000   0.4000000  -0.4000000), wk =   0.0160000
        k(    6) = (   0.5000000  -0.5000000   0.5000000), wk =   0.0080000
        k(    7) = (   0.0000000   0.2000000   0.0000000), wk =   0.0120000
        k(    8) = (  -0.1000000   0.3000000  -0.1000000), wk =   0.0480000
        k(    9) = (  -0.2000000   0.4000000  -0.2000000), wk =   0.0480000
        k(   10) = (  -0.3000000   0.5000000  -0.3000000), wk =   0.0480000
        k(   11) = (   0.6000000  -0.4000000   0.6000000), wk =   0.0480000
        k(   12) = (   0.5000000  -0.3000000   0.5000000), wk =   0.0480000
        k(   13) = (   0.4000000  -0.2000000   0.4000000), wk =   0.0480000
        k(   14) = (   0.3000000  -0.1000000   0.3000000), wk =   0.0480000
        k(   15) = (   0.2000000   0.0000000   0.2000000), wk =   0.0240000
        k(   16) = (   0.0000000   0.4000000   0.0000000), wk =   0.0120000
        k(   17) = (  -0.1000000   0.5000000  -0.1000000), wk =   0.0480000
        k(   18) = (  -0.2000000   0.6000000  -0.2000000), wk =   0.0480000
        k(   19) = (   0.7000000  -0.3000000   0.7000000), wk =   0.0480000
        k(   20) = (   0.6000000  -0.2000000   0.6000000), wk =   0.0480000
        k(   21) = (   0.5000000  -0.1000000   0.5000000), wk =   0.0480000
        k(   22) = (   0.4000000   0.0000000   0.4000000), wk =   0.0240000
        k(   23) = (   0.0000000   0.6000000   0.0000000), wk =   0.0120000
        k(   24) = (  -0.1000000   0.7000000  -0.1000000), wk =   0.0480000
        k(   25) = (   0.8000000  -0.2000000   0.8000000), wk =   0.0480000
        k(   26) = (   0.7000000  -0.1000000   0.7000000), wk =   0.0480000
        k(   27) = (   0.6000000  -0.0000000   0.6000000), wk =   0.0240000
        k(   28) = (   0.0000000   0.8000000   0.0000000), wk =   0.0120000
        k(   29) = (   0.9000000  -0.1000000   0.9000000), wk =   0.0480000
        k(   30) = (   0.8000000   0.0000000   0.8000000), wk =   0.0240000
        k(   31) = (   0.0000000  -1.0000000   0.0000000), wk =   0.0060000
        k(   32) = (  -0.2000000   0.4000000   0.0000000), wk =   0.0480000
        k(   33) = (  -0.3000000   0.5000000  -0.1000000), wk =   0.0960000
        k(   34) = (   0.6000000  -0.4000000   0.8000000), wk =   0.0960000
        k(   35) = (   0.5000000  -0.3000000   0.7000000), wk =   0.0480000
        k(   36) = (  -0.2000000   0.6000000   0.0000000), wk =   0.0480000
        k(   37) = (   0.7000000  -0.3000000   0.9000000), wk =   0.0960000
        k(   38) = (   0.6000000  -0.2000000   0.8000000), wk =   0.0960000
        k(   39) = (   0.5000000  -0.1000000   0.7000000), wk =   0.0960000
        k(   40) = (   0.4000000   0.0000000   0.6000000), wk =   0.0480000
        k(   41) = (   0.8000000  -0.2000000   1.0000000), wk =   0.0480000
        k(   42) = (   0.7000000  -0.1000000   0.9000000), wk =   0.0960000
        k(   43) = (   0.6000000   0.0000000   0.8000000), wk =   0.0480000
        k(   44) = (  -0.2000000  -1.0000000   0.0000000), wk =   0.0240000
        k(   45) = (   0.6000000  -0.2000000   1.0000000), wk =   0.0480000
        k(   46) = (   0.5000000  -0.1000000   0.9000000), wk =   0.0480000
        k(   47) = (  -0.4000000  -1.0000000   0.0000000), wk =   0.0240000

     Dense  grid:      893 G-vectors     FFT dimensions: (  15,  15,  15)

     Estimated max dynamical RAM per process >       1.61 MB

     Estimated total dynamical RAM >       8.04 MB

     Check: negative/imaginary core charge=   -0.000001    0.000000

     Initial potential from superposition of free atoms

     starting charge   10.99960, renormalised to   11.00000
     Starting wfcs are    9 randomized atomic wfcs +    1 random wfcs

     total cpu time spent up to now is        1.0 secs

     Self-consistent Calculation

     iteration #  1     ecut=    15.00 Ry     beta= 0.70
     Davidson diagonalization with overlap
     ethr =  1.00E-02,  avg # of iterations =  4.6

     total cpu time spent up to now is        1.3 secs

     total energy              =     -77.78730436 Ry
     Harris-Foulkes estimate   =     -80.40327672 Ry
     estimated scf accuracy    <       3.36786453 Ry

     iteration #  2     ecut=    15.00 Ry     beta= 0.70
     Davidson diagonalization with overlap
     ethr =  1.00E-02,  avg # of iterations =  2.6

     total cpu time spent up to now is        1.5 secs

     total energy              =     -78.92174442 Ry
     Harris-Foulkes estimate   =     -79.31366971 Ry
     estimated scf accuracy    <       0.76163853 Ry

     iteration #  3     ecut=    15.00 Ry     beta= 0.70
     Davidson diagonalization with overlap
     ethr =  6.92E-03,  avg # of iterations =  1.2

     total cpu time spent up to now is        1.6 secs

     total energy              =     -79.00973315 Ry
     Harris-Foulkes estimate   =     -79.01896006 Ry
     estimated scf accuracy    <       0.02696716 Ry

     iteration #  4     ecut=    15.00 Ry     beta= 0.70
     Davidson diagonalization with overlap
     ethr =  2.45E-04,  avg # of iterations =  2.8

     total cpu time spent up to now is        1.7 secs

     total energy              =     -79.01643249 Ry
     Harris-Foulkes estimate   =     -79.01827017 Ry
     estimated scf accuracy    <       0.00453937 Ry

     iteration #  5     ecut=    15.00 Ry     beta= 0.70
     Davidson diagonalization with overlap
     ethr =  4.13E-05,  avg # of iterations =  1.0

     total cpu time spent up to now is        1.8 secs

     total energy              =     -79.01674377 Ry
     Harris-Foulkes estimate   =     -79.01685149 Ry
     estimated scf accuracy    <       0.00032802 Ry

     iteration #  6     ecut=    15.00 Ry     beta= 0.70
     Davidson diagonalization with overlap
     ethr =  2.98E-06,  avg # of iterations =  1.9

     total cpu time spent up to now is        1.9 secs

     total energy              =     -79.01676909 Ry
     Harris-Foulkes estimate   =     -79.01678355 Ry
     estimated scf accuracy    <       0.00003005 Ry

     iteration #  7     ecut=    15.00 Ry     beta= 0.70
     Davidson diagonalization with overlap
     ethr =  2.73E-07,  avg # of iterations =  2.0

     total cpu time spent up to now is        2.1 secs

     total energy              =     -79.01677513 Ry
     Harris-Foulkes estimate   =     -79.01677514 Ry
     estimated scf accuracy    <       0.00000001 Ry

     iteration #  8     ecut=    15.00 Ry     beta= 0.70
     Davidson diagonalization with overlap
     ethr =  1.27E-10,  avg # of iterations =  3.7

     total cpu time spent up to now is        2.2 secs

     End of self-consistent calculation

          k = 0.0000 0.0000 0.0000 (   113 PWs)   bands (ev):

     4.7116   8.5518   8.5518   8.5518   9.4678   9.4678  31.0977  32.2951
    32.2951  32.2951

          k =-0.1000 0.1000-0.1000 (   116 PWs)   bands (ev):

     5.0026   7.2098   8.6213   8.6213   9.1943   9.1943  29.7865  31.5079
    32.2871  32.2871

          k =-0.2000 0.2000-0.2000 (   122 PWs)   bands (ev):

     5.6575   7.1434   7.4702   7.4702   8.7159   8.7159  25.6990  31.7890
    31.8156  31.8156

          k =-0.3000 0.3000-0.3000 (   114 PWs)   bands (ev):

     6.5018   7.9635   7.9635   8.9941  10.4519  10.4519  21.7152  30.9098
    30.9098  31.2001

          k =-0.4000 0.4000-0.4000 (   114 PWs)   bands (ev):

     6.5426   7.8443   7.8443  10.7161  10.7161  10.7596  17.9316  29.9233
    29.9233  30.3808

          k = 0.5000-0.5000 0.5000 (   108 PWs)   bands (ev):

     6.6525   9.0496   9.0496  11.5779  11.5779  12.3624  15.8841  29.5204
    29.5204  30.0756

          k = 0.0000 0.2000 0.0000 (   117 PWs)   bands (ev):

     5.1067   7.8482   7.8482   8.2161   8.7815   9.5874  31.1105  31.1105
    31.2984  31.3802

          k =-0.1000 0.3000-0.1000 (   119 PWs)   bands (ev):

     5.7333   6.8885   7.7014   7.8734   9.1440   9.7402  27.2451  30.0216
    31.2733  32.9113

          k =-0.2000 0.4000-0.2000 (   117 PWs)   bands (ev):

     6.2379   7.3455   7.8865   8.3216  10.1025  10.3552  23.0198  29.1523
    30.9110  31.6173

          k =-0.3000 0.5000-0.3000 (   111 PWs)   bands (ev):

     6.7198   8.3919   8.6459   9.2547  11.4134  11.6512  19.3554  28.5875
    29.5461  30.5963

          k = 0.6000-0.4000 0.6000 (   114 PWs)   bands (ev):

     6.7315   7.7666   7.9694   9.9405  10.7128  13.0284  16.1814  28.1119
    28.6585  30.2556

          k = 0.5000-0.3000 0.5000 (   114 PWs)   bands (ev):

     6.7719   7.7958   7.9451   9.9449  10.6447  12.4504  17.0889  27.4883
    29.6491  30.4454

          k = 0.4000-0.2000 0.4000 (   111 PWs)   bands (ev):

     6.8640   8.0662   9.3155   9.4153   9.9622  11.8463  20.6343  27.6297
    31.3133  31.3767

          k = 0.3000-0.1000 0.3000 (   116 PWs)   bands (ev):

     6.3024   6.9950   7.9420   8.6643   9.7710  10.6688  24.5178  28.0528
    32.7051  33.1284

          k = 0.2000 0.0000 0.2000 (   119 PWs)   bands (ev):

     5.4620   6.5659   8.0443   8.6938   8.8274   8.9670  28.3587  29.1109
    32.5427  33.3230

          k = 0.0000 0.4000 0.0000 (   121 PWs)   bands (ev):

     5.9665   6.1974   7.9973   7.9973   8.6841   9.5639  28.3493  28.3493
    29.7578  31.5618

          k =-0.1000 0.5000-0.1000 (   114 PWs)   bands (ev):

     6.7329   6.9081   8.3992   9.0893  10.5050  10.9421  24.8934  27.2875
    28.8442  31.2061

          k =-0.2000 0.6000-0.2000 (   113 PWs)   bands (ev):

     6.6481   7.7250   8.3211   9.0578  11.3911  11.6578  20.9041  26.6784
    26.9155  30.9314

          k = 0.7000-0.3000 0.7000 (   111 PWs)   bands (ev):

     6.7610   7.6561   8.9884   9.7620  11.5975  13.7738  17.4799  25.2350
    26.9240  30.7513

          k = 0.6000-0.2000 0.6000 (   111 PWs)   bands (ev):

     7.2948   7.4585   9.0488   9.6412  11.0294  14.6584  16.8500  24.0135
    27.9746  30.9030

          k = 0.5000-0.1000 0.5000 (   113 PWs)   bands (ev):

     7.4466   7.4965   8.8021   8.9884  10.0350  12.8048  20.0453  23.6331
    29.8703  31.3695

          k = 0.4000 0.0000 0.4000 (   117 PWs)   bands (ev):

     6.1171   7.2140   8.0648   8.6267   9.7272  11.5364  23.2066  24.1343
    32.0146  32.2731

          k = 0.0000 0.6000 0.0000 (   113 PWs)   bands (ev):

     5.7944   6.3651   9.3149  10.5576  11.1248  11.1248  25.6471  25.8001
    25.8001  30.3714

          k =-0.1000 0.7000-0.1000 (   114 PWs)   bands (ev):

     5.7278   6.5377   9.7872   9.9432  11.3084  11.8550  22.2446  24.2807
    24.8951  30.8037

          k = 0.8000-0.2000 0.8000 (   110 PWs)   bands (ev):

     6.2889   7.9710   9.7402   9.9427  11.5770  14.1772  19.0486  22.8202
    24.9470  31.1606

          k = 0.7000-0.1000 0.7000 (   114 PWs)   bands (ev):

     5.9481   7.9379   8.8234   9.3581  10.6526  16.1093  17.0342  21.0976
    25.8987  31.0045

          k = 0.6000-0.0000 0.6000 (   111 PWs)   bands (ev):

     7.5050   8.6664   8.6741   9.6056   9.8864  14.3339  20.2093  20.2211
    27.8432  31.4712

          k = 0.0000 0.8000 0.0000 (   112 PWs)   bands (ev):

     5.5297   6.4607  10.5310  11.5872  11.5872  12.0325  21.0723  23.7125
    23.7125  30.5555

          k = 0.9000-0.1000 0.9000 (   114 PWs)   bands (ev):

     4.9356   6.4696  10.4296  10.9893  11.0258  14.1628  19.0652  22.0819
    23.4447  30.9415

          k = 0.8000 0.0000 0.8000 (   110 PWs)   bands (ev):

     5.6141   7.6831  10.4557  10.8215  11.0147  16.5422  17.5658  20.4964
    24.3331  31.0706

          k = 0.0000-1.0000 0.0000 (   116 PWs)   bands (ev):

     4.1671   6.1713  10.5326  11.0283  11.0283  14.1392  18.2278  22.8982
    22.8982  30.5824

          k =-0.2000 0.4000 0.0000 (   115 PWs)   bands (ev):

     6.5318   6.8045   8.0081   8.8090   9.6281  11.2611  25.7697  26.8244
    31.7852  33.0269

          k =-0.3000 0.5000-0.1000 (   113 PWs)   bands (ev):

     6.9348   7.7462   8.3935   8.8888  10.4417  11.6805  22.1208  25.7954
    29.7984  32.3949

          k = 0.6000-0.4000 0.8000 (   112 PWs)   bands (ev):

     6.9308   7.7483   8.8718   9.3110  10.9760  12.8829  18.5701  25.5878
    27.9233  31.6388

          k = 0.5000-0.3000 0.7000 (   116 PWs)   bands (ev):

     6.2726   6.8954   8.3093   9.4091  10.6499  14.6114  15.7302  25.6989
    26.7631  31.2819

          k =-0.2000 0.6000 0.0000 (   116 PWs)   bands (ev):

     6.1655   6.4924   8.0179  10.1859  10.1989  11.5952  23.3428  24.3468
    26.7800  32.1808

          k = 0.7000-0.3000 0.9000 (   115 PWs)   bands (ev):

     6.0436   7.1686   8.2896   9.5749  11.0512  13.0011  20.0773  23.5756
    25.1452  32.3580

          k = 0.6000-0.2000 0.8000 (   114 PWs)   bands (ev):

     6.4786   7.5104   8.6387   9.1477  10.7647  15.5275  17.0222  22.8405
    24.8921  32.3902

          k = 0.5000-0.1000 0.7000 (   112 PWs)   bands (ev):

     6.9873   7.7864   8.6199   9.2894  10.9611  14.6786  18.4230  22.0600
    25.9789  32.7280

          k = 0.4000 0.0000 0.6000 (   114 PWs)   bands (ev):

     7.0770   7.7134   7.8771   9.3672  10.0968  12.8467  21.2755  22.3348
    27.6324  33.1268

          k = 0.8000-0.2000 1.0000 (   113 PWs)   bands (ev):

     5.5122   6.8126   9.7593  10.6597  11.2976  13.4077  20.6711  22.5239
    23.4550  32.3005

          k = 0.7000-0.1000 0.9000 (   107 PWs)   bands (ev):

     6.8912   7.8587   9.7014  11.1785  11.7247  15.8444  18.6339  21.1272
    23.3490  33.1050

          k = 0.6000 0.0000 0.8000 (   110 PWs)   bands (ev):

     6.9413   8.1088   8.9573   9.6122  11.4774  16.4229  18.4422  19.7329
    24.4413  33.0413

          k =-0.2000-1.0000 0.0000 (   112 PWs)   bands (ev):

     5.6851   6.5582  10.3732  10.7742  11.6575  15.5097  18.1559  21.8607
    22.4034  32.3239

          k = 0.6000-0.2000 1.0000 (   111 PWs)   bands (ev):

     7.0673   7.4808   8.4501   9.9634  11.5273  15.0922  19.9107  20.5736
    23.6236  34.6509

          k = 0.5000-0.1000 0.9000 (   110 PWs)   bands (ev):

     7.3611   8.0922   8.3727   9.5033  11.7559  16.9075  17.8903  20.4719
    22.9486  35.0308

          k =-0.4000-1.0000 0.0000 (   108 PWs)   bands (ev):

     7.6975   8.0805   8.9851   9.6991  11.9434  17.6546  17.9581  20.0250
    22.1741  35.9017

     the Fermi energy is    12.9590 ev

!    total energy              =     -79.01677526 Ry
     Harris-Foulkes estimate   =     -79.01677526 Ry
     estimated scf accuracy    <          4.0E-09 Ry

     The total energy is the sum of the following terms:

     one-electron contribution =       4.23631488 Ry
     hartree contribution      =       9.67477844 Ry
     xc contribution           =     -21.06603386 Ry
     ewald contribution        =     -71.86118021 Ry
     smearing contrib. (-TS)   =      -0.00065451 Ry

     convergence has been achieved in   8 iterations

     Forces acting on atoms (cartesian axes, Ry/au):

     atom    1 type  1   force =     0.00000000    0.00000000    0.00000000

     Total force =     0.000000     Total SCF correction =     0.000000


     Computing stress (Cartesian axis) and pressure

          total   stress  (Ry/bohr**3)                   (kbar)     P=********
  -0.09463398   0.00000000   0.00000000     -13921.14      0.00      0.00
   0.00000000  -0.09463398  -0.00000000          0.00 -13921.14     -0.00
   0.00000000  -0.00000000  -0.09463398          0.00     -0.00 -13921.14


     Writing output data file Ag.save/

     init_run     :      0.11s CPU      0.12s WALL (       1 calls)
     electrons    :      1.07s CPU      1.21s WALL (       1 calls)
     forces       :      0.01s CPU      0.01s WALL (       1 calls)
     stress       :      0.03s CPU      0.03s WALL (       1 calls)

     Called by init_run:
     wfcinit      :      0.03s CPU      0.04s WALL (       1 calls)
     potinit      :      0.00s CPU      0.00s WALL (       1 calls)
     hinit0       :      0.07s CPU      0.07s WALL (       1 calls)

     Called by electrons:
     c_bands      :      0.93s CPU      1.05s WALL (       8 calls)
     sum_band     :      0.12s CPU      0.14s WALL (       8 calls)
     v_of_rho     :      0.01s CPU      0.01s WALL (       9 calls)
     newd         :      0.01s CPU      0.01s WALL (       9 calls)
     mix_rho      :      0.00s CPU      0.00s WALL (       8 calls)

     Called by c_bands:
     init_us_2    :      0.02s CPU      0.02s WALL (     893 calls)
     cegterg      :      0.90s CPU      1.01s WALL (     376 calls)

     Called by sum_band:
     sum_band:bec :      0.00s CPU      0.00s WALL (     376 calls)
     addusdens    :      0.01s CPU      0.01s WALL (       8 calls)

     Called by *egterg:
     h_psi        :      0.54s CPU      0.61s WALL (    1354 calls)
     s_psi        :      0.02s CPU      0.02s WALL (    1354 calls)
     g_psi        :      0.00s CPU      0.00s WALL (     931 calls)
     cdiaghg      :      0.26s CPU      0.29s WALL (    1307 calls)

     Called by h_psi:
     h_psi:pot    :      0.53s CPU      0.61s WALL (    1354 calls)
     h_psi:calbec :      0.03s CPU      0.04s WALL (    1354 calls)
     vloc_psi     :      0.48s CPU      0.54s WALL (    1354 calls)
     add_vuspsi   :      0.02s CPU      0.02s WALL (    1354 calls)

     General routines
     calbec       :      0.04s CPU      0.05s WALL (    1965 calls)
     fft          :      0.00s CPU      0.01s WALL (     125 calls)
     ffts         :      0.00s CPU      0.00s WALL (       8 calls)
     fftw         :      0.51s CPU      0.58s WALL (   23762 calls)

     Parallel routines
     fft_scatt_xy :      0.06s CPU      0.07s WALL (   23895 calls)
     fft_scatt_yz :      0.20s CPU      0.22s WALL (   23895 calls)

     PWSCF        :     2.16s CPU         2.36s WALL


   This run was terminated on:   0: 6: 3  27Mar2024            

=------------------------------------------------------------------------------=
   JOB DONE.
=------------------------------------------------------------------------------=
