
     Program PWSCF v.6.3MaX starts on 27Mar2024 at  0:42:13 

     This program is part of the open-source Quantum ESPRESSO suite
     for quantum simulation of materials; please cite
         "P. Giannozzi et al., J. Phys.:Condens. Matter 21 395502 (2009);
         "P. Giannozzi et al., J. Phys.:Condens. Matter 29 465901 (2017);
          URL http://www.quantum-espresso.org", 
     in publications or presentations arising from this work. More details at
     http://www.quantum-espresso.org/quote

     Parallel version (MPI), running on     5 processors

     MPI processes distributed on     1 nodes
     R & G space division:  proc/nbgrp/npool/nimage =       5
     Waiting for input...
     Reading input from standard input

     Current dimensions of program PWSCF are:
     Max number of different atomic species (ntypx) = 10
     Max number of k-points (npk) =  40000
     Max angular momentum in pseudopotentials (lmaxx) =  3
               file Ag.pbe-n-kjpaw_psl.1.0.0.UPF: wavefunction(s)  5S 5P renormalized

     Subspace diagonalization in iterative solution of the eigenvalue problem:
     a serial algorithm will be used


     Parallelization info
     --------------------
     sticks:   dense  smooth     PW     G-vecs:    dense   smooth      PW
     Min         149     149     43                 2664     2664     445
     Max         149     149     45                 2665     2665     446
     Sum         745     745    223                13323    13323    2229



     bravais-lattice index     =            2
     lattice parameter (alat)  =       7.7200  a.u.
     unit-cell volume          =     115.0249 (a.u.)^3
     number of atoms/cell      =            1
     number of atomic types    =            1
     number of electrons       =        11.00
     number of Kohn-Sham states=           10
     kinetic-energy cutoff     =      90.0000  Ry
     charge density cutoff     =     360.0000  Ry
     convergence threshold     =      1.0E-08
     mixing beta               =       0.7000
     number of iterations used =            8  plain     mixing
     Exchange-correlation      = SLA PW PBX PBC ( 1  4  3  4 0 0)

     celldm(1)=   7.720000  celldm(2)=   0.000000  celldm(3)=   0.000000
     celldm(4)=   0.000000  celldm(5)=   0.000000  celldm(6)=   0.000000

     crystal axes: (cart. coord. in units of alat)
               a(1) = (  -0.500000   0.000000   0.500000 )  
               a(2) = (   0.000000   0.500000   0.500000 )  
               a(3) = (  -0.500000   0.500000   0.000000 )  

     reciprocal axes: (cart. coord. in units 2 pi/alat)
               b(1) = ( -1.000000 -1.000000  1.000000 )  
               b(2) = (  1.000000  1.000000  1.000000 )  
               b(3) = ( -1.000000  1.000000 -1.000000 )  


     PseudoPot. # 1 for Ag read from file:
     /home/lorenzo/pseudos/Ag/Ag.pbe-n-kjpaw_psl.1.0.0.UPF
     MD5 check sum: 51099775af2a3182a6a1caffb86952a3
     Pseudo is Projector augmented-wave + core cor, Zval = 11.0
     Generated using "atomic" code by A. Dal Corso v.6.2.2
     Shape of augmentation charge: PSQ
     Using radial grid of 1237 points,  6 beta functions with: 
                l(1) =   0
                l(2) =   0
                l(3) =   1
                l(4) =   1
                l(5) =   2
                l(6) =   2
     Q(r) pseudized with 0 coefficients 


     atomic species   valence    mass     pseudopotential
        Ag            11.00   107.86820     Ag( 1.00)

     48 Sym. Ops., with inversion, found



   Cartesian axes

     site n.     atom                  positions (alat units)
         1           Ag  tau(   1) = (   0.0000000   0.0000000   0.0000000  )

     number of k points=    47  gaussian smearing, width (Ry)=  0.0100
                       cart. coord. in units 2pi/alat
        k(    1) = (   0.0000000   0.0000000   0.0000000), wk =   0.0020000
        k(    2) = (  -0.1000000   0.1000000  -0.1000000), wk =   0.0160000
        k(    3) = (  -0.2000000   0.2000000  -0.2000000), wk =   0.0160000
        k(    4) = (  -0.3000000   0.3000000  -0.3000000), wk =   0.0160000
        k(    5) = (  -0.4000000   0.4000000  -0.4000000), wk =   0.0160000
        k(    6) = (   0.5000000  -0.5000000   0.5000000), wk =   0.0080000
        k(    7) = (   0.0000000   0.2000000   0.0000000), wk =   0.0120000
        k(    8) = (  -0.1000000   0.3000000  -0.1000000), wk =   0.0480000
        k(    9) = (  -0.2000000   0.4000000  -0.2000000), wk =   0.0480000
        k(   10) = (  -0.3000000   0.5000000  -0.3000000), wk =   0.0480000
        k(   11) = (   0.6000000  -0.4000000   0.6000000), wk =   0.0480000
        k(   12) = (   0.5000000  -0.3000000   0.5000000), wk =   0.0480000
        k(   13) = (   0.4000000  -0.2000000   0.4000000), wk =   0.0480000
        k(   14) = (   0.3000000  -0.1000000   0.3000000), wk =   0.0480000
        k(   15) = (   0.2000000   0.0000000   0.2000000), wk =   0.0240000
        k(   16) = (   0.0000000   0.4000000   0.0000000), wk =   0.0120000
        k(   17) = (  -0.1000000   0.5000000  -0.1000000), wk =   0.0480000
        k(   18) = (  -0.2000000   0.6000000  -0.2000000), wk =   0.0480000
        k(   19) = (   0.7000000  -0.3000000   0.7000000), wk =   0.0480000
        k(   20) = (   0.6000000  -0.2000000   0.6000000), wk =   0.0480000
        k(   21) = (   0.5000000  -0.1000000   0.5000000), wk =   0.0480000
        k(   22) = (   0.4000000   0.0000000   0.4000000), wk =   0.0240000
        k(   23) = (   0.0000000   0.6000000   0.0000000), wk =   0.0120000
        k(   24) = (  -0.1000000   0.7000000  -0.1000000), wk =   0.0480000
        k(   25) = (   0.8000000  -0.2000000   0.8000000), wk =   0.0480000
        k(   26) = (   0.7000000  -0.1000000   0.7000000), wk =   0.0480000
        k(   27) = (   0.6000000  -0.0000000   0.6000000), wk =   0.0240000
        k(   28) = (   0.0000000   0.8000000   0.0000000), wk =   0.0120000
        k(   29) = (   0.9000000  -0.1000000   0.9000000), wk =   0.0480000
        k(   30) = (   0.8000000   0.0000000   0.8000000), wk =   0.0240000
        k(   31) = (   0.0000000  -1.0000000   0.0000000), wk =   0.0060000
        k(   32) = (  -0.2000000   0.4000000   0.0000000), wk =   0.0480000
        k(   33) = (  -0.3000000   0.5000000  -0.1000000), wk =   0.0960000
        k(   34) = (   0.6000000  -0.4000000   0.8000000), wk =   0.0960000
        k(   35) = (   0.5000000  -0.3000000   0.7000000), wk =   0.0480000
        k(   36) = (  -0.2000000   0.6000000   0.0000000), wk =   0.0480000
        k(   37) = (   0.7000000  -0.3000000   0.9000000), wk =   0.0960000
        k(   38) = (   0.6000000  -0.2000000   0.8000000), wk =   0.0960000
        k(   39) = (   0.5000000  -0.1000000   0.7000000), wk =   0.0960000
        k(   40) = (   0.4000000   0.0000000   0.6000000), wk =   0.0480000
        k(   41) = (   0.8000000  -0.2000000   1.0000000), wk =   0.0480000
        k(   42) = (   0.7000000  -0.1000000   0.9000000), wk =   0.0960000
        k(   43) = (   0.6000000   0.0000000   0.8000000), wk =   0.0480000
        k(   44) = (  -0.2000000  -1.0000000   0.0000000), wk =   0.0240000
        k(   45) = (   0.6000000  -0.2000000   1.0000000), wk =   0.0480000
        k(   46) = (   0.5000000  -0.1000000   0.9000000), wk =   0.0480000
        k(   47) = (  -0.4000000  -1.0000000   0.0000000), wk =   0.0240000

     Dense  grid:    13323 G-vectors     FFT dimensions: (  36,  36,  36)

     Estimated max dynamical RAM per process >      14.38 MB

     Estimated total dynamical RAM >      71.90 MB

     Initial potential from superposition of free atoms

     starting charge   10.99960, renormalised to   11.00000
     Starting wfcs are    9 randomized atomic wfcs +    1 random wfcs
     Checking if some PAW data can be deallocated... 

     total cpu time spent up to now is        1.4 secs

     Self-consistent Calculation

     iteration #  1     ecut=    90.00 Ry     beta= 0.70
     Davidson diagonalization with overlap
     ethr =  1.00E-02,  avg # of iterations =  4.8

     Threshold (ethr) on eigenvalues was too large:
     Diagonalizing with lowered threshold

     Davidson diagonalization with overlap
     ethr =  2.58E-05,  avg # of iterations =  2.5

     total cpu time spent up to now is        3.5 secs

     total energy              =    -355.30440405 Ry
     Harris-Foulkes estimate   =    -355.30616946 Ry
     estimated scf accuracy    <       0.00313334 Ry

     iteration #  2     ecut=    90.00 Ry     beta= 0.70
     Davidson diagonalization with overlap
     ethr =  2.85E-05,  avg # of iterations =  2.0

     total cpu time spent up to now is        4.4 secs

     total energy              =    -355.30530332 Ry
     Harris-Foulkes estimate   =    -355.30637736 Ry
     estimated scf accuracy    <       0.00231435 Ry

     iteration #  3     ecut=    90.00 Ry     beta= 0.70
     Davidson diagonalization with overlap
     ethr =  2.10E-05,  avg # of iterations =  1.6

     total cpu time spent up to now is        5.2 secs

     total energy              =    -355.30575018 Ry
     Harris-Foulkes estimate   =    -355.30572907 Ry
     estimated scf accuracy    <       0.00001433 Ry

     iteration #  4     ecut=    90.00 Ry     beta= 0.70
     Davidson diagonalization with overlap
     ethr =  1.30E-07,  avg # of iterations =  2.9

     total cpu time spent up to now is        6.2 secs

     total energy              =    -355.30575594 Ry
     Harris-Foulkes estimate   =    -355.30575571 Ry
     estimated scf accuracy    <       0.00000033 Ry

     iteration #  5     ecut=    90.00 Ry     beta= 0.70
     Davidson diagonalization with overlap
     ethr =  3.02E-09,  avg # of iterations =  1.4

     total cpu time spent up to now is        7.0 secs

     End of self-consistent calculation

          k = 0.0000 0.0000 0.0000 (  1639 PWs)   bands (ev):

     5.0652   8.0843   8.0843   8.0843   9.1243   9.1243  29.8002  33.0876
    33.0876  33.0876

          k =-0.1000 0.1000-0.1000 (  1672 PWs)   bands (ev):

     5.3722   8.0199   8.1662   8.1662   9.0971   9.0971  29.4392  30.9954
    33.0629  33.0629

          k =-0.2000 0.2000-0.2000 (  1654 PWs)   bands (ev):

     6.1352   8.0259   8.2898   8.2898   9.1348   9.1348  26.0617  30.4625
    32.8624  32.8624

          k =-0.3000 0.3000-0.3000 (  1643 PWs)   bands (ev):

     6.5853   8.2388   8.2388   8.9431   9.4234   9.4234  22.1216  29.8255
    32.2570  32.2570

          k =-0.4000 0.4000-0.4000 (  1667 PWs)   bands (ev):

     6.5320   8.1157   8.1157   9.7734   9.7734  10.9166  18.5256  29.1169
    31.4593  31.4593

          k = 0.5000-0.5000 0.5000 (  1676 PWs)   bands (ev):

     6.4753   8.0614   8.0614   9.9236   9.9236  12.4467  16.4738  28.8396
    31.0994  31.0994

          k = 0.0000 0.2000 0.0000 (  1667 PWs)   bands (ev):

     5.4754   7.9243   8.2364   8.2364   8.9705   9.1942  29.8080  31.6804
    31.7434  31.7434

          k =-0.1000 0.3000-0.1000 (  1667 PWs)   bands (ev):

     6.1100   7.7815   8.3799   8.3994   8.9349   9.2818  27.5867  30.1861
    30.7012  32.9581

          k =-0.2000 0.4000-0.2000 (  1650 PWs)   bands (ev):

     6.7316   8.0293   8.2589   8.4250   9.5249   9.5274  23.6138  29.7075
    29.9422  32.4831

          k =-0.3000 0.5000-0.3000 (  1655 PWs)   bands (ev):

     6.7322   8.0576   8.3135   8.8341   9.8275  10.9910  19.8276  28.9506
    29.5779  30.8662

          k = 0.6000-0.4000 0.6000 (  1656 PWs)   bands (ev):

     6.6502   7.9587   8.2161   9.3367   9.9339  12.9681  16.8614  28.2358
    29.8522  29.9139

          k = 0.5000-0.3000 0.5000 (  1660 PWs)   bands (ev):

     6.6815   7.9950   8.2138   9.3616   9.7353  12.3937  17.6781  27.7917
    29.9088  30.9596

          k = 0.4000-0.2000 0.4000 (  1655 PWs)   bands (ev):

     6.7950   8.1180   8.3161   8.7868   9.3204  10.6028  21.0637  27.7987
    30.7552  32.8957

          k = 0.3000-0.1000 0.3000 (  1657 PWs)   bands (ev):

     6.6182   7.8901   8.3543   8.4260   8.9366   9.6486  24.9493  28.1895
    32.1565  34.3206

          k = 0.2000 0.0000 0.2000 (  1659 PWs)   bands (ev):

     5.8511   7.8878   8.2881   8.3117   8.9422   9.2389  28.7325  28.9087
    32.2736  34.5097

          k = 0.0000 0.4000 0.0000 (  1656 PWs)   bands (ev):

     6.4933   7.5236   8.6678   8.6678   8.7797   9.3805  29.0272  29.0272
    29.8398  29.9102

          k =-0.1000 0.5000-0.1000 (  1657 PWs)   bands (ev):

     6.9661   7.3826   8.5063   8.8318   9.5800   9.6307  25.4372  27.8875
    28.8837  30.4028

          k =-0.2000 0.6000-0.2000 (  1657 PWs)   bands (ev):

     6.9818   7.6526   8.3742   8.7662   9.8702  11.3302  21.5609  27.1422
    27.3914  29.9649

          k = 0.7000-0.3000 0.7000 (  1657 PWs)   bands (ev):

     6.9531   7.7454   8.5448   8.6433   9.9622  13.6483  18.1037  25.5900
    27.6909  29.6860

          k = 0.6000-0.2000 0.6000 (  1661 PWs)   bands (ev):

     7.0513   7.7635   8.5738   8.6517   9.7379  14.4573  17.2648  24.5283
    28.8569  29.7633

          k = 0.5000-0.1000 0.5000 (  1658 PWs)   bands (ev):

     7.2532   7.8584   8.3749   8.6034   9.2882  12.3337  20.4953  24.0950
    30.3678  30.7786

          k = 0.4000 0.0000 0.4000 (  1652 PWs)   bands (ev):

     7.3205   7.6692   8.2477   8.7149   8.8168  10.7034  24.1361  24.4220
    31.5206  33.1738

          k = 0.0000 0.6000 0.0000 (  1668 PWs)   bands (ev):

     6.9061   7.0602   9.2838   9.2838   9.6172   9.9010  26.3640  26.3640
    26.7028  29.8941

          k =-0.1000 0.7000-0.1000 (  1670 PWs)   bands (ev):

     6.8426   6.9829   9.1929   9.3497   9.8782  11.6343  23.4963  24.5706
    25.5693  29.9609

          k = 0.8000-0.2000 0.8000 (  1657 PWs)   bands (ev):

     6.8460   7.2036   8.8857   9.2235  10.0026  14.0554  20.0550  22.7847
    25.6802  29.8335

          k = 0.7000-0.1000 0.7000 (  1664 PWs)   bands (ev):

     7.0214   7.5569   8.4922   9.0785   9.8020  16.6824  17.2899  21.4523
    26.7287  29.7962

          k = 0.6000-0.0000 0.6000 (  1650 PWs)   bands (ev):

     7.3156   7.9485   8.0196   8.9064   9.4542  14.4313  20.0330  20.9903
    28.5352  29.9737

          k = 0.0000 0.8000 0.0000 (  1656 PWs)   bands (ev):

     6.5956   6.7076   9.8144   9.8758   9.8758  12.4875  22.2341  24.4331
    24.4331  29.9455

          k = 0.9000-0.1000 0.9000 (  1659 PWs)   bands (ev):

     6.5740   6.7210   9.7268   9.7280  10.0616  14.3317  20.4769  22.4159
    24.2443  29.9633

          k = 0.8000 0.0000 0.8000 (  1666 PWs)   bands (ev):

     6.7418   7.0501   9.1355   9.5108   9.9495  16.3448  19.3706  20.0215
    25.0755  29.8769

          k = 0.0000-1.0000 0.0000 (  1660 PWs)   bands (ev):

     6.4331   6.5776   9.8912  10.1324  10.1324  14.4746  19.6028  23.7149
    23.7149  29.9665

          k =-0.2000 0.4000 0.0000 (  1657 PWs)   bands (ev):

     6.7708   7.5930   8.3200   8.6687   8.9798   9.6729  26.5395  26.8094
    31.3433  32.2256

          k =-0.3000 0.5000-0.1000 (  1651 PWs)   bands (ev):

     7.1182   7.8606   8.0763   8.7142   9.3436  10.7417  22.7136  26.1543
    29.5061  32.5078

          k = 0.6000-0.4000 0.8000 (  1658 PWs)   bands (ev):

     6.9962   7.8516   8.4192   8.6712   9.7357  12.5924  19.0617  26.1298
    27.9041  31.6305

          k = 0.5000-0.3000 0.7000 (  1664 PWs)   bands (ev):

     6.9399   7.7640   8.4818   8.8172   9.8649  14.3838  16.6756  26.6650
    26.7939  31.2313

          k =-0.2000 0.6000 0.0000 (  1661 PWs)   bands (ev):

     7.1638   7.1997   8.4790   9.2764   9.4802  10.9195  24.5366  24.7438
    26.9489  31.7702

          k = 0.7000-0.3000 0.9000 (  1658 PWs)   bands (ev):

     7.0960   7.4293   8.3282   9.1834   9.7880  12.9235  20.9416  24.4272
    25.1079  31.8593

          k = 0.6000-0.2000 0.8000 (  1659 PWs)   bands (ev):

     7.1682   7.5685   8.2969   8.9638   9.8847  15.4637  17.6906  23.5631
    25.0357  31.8036

          k = 0.5000-0.1000 0.7000 (  1652 PWs)   bands (ev):

     7.3918   7.6046   8.1371   8.9220   9.6789  14.6719  18.8053  22.6293
    26.1905  32.2739

          k = 0.4000 0.0000 0.6000 (  1658 PWs)   bands (ev):

     7.5769   7.7117   7.7929   9.0525   9.2899  12.4523  22.2969  22.3831
    27.7506  33.3247

          k = 0.8000-0.2000 1.0000 (  1660 PWs)   bands (ev):

     6.8192   6.8922   9.0911   9.7187   9.8722  13.3989  22.3090  23.1088
    23.2650  31.4813

          k = 0.7000-0.1000 0.9000 (  1661 PWs)   bands (ev):

     6.9031   7.1423   8.7647   9.4182  10.0186  15.8179  19.8412  20.9992
    23.5366  31.7401

          k = 0.6000 0.0000 0.8000 (  1658 PWs)   bands (ev):

     7.1374   7.5500   8.2641   9.1541   9.8680  17.0940  18.3095  20.2845
    24.6476  31.9638

          k =-0.2000-1.0000 0.0000 (  1662 PWs)   bands (ev):

     6.6471   6.7778   9.4589   9.6786  10.1327  15.4898  19.6636  22.4751
    22.6229  31.3936

          k = 0.6000-0.2000 1.0000 (  1669 PWs)   bands (ev):

     7.2872   7.4329   8.0937   9.2607   9.8646  15.1030  20.7119  21.2435
    23.3965  34.6160

          k = 0.5000-0.1000 0.9000 (  1654 PWs)   bands (ev):

     7.2735   7.6709   7.9170   9.1153  10.0062  17.6785  17.8673  21.5255
    22.3724  34.5394

          k =-0.4000-1.0000 0.0000 (  1652 PWs)   bands (ev):

     7.0907   7.3710   8.3178   9.2328  10.1333  17.6227  19.8657  20.0992
    21.2960  34.4333

     the Fermi energy is    12.8146 ev

!    total energy              =    -355.30575596 Ry
     Harris-Foulkes estimate   =    -355.30575596 Ry
     estimated scf accuracy    <          7.7E-09 Ry

     total all-electron energy =    -10632.271810 Ry

     The total energy is the sum of the following terms:

     one-electron contribution =       1.55793410 Ry
     hartree contribution      =      14.67057721 Ry
     xc contribution           =     -22.35512996 Ry
     ewald contribution        =     -71.86118018 Ry
     one-center paw contrib.   =    -277.31775747 Ry
     smearing contrib. (-TS)   =      -0.00019965 Ry

     convergence has been achieved in   5 iterations

     Forces acting on atoms (cartesian axes, Ry/au):

     atom    1 type  1   force =     0.00000000    0.00000000    0.00000000

     Total force =     0.000000     Total SCF correction =     0.000000


     Computing stress (Cartesian axis) and pressure

          total   stress  (Ry/bohr**3)                   (kbar)     P=   53.35
   0.00036263  -0.00000000  -0.00000000         53.35     -0.00     -0.00
  -0.00000000   0.00036263   0.00000000         -0.00     53.35      0.00
  -0.00000000   0.00000000   0.00036263         -0.00      0.00     53.35


     Writing output data file Ag.save/

     init_run     :      0.60s CPU      0.62s WALL (       1 calls)
     electrons    :      5.28s CPU      5.57s WALL (       1 calls)
     forces       :      0.09s CPU      0.09s WALL (       1 calls)
     stress       :      0.29s CPU      0.30s WALL (       1 calls)

     Called by init_run:
     wfcinit      :      0.24s CPU      0.25s WALL (       1 calls)
     potinit      :      0.12s CPU      0.12s WALL (       1 calls)
     hinit0       :      0.21s CPU      0.21s WALL (       1 calls)

     Called by electrons:
     c_bands      :      3.87s CPU      4.11s WALL (       6 calls)
     sum_band     :      0.80s CPU      0.84s WALL (       6 calls)
     v_of_rho     :      0.06s CPU      0.06s WALL (       6 calls)
     newd         :      0.08s CPU      0.08s WALL (       6 calls)
     PAW_pot      :      0.59s CPU      0.60s WALL (       6 calls)
     mix_rho      :      0.00s CPU      0.00s WALL (       6 calls)

     Called by c_bands:
     init_us_2    :      0.13s CPU      0.14s WALL (     705 calls)
     cegterg      :      3.70s CPU      3.93s WALL (     282 calls)

     Called by sum_band:
     sum_band:bec :      0.00s CPU      0.00s WALL (     282 calls)
     addusdens    :      0.07s CPU      0.08s WALL (       6 calls)

     Called by *egterg:
     h_psi        :      3.17s CPU      3.39s WALL (    1041 calls)
     s_psi        :      0.09s CPU      0.10s WALL (    1041 calls)
     g_psi        :      0.01s CPU      0.01s WALL (     712 calls)
     cdiaghg      :      0.21s CPU      0.21s WALL (     947 calls)

     Called by h_psi:
     h_psi:pot    :      3.15s CPU      3.37s WALL (    1041 calls)
     h_psi:calbec :      0.14s CPU      0.15s WALL (    1041 calls)
     vloc_psi     :      2.91s CPU      3.11s WALL (    1041 calls)
     add_vuspsi   :      0.09s CPU      0.10s WALL (    1041 calls)

     General routines
     calbec       :      0.23s CPU      0.24s WALL (    1558 calls)
     fft          :      0.03s CPU      0.03s WALL (      93 calls)
     ffts         :      0.00s CPU      0.00s WALL (       6 calls)
     fftw         :      3.27s CPU      3.49s WALL (   17562 calls)

     Parallel routines
     fft_scatt_xy :      0.27s CPU      0.29s WALL (   17661 calls)
     fft_scatt_yz :      0.75s CPU      0.81s WALL (   17661 calls)

     PWSCF        :     7.11s CPU         7.49s WALL


   This run was terminated on:   0:42:21  27Mar2024            

=------------------------------------------------------------------------------=
   JOB DONE.
=------------------------------------------------------------------------------=
