
     Program PWSCF v.6.3MaX starts on 27Mar2024 at  0:24:42 

     This program is part of the open-source Quantum ESPRESSO suite
     for quantum simulation of materials; please cite
         "P. Giannozzi et al., J. Phys.:Condens. Matter 21 395502 (2009);
         "P. Giannozzi et al., J. Phys.:Condens. Matter 29 465901 (2017);
          URL http://www.quantum-espresso.org", 
     in publications or presentations arising from this work. More details at
     http://www.quantum-espresso.org/quote

     Parallel version (MPI), running on     5 processors

     MPI processes distributed on     1 nodes
     R & G space division:  proc/nbgrp/npool/nimage =       5
     Waiting for input...
     Reading input from standard input

     Current dimensions of program PWSCF are:
     Max number of different atomic species (ntypx) = 10
     Max number of k-points (npk) =  40000
     Max angular momentum in pseudopotentials (lmaxx) =  3
               file Ag.pbe-n-kjpaw_psl.1.0.0.UPF: wavefunction(s)  5S 5P renormalized

     Subspace diagonalization in iterative solution of the eigenvalue problem:
     a serial algorithm will be used


     Parallelization info
     --------------------
     sticks:   dense  smooth     PW     G-vecs:    dense   smooth      PW
     Min          90      90     30                 1274     1274     241
     Max          91      91     31                 1276     1276     244
     Sum         451     451    151                 6375     6375    1211



     bravais-lattice index     =            2
     lattice parameter (alat)  =       7.7200  a.u.
     unit-cell volume          =     115.0249 (a.u.)^3
     number of atoms/cell      =            1
     number of atomic types    =            1
     number of electrons       =        11.00
     number of Kohn-Sham states=           10
     kinetic-energy cutoff     =      55.0000  Ry
     charge density cutoff     =     220.0000  Ry
     convergence threshold     =      1.0E-08
     mixing beta               =       0.7000
     number of iterations used =            8  plain     mixing
     Exchange-correlation      = SLA PW PBX PBC ( 1  4  3  4 0 0)

     celldm(1)=   7.720000  celldm(2)=   0.000000  celldm(3)=   0.000000
     celldm(4)=   0.000000  celldm(5)=   0.000000  celldm(6)=   0.000000

     crystal axes: (cart. coord. in units of alat)
               a(1) = (  -0.500000   0.000000   0.500000 )  
               a(2) = (   0.000000   0.500000   0.500000 )  
               a(3) = (  -0.500000   0.500000   0.000000 )  

     reciprocal axes: (cart. coord. in units 2 pi/alat)
               b(1) = ( -1.000000 -1.000000  1.000000 )  
               b(2) = (  1.000000  1.000000  1.000000 )  
               b(3) = ( -1.000000  1.000000 -1.000000 )  


     PseudoPot. # 1 for Ag read from file:
     /home/lorenzo/pseudos/Ag/Ag.pbe-n-kjpaw_psl.1.0.0.UPF
     MD5 check sum: 51099775af2a3182a6a1caffb86952a3
     Pseudo is Projector augmented-wave + core cor, Zval = 11.0
     Generated using "atomic" code by A. Dal Corso v.6.2.2
     Shape of augmentation charge: PSQ
     Using radial grid of 1237 points,  6 beta functions with: 
                l(1) =   0
                l(2) =   0
                l(3) =   1
                l(4) =   1
                l(5) =   2
                l(6) =   2
     Q(r) pseudized with 0 coefficients 


     atomic species   valence    mass     pseudopotential
        Ag            11.00   107.86820     Ag( 1.00)

     48 Sym. Ops., with inversion, found



   Cartesian axes

     site n.     atom                  positions (alat units)
         1           Ag  tau(   1) = (   0.0000000   0.0000000   0.0000000  )

     number of k points=    35  gaussian smearing, width (Ry)=  0.0100
                       cart. coord. in units 2pi/alat
        k(    1) = (   0.0000000   0.0000000   0.0000000), wk =   0.0027435
        k(    2) = (  -0.1111111   0.1111111  -0.1111111), wk =   0.0219479
        k(    3) = (  -0.2222222   0.2222222  -0.2222222), wk =   0.0219479
        k(    4) = (  -0.3333333   0.3333333  -0.3333333), wk =   0.0219479
        k(    5) = (  -0.4444444   0.4444444  -0.4444444), wk =   0.0219479
        k(    6) = (   0.0000000   0.2222222   0.0000000), wk =   0.0164609
        k(    7) = (  -0.1111111   0.3333333  -0.1111111), wk =   0.0658436
        k(    8) = (  -0.2222222   0.4444444  -0.2222222), wk =   0.0658436
        k(    9) = (  -0.3333333   0.5555556  -0.3333333), wk =   0.0658436
        k(   10) = (   0.5555556  -0.3333333   0.5555556), wk =   0.0658436
        k(   11) = (   0.4444444  -0.2222222   0.4444444), wk =   0.0658436
        k(   12) = (   0.3333333  -0.1111111   0.3333333), wk =   0.0658436
        k(   13) = (   0.2222222  -0.0000000   0.2222222), wk =   0.0329218
        k(   14) = (   0.0000000   0.4444444   0.0000000), wk =   0.0164609
        k(   15) = (  -0.1111111   0.5555556  -0.1111111), wk =   0.0658436
        k(   16) = (  -0.2222222   0.6666667  -0.2222222), wk =   0.0658436
        k(   17) = (   0.6666667  -0.2222222   0.6666667), wk =   0.0658436
        k(   18) = (   0.5555556  -0.1111111   0.5555556), wk =   0.0658436
        k(   19) = (   0.4444444   0.0000000   0.4444444), wk =   0.0329218
        k(   20) = (   0.0000000   0.6666667   0.0000000), wk =   0.0164609
        k(   21) = (  -0.1111111   0.7777778  -0.1111111), wk =   0.0658436
        k(   22) = (   0.7777778  -0.1111111   0.7777778), wk =   0.0658436
        k(   23) = (   0.6666667  -0.0000000   0.6666667), wk =   0.0329218
        k(   24) = (   0.0000000   0.8888889   0.0000000), wk =   0.0164609
        k(   25) = (   0.8888889   0.0000000   0.8888889), wk =   0.0329218
        k(   26) = (  -0.2222222   0.4444444   0.0000000), wk =   0.0658436
        k(   27) = (  -0.3333333   0.5555556  -0.1111111), wk =   0.1316872
        k(   28) = (   0.5555556  -0.3333333   0.7777778), wk =   0.1316872
        k(   29) = (  -0.2222222   0.6666667   0.0000000), wk =   0.0658436
        k(   30) = (   0.6666667  -0.2222222   0.8888889), wk =   0.1316872
        k(   31) = (   0.5555556  -0.1111111   0.7777778), wk =   0.1316872
        k(   32) = (   0.4444444   0.0000000   0.6666667), wk =   0.0658436
        k(   33) = (   0.7777778  -0.1111111   1.0000000), wk =   0.0658436
        k(   34) = (   0.6666667  -0.0000000   0.8888889), wk =   0.0658436
        k(   35) = (   0.5555556  -0.1111111   1.0000000), wk =   0.0658436

     Dense  grid:     6375 G-vectors     FFT dimensions: (  25,  25,  25)

     Estimated max dynamical RAM per process >       7.03 MB

     Estimated total dynamical RAM >      35.16 MB

     Initial potential from superposition of free atoms

     starting charge   10.99960, renormalised to   11.00000
     Starting wfcs are    9 randomized atomic wfcs +    1 random wfcs
     Checking if some PAW data can be deallocated... 

     total cpu time spent up to now is        1.2 secs

     Self-consistent Calculation

     iteration #  1     ecut=    55.00 Ry     beta= 0.70
     Davidson diagonalization with overlap
     ethr =  1.00E-02,  avg # of iterations =  4.6

     Threshold (ethr) on eigenvalues was too large:
     Diagonalizing with lowered threshold

     Davidson diagonalization with overlap
     ethr =  2.80E-05,  avg # of iterations =  2.4

     total cpu time spent up to now is        2.0 secs

     total energy              =    -355.30399000 Ry
     Harris-Foulkes estimate   =    -355.30589214 Ry
     estimated scf accuracy    <       0.00337859 Ry

     iteration #  2     ecut=    55.00 Ry     beta= 0.70
     Davidson diagonalization with overlap
     ethr =  3.07E-05,  avg # of iterations =  2.0

     total cpu time spent up to now is        2.4 secs

     total energy              =    -355.30495147 Ry
     Harris-Foulkes estimate   =    -355.30609061 Ry
     estimated scf accuracy    <       0.00243478 Ry

     iteration #  3     ecut=    55.00 Ry     beta= 0.70
     Davidson diagonalization with overlap
     ethr =  2.21E-05,  avg # of iterations =  1.7

     total cpu time spent up to now is        2.8 secs

     total energy              =    -355.30542668 Ry
     Harris-Foulkes estimate   =    -355.30540475 Ry
     estimated scf accuracy    <       0.00001503 Ry

     iteration #  4     ecut=    55.00 Ry     beta= 0.70
     Davidson diagonalization with overlap
     ethr =  1.37E-07,  avg # of iterations =  2.8

     total cpu time spent up to now is        3.2 secs

     total energy              =    -355.30543258 Ry
     Harris-Foulkes estimate   =    -355.30543236 Ry
     estimated scf accuracy    <       0.00000031 Ry

     iteration #  5     ecut=    55.00 Ry     beta= 0.70
     Davidson diagonalization with overlap
     ethr =  2.84E-09,  avg # of iterations =  1.5

     total cpu time spent up to now is        3.5 secs

     End of self-consistent calculation

          k = 0.0000 0.0000 0.0000 (   821 PWs)   bands (ev):

     5.0664   8.0800   8.0800   8.0800   9.1186   9.1186  29.8019  33.0887
    33.0887  37.3853

          k =-0.1111 0.1111-0.1111 (   803 PWs)   bands (ev):

     5.4426   8.0050   8.1787   8.1787   9.0883   9.0883  29.2101  30.8295
    33.0544  33.0544

          k =-0.2222 0.2222-0.2222 (   800 PWs)   bands (ev):

     6.3002   8.1087   8.2911   8.2911   9.1728   9.1728  25.1804  30.3686
    32.7669  32.7669

          k =-0.3333 0.3333-0.3333 (   805 PWs)   bands (ev):

     6.5875   8.1916   8.1916   9.5290   9.5437   9.5437  20.8597  29.5653
    31.9805  31.9805

          k =-0.4444 0.4444-0.4444 (   793 PWs)   bands (ev):

     6.4924   8.0742   8.0742   9.8708   9.8708  11.8389  17.2422  28.9304
    31.2151  31.2151

          k = 0.0000 0.2222 0.0000 (   797 PWs)   bands (ev):

     5.5692   7.8854   8.2677   8.2677   8.9346   9.2049  29.8114  31.4733
    31.4733  31.4735

          k =-0.1111 0.3333-0.1111 (   802 PWs)   bands (ev):

     6.3116   7.7314   8.3892   8.4468   8.9809   9.3257  26.9078  30.0822
    30.2838  32.8126

          k =-0.2222 0.4444-0.2222 (   790 PWs)   bands (ev):

     6.8086   8.1763   8.1837   8.4287   9.6363   9.9373  22.4969  29.4272
    29.5144  31.6544

          k =-0.3333 0.5556-0.3333 (   794 PWs)   bands (ev):

     6.7211   7.9765   8.2954   8.9913   9.9100  11.9407  18.4815  28.4767
    29.3653  30.1855

          k = 0.5556-0.3333 0.5556 (   793 PWs)   bands (ev):

     6.6862   7.9349   8.2277   9.3244   9.8553  13.3111  16.6603  27.6544
    29.7385  30.1459

          k = 0.4444-0.2222 0.4444 (   799 PWs)   bands (ev):

     6.7953   8.0470   8.2927   8.9854   9.4599  11.3132  19.7645  27.3682
    30.3475  31.9765

          k = 0.3333-0.1111 0.3333 (   803 PWs)   bands (ev):

     6.7936   7.9468   8.3448   8.4384   8.9746   9.9050  23.9702  27.6608
    31.8465  34.4878

          k = 0.2222-0.0000 0.2222 (   799 PWs)   bands (ev):

     6.0185   7.8487   8.3301   8.3338   8.9039   9.2932  28.3327  28.3372
    32.4053  34.6720

          k = 0.0000 0.4444 0.0000 (   809 PWs)   bands (ev):

     6.6997   7.4153   8.7897   8.7897   8.8444   9.4263  28.4007  28.4007
    29.4655  29.8508

          k =-0.1111 0.5556-0.1111 (   807 PWs)   bands (ev):

     7.0133   7.3051   8.5975   8.9393   9.6799  10.1398  24.5460  27.2290
    27.8235  30.1487

          k =-0.2222 0.6667-0.2222 (   792 PWs)   bands (ev):

     6.9565   7.5803   8.4749   8.8305   9.9511  12.3829  20.3674  25.7920
    26.9541  29.8205

          k = 0.6667-0.2222 0.6667 (   795 PWs)   bands (ev):

     7.0233   7.6997   8.5323   8.7037   9.8785  15.0760  17.0004  24.2325
    27.7477  29.6954

          k = 0.5556-0.1111 0.5556 (   787 PWs)   bands (ev):

     7.2531   7.7903   8.3874   8.6649   9.4582  13.4753  19.2705  23.3778
    29.5612  30.0475

          k = 0.4444 0.0000 0.4444 (   796 PWs)   bands (ev):

     7.4772   7.6791   8.1891   8.7063   8.9540  11.3516  23.2562  23.4104
    30.9950  32.0771

          k = 0.0000 0.6667 0.0000 (   797 PWs)   bands (ev):

     6.8157   6.9196   9.4941   9.4941   9.6866  10.6739  25.1792  25.6131
    25.6131  29.9126

          k =-0.1111 0.7778-0.1111 (   786 PWs)   bands (ev):

     6.7322   6.8797   9.3777   9.4871   9.9742  12.7813  22.4757  23.0494
    24.9865  29.9397

          k = 0.7778-0.1111 0.7778 (   788 PWs)   bands (ev):

     6.8256   7.1983   8.9076   9.3209   9.9484  15.6640  19.0665  21.1714
    25.5563  29.8376

          k = 0.6667-0.0000 0.6667 (   792 PWs)   bands (ev):

     7.1133   7.6937   8.3120   9.0764   9.6417  16.0292  18.6994  20.4289
    27.2123  29.8469

          k = 0.0000 0.8889 0.0000 (   790 PWs)   bands (ev):

     6.4825   6.6146   9.8617  10.0455  10.0455  13.6841  20.5922  23.9418
    23.9418  29.9589

          k = 0.8889 0.0000 0.8889 (   778 PWs)   bands (ev):

     6.5493   6.7125   9.7329   9.7551  10.0713  15.1418  19.6358  21.9786
    24.1509  29.9621

          k =-0.2222 0.4444 0.0000 (   802 PWs)   bands (ev):

     7.0184   7.5204   8.2467   8.7893   9.0504   9.9457  25.7713  26.0674
    30.4961  32.4509

          k =-0.3333 0.5556-0.1111 (   789 PWs)   bands (ev):

     7.1583   7.9045   8.0148   8.7836   9.4821  11.4818  21.5863  25.4768
    28.4452  32.4242

          k = 0.5556-0.3333 0.7778 (   794 PWs)   bands (ev):

     7.0415   7.7313   8.4974   8.6820   9.8124  13.8544  17.7806  25.7437
    26.7883  31.6164

          k =-0.2222 0.6667 0.0000 (   793 PWs)   bands (ev):

     7.1129   7.1139   8.5711   9.4862   9.5552  11.8013  23.6961  23.8606
    25.5046  31.9684

          k = 0.6667-0.2222 0.8889 (   785 PWs)   bands (ev):

     7.0844   7.3772   8.3681   9.2374   9.8798  14.3208  19.8638  23.4094
    24.0216  32.1133

          k = 0.5556-0.1111 0.7778 (   789 PWs)   bands (ev):

     7.2707   7.5864   8.1588   9.0099   9.8313  16.3384  17.6390  22.0900
    24.9170  32.3200

          k = 0.4444 0.0000 0.6667 (   787 PWs)   bands (ev):

     7.6061   7.6517   7.7865   9.0666   9.4919  13.6446  21.1503  21.5953
    26.5146  33.1041

          k = 0.7778-0.1111 1.0000 (   783 PWs)   bands (ev):

     6.7463   6.8563   9.1934   9.6656  10.0443  14.8039  20.7422  22.4354
    22.6361  31.7091

          k = 0.6667-0.0000 0.8889 (   782 PWs)   bands (ev):

     6.9441   7.2210   8.6559   9.3359  10.0382  17.0866  19.1528  20.0480
    23.3649  32.1041

          k = 0.5556-0.1111 1.0000 (   775 PWs)   bands (ev):

     7.2145   7.5649   8.0211   9.1727  10.0409  16.9025  19.7379  20.6177
    21.9733  35.2898

     the Fermi energy is    13.1631 ev

!    total energy              =    -355.30543260 Ry
     Harris-Foulkes estimate   =    -355.30543261 Ry
     estimated scf accuracy    <          5.1E-09 Ry

     total all-electron energy =    -10632.271486 Ry

     The total energy is the sum of the following terms:

     one-electron contribution =       1.56090381 Ry
     hartree contribution      =      14.66405368 Ry
     xc contribution           =     -22.35313138 Ry
     ewald contribution        =     -71.86118025 Ry
     one-center paw contrib.   =    -277.31602056 Ry
     smearing contrib. (-TS)   =      -0.00005790 Ry

     convergence has been achieved in   5 iterations

     Forces acting on atoms (cartesian axes, Ry/au):

     atom    1 type  1   force =     0.00000000    0.00000000    0.00000000

     Total force =     0.000000     Total SCF correction =     0.000000


     Computing stress (Cartesian axis) and pressure

          total   stress  (Ry/bohr**3)                   (kbar)     P=   31.39
   0.00021339   0.00000000   0.00000000         31.39      0.00      0.00
   0.00000000   0.00021339  -0.00000000          0.00     31.39     -0.00
   0.00000000  -0.00000000   0.00021339          0.00     -0.00     31.39


     Writing output data file Ag.save/

     init_run     :      0.36s CPU      0.38s WALL (       1 calls)
     electrons    :      2.20s CPU      2.36s WALL (       1 calls)
     forces       :      0.04s CPU      0.04s WALL (       1 calls)
     stress       :      0.12s CPU      0.12s WALL (       1 calls)

     Called by init_run:
     wfcinit      :      0.09s CPU      0.10s WALL (       1 calls)
     potinit      :      0.10s CPU      0.11s WALL (       1 calls)
     hinit0       :      0.15s CPU      0.15s WALL (       1 calls)

     Called by electrons:
     c_bands      :      1.38s CPU      1.47s WALL (       6 calls)
     sum_band     :      0.28s CPU      0.28s WALL (       6 calls)
     v_of_rho     :      0.02s CPU      0.02s WALL (       6 calls)
     newd         :      0.03s CPU      0.04s WALL (       6 calls)
     PAW_pot      :      0.58s CPU      0.65s WALL (       6 calls)
     mix_rho      :      0.00s CPU      0.00s WALL (       6 calls)

     Called by c_bands:
     init_us_2    :      0.05s CPU      0.06s WALL (     525 calls)
     cegterg      :      1.32s CPU      1.40s WALL (     210 calls)

     Called by sum_band:
     sum_band:bec :      0.00s CPU      0.00s WALL (     210 calls)
     addusdens    :      0.04s CPU      0.04s WALL (       6 calls)

     Called by *egterg:
     h_psi        :      1.04s CPU      1.11s WALL (     773 calls)
     s_psi        :      0.04s CPU      0.04s WALL (     773 calls)
     g_psi        :      0.00s CPU      0.00s WALL (     528 calls)
     cdiaghg      :      0.14s CPU      0.15s WALL (     703 calls)

     Called by h_psi:
     h_psi:pot    :      1.04s CPU      1.11s WALL (     773 calls)
     h_psi:calbec :      0.05s CPU      0.05s WALL (     773 calls)
     vloc_psi     :      0.95s CPU      1.01s WALL (     773 calls)
     add_vuspsi   :      0.04s CPU      0.04s WALL (     773 calls)

     General routines
     calbec       :      0.08s CPU      0.09s WALL (    1158 calls)
     fft          :      0.01s CPU      0.01s WALL (      93 calls)
     ffts         :      0.00s CPU      0.00s WALL (       6 calls)
     fftw         :      1.06s CPU      1.13s WALL (   13056 calls)

     Parallel routines
     fft_scatt_xy :      0.09s CPU      0.09s WALL (   13155 calls)
     fft_scatt_yz :      0.29s CPU      0.31s WALL (   13155 calls)

     PWSCF        :     3.52s CPU         3.78s WALL


   This run was terminated on:   0:24:46  27Mar2024            

=------------------------------------------------------------------------------=
   JOB DONE.
=------------------------------------------------------------------------------=
