
     Program PWSCF v.6.3MaX starts on 27Mar2024 at  0:11:18 

     This program is part of the open-source Quantum ESPRESSO suite
     for quantum simulation of materials; please cite
         "P. Giannozzi et al., J. Phys.:Condens. Matter 21 395502 (2009);
         "P. Giannozzi et al., J. Phys.:Condens. Matter 29 465901 (2017);
          URL http://www.quantum-espresso.org", 
     in publications or presentations arising from this work. More details at
     http://www.quantum-espresso.org/quote

     Parallel version (MPI), running on     5 processors

     MPI processes distributed on     1 nodes
     R & G space division:  proc/nbgrp/npool/nimage =       5
     Waiting for input...
     Reading input from standard input

     Current dimensions of program PWSCF are:
     Max number of different atomic species (ntypx) = 10
     Max number of k-points (npk) =  40000
     Max angular momentum in pseudopotentials (lmaxx) =  3

     Subspace diagonalization in iterative solution of the eigenvalue problem:
     a serial algorithm will be used


     Parallelization info
     --------------------
     sticks:   dense  smooth     PW     G-vecs:    dense   smooth      PW
     Min          39      39     14                  381      381      82
     Max          40      40     15                  384      384      83
     Sum         199     199     73                 1917     1917     411



     bravais-lattice index     =            2
     lattice parameter (alat)  =       7.7200  a.u.
     unit-cell volume          =     115.0249 (a.u.)^3
     number of atoms/cell      =            1
     number of atomic types    =            1
     number of electrons       =        11.00
     number of Kohn-Sham states=           10
     kinetic-energy cutoff     =      25.0000  Ry
     charge density cutoff     =     100.0000  Ry
     convergence threshold     =      1.0E-08
     mixing beta               =       0.7000
     number of iterations used =            8  plain     mixing
     Exchange-correlation      = PBESOL ( 1  4 10  8 0 0)

     celldm(1)=   7.720000  celldm(2)=   0.000000  celldm(3)=   0.000000
     celldm(4)=   0.000000  celldm(5)=   0.000000  celldm(6)=   0.000000

     crystal axes: (cart. coord. in units of alat)
               a(1) = (  -0.500000   0.000000   0.500000 )  
               a(2) = (   0.000000   0.500000   0.500000 )  
               a(3) = (  -0.500000   0.500000   0.000000 )  

     reciprocal axes: (cart. coord. in units 2 pi/alat)
               b(1) = ( -1.000000 -1.000000  1.000000 )  
               b(2) = (  1.000000  1.000000  1.000000 )  
               b(3) = ( -1.000000  1.000000 -1.000000 )  


     PseudoPot. # 1 for Ag read from file:
     /home/lorenzo/pseudos/Ag/Ag.pbesol-n-rrkjus_psl.1.0.0.UPF
     MD5 check sum: 3b43e8aa747a56f565f44d11355b8b45
     Pseudo is Ultrasoft + core correction, Zval = 11.0
     Generated using "atomic" code by A. Dal Corso v.6.2.2
     Using radial grid of 1237 points,  6 beta functions with: 
                l(1) =   0
                l(2) =   0
                l(3) =   1
                l(4) =   1
                l(5) =   2
                l(6) =   2
     Q(r) pseudized with 0 coefficients 


     atomic species   valence    mass     pseudopotential
        Ag            11.00   107.86820     Ag( 1.00)

     48 Sym. Ops., with inversion, found



   Cartesian axes

     site n.     atom                  positions (alat units)
         1           Ag  tau(   1) = (   0.0000000   0.0000000   0.0000000  )

     number of k points=    20  gaussian smearing, width (Ry)=  0.0100
                       cart. coord. in units 2pi/alat
        k(    1) = (   0.0000000   0.0000000   0.0000000), wk =   0.0058309
        k(    2) = (  -0.1428571   0.1428571  -0.1428571), wk =   0.0466472
        k(    3) = (  -0.2857143   0.2857143  -0.2857143), wk =   0.0466472
        k(    4) = (  -0.4285714   0.4285714  -0.4285714), wk =   0.0466472
        k(    5) = (   0.0000000   0.2857143   0.0000000), wk =   0.0349854
        k(    6) = (  -0.1428571   0.4285714  -0.1428571), wk =   0.1399417
        k(    7) = (  -0.2857143   0.5714286  -0.2857143), wk =   0.1399417
        k(    8) = (   0.5714286  -0.2857143   0.5714286), wk =   0.1399417
        k(    9) = (   0.4285714  -0.1428571   0.4285714), wk =   0.1399417
        k(   10) = (   0.2857143  -0.0000000   0.2857143), wk =   0.0699708
        k(   11) = (   0.0000000   0.5714286   0.0000000), wk =   0.0349854
        k(   12) = (  -0.1428571   0.7142857  -0.1428571), wk =   0.1399417
        k(   13) = (   0.7142857  -0.1428571   0.7142857), wk =   0.1399417
        k(   14) = (   0.5714286   0.0000000   0.5714286), wk =   0.0699708
        k(   15) = (   0.0000000   0.8571429   0.0000000), wk =   0.0349854
        k(   16) = (   0.8571429  -0.0000000   0.8571429), wk =   0.0699708
        k(   17) = (  -0.2857143   0.5714286   0.0000000), wk =   0.1399417
        k(   18) = (   0.5714286  -0.2857143   0.8571429), wk =   0.2798834
        k(   19) = (   0.7142857  -0.1428571   1.0000000), wk =   0.1399417
        k(   20) = (   0.5714286   0.0000000   0.8571429), wk =   0.1399417

     Dense  grid:     1917 G-vectors     FFT dimensions: (  18,  18,  18)

     Estimated max dynamical RAM per process >       2.57 MB

     Estimated total dynamical RAM >      12.85 MB

     Initial potential from superposition of free atoms

     starting charge   10.99964, renormalised to   11.00000
     Starting wfcs are    9 randomized atomic wfcs +    1 random wfcs

     total cpu time spent up to now is        0.9 secs

     Self-consistent Calculation

     iteration #  1     ecut=    25.00 Ry     beta= 0.70
     Davidson diagonalization with overlap
     ethr =  1.00E-02,  avg # of iterations =  4.9

     Threshold (ethr) on eigenvalues was too large:
     Diagonalizing with lowered threshold

     Davidson diagonalization with overlap
     ethr =  8.12E-04,  avg # of iterations =  1.0

     total cpu time spent up to now is        1.1 secs

     total energy              =     -83.67762137 Ry
     Harris-Foulkes estimate   =     -83.74407383 Ry
     estimated scf accuracy    <       0.09148695 Ry

     iteration #  2     ecut=    25.00 Ry     beta= 0.70
     Davidson diagonalization with overlap
     ethr =  8.32E-04,  avg # of iterations =  2.0

     total cpu time spent up to now is        1.1 secs

     total energy              =     -83.70673178 Ry
     Harris-Foulkes estimate   =     -83.73827039 Ry
     estimated scf accuracy    <       0.06114573 Ry

     iteration #  3     ecut=    25.00 Ry     beta= 0.70
     Davidson diagonalization with overlap
     ethr =  5.56E-04,  avg # of iterations =  1.6

     total cpu time spent up to now is        1.2 secs

     total energy              =     -83.71823633 Ry
     Harris-Foulkes estimate   =     -83.71816294 Ry
     estimated scf accuracy    <       0.00034855 Ry

     iteration #  4     ecut=    25.00 Ry     beta= 0.70
     Davidson diagonalization with overlap
     ethr =  3.17E-06,  avg # of iterations =  3.2

     total cpu time spent up to now is        1.3 secs

     total energy              =     -83.71850243 Ry
     Harris-Foulkes estimate   =     -83.71850786 Ry
     estimated scf accuracy    <       0.00004339 Ry

     iteration #  5     ecut=    25.00 Ry     beta= 0.70
     Davidson diagonalization with overlap
     ethr =  3.94E-07,  avg # of iterations =  1.1

     total cpu time spent up to now is        1.4 secs

     total energy              =     -83.71849371 Ry
     Harris-Foulkes estimate   =     -83.71850288 Ry
     estimated scf accuracy    <       0.00002570 Ry

     iteration #  6     ecut=    25.00 Ry     beta= 0.70
     Davidson diagonalization with overlap
     ethr =  2.34E-07,  avg # of iterations =  1.2

     total cpu time spent up to now is        1.5 secs

     total energy              =     -83.71849769 Ry
     Harris-Foulkes estimate   =     -83.71849778 Ry
     estimated scf accuracy    <       0.00000017 Ry

     iteration #  7     ecut=    25.00 Ry     beta= 0.70
     Davidson diagonalization with overlap
     ethr =  1.59E-09,  avg # of iterations =  2.7

     total cpu time spent up to now is        1.6 secs

     total energy              =     -83.71849778 Ry
     Harris-Foulkes estimate   =     -83.71849778 Ry
     estimated scf accuracy    <       0.00000003 Ry

     iteration #  8     ecut=    25.00 Ry     beta= 0.70
     Davidson diagonalization with overlap
     ethr =  2.32E-10,  avg # of iterations =  1.0

     total cpu time spent up to now is        1.6 secs

     total energy              =     -83.71849777 Ry
     Harris-Foulkes estimate   =     -83.71849778 Ry
     estimated scf accuracy    <       0.00000002 Ry

     iteration #  9     ecut=    25.00 Ry     beta= 0.70
     Davidson diagonalization with overlap
     ethr =  1.59E-10,  avg # of iterations =  1.1

     total cpu time spent up to now is        1.7 secs

     End of self-consistent calculation

          k = 0.0000 0.0000 0.0000 (   259 PWs)   bands (ev):

     4.8049   7.5994   7.5994   7.5994   8.8420   8.8420  29.6331  32.8005
    32.8005  32.8005

          k =-0.1429 0.1429-0.1429 (   250 PWs)   bands (ev):

     5.4035   7.6628   7.8419   7.8419   8.9749   8.9749  28.0214  30.4264
    32.7369  32.7369

          k =-0.2857 0.2857-0.2857 (   247 PWs)   bands (ev):

     6.2747   7.9204   7.9204   8.4351   9.1995   9.1995  22.4049  29.7890
    32.0555  32.0555

          k =-0.4286 0.4286-0.4286 (   241 PWs)   bands (ev):

     6.2041   7.7924   7.7924   9.7640   9.7640  11.2360  17.3700  28.8223
    30.9190  30.9190

          k = 0.0000 0.2857 0.0000 (   246 PWs)   bands (ev):

     5.6087   7.3794   8.2102   8.2102   8.6685   9.0481  29.6765  30.3930
    30.3930  30.7250

          k =-0.1429 0.4286-0.1429 (   238 PWs)   bands (ev):

     6.5478   7.4517   8.1851   8.4302   9.2073   9.4620  24.7428  28.8585
    29.5616  31.3822

          k =-0.2857 0.5714-0.2857 (   242 PWs)   bands (ev):

     6.5702   7.6797   8.1700   8.3578   9.8154  11.4475  19.2221  27.9095
    28.3243  29.7811

          k = 0.5714-0.2857 0.5714 (   246 PWs)   bands (ev):

     6.4696   7.5764   7.9564   8.8064   9.6484  13.4405  16.4863  26.3657
    29.3616  29.4685

          k = 0.4286-0.1429 0.4286 (   248 PWs)   bands (ev):

     6.6724   7.6578   8.1179   8.3062   8.9416  10.8257  21.0036  25.9918
    30.5550  32.1174

          k = 0.2857-0.0000 0.2857 (   249 PWs)   bands (ev):

     6.2601   7.5484   8.0234   8.0555   8.5549   9.4283  26.4734  26.8621
    32.7930  33.1738

          k = 0.0000 0.5714 0.0000 (   242 PWs)   bands (ev):

     6.6229   6.8349   9.0057   9.0057   9.3092   9.5251  26.4217  26.4217
    27.1430  29.8603

          k =-0.1429 0.7143-0.1429 (   240 PWs)   bands (ev):

     6.5734   6.8084   8.7720   9.1044   9.8272  11.9467  21.9080  24.1450
    25.4324  29.7852

          k = 0.7143-0.1429 0.7143 (   244 PWs)   bands (ev):

     6.7033   7.2139   8.2616   8.7729   9.6677  15.7103  17.2740  21.8936
    26.3049  29.6449

          k = 0.5714 0.0000 0.5714 (   240 PWs)   bands (ev):

     7.1500   7.6653   7.8291   8.5788   9.2130  13.5367  20.3844  21.0421
    28.8547  29.9362

          k = 0.0000 0.8571 0.0000 (   242 PWs)   bands (ev):

     6.2172   6.3633   9.6033   9.8173   9.8173  12.9693  20.8424  23.7523
    23.7523  29.8405

          k = 0.8571-0.0000 0.8571 (   236 PWs)   bands (ev):

     6.4009   6.5725   9.3356   9.6207   9.8866  15.2347  19.4160  20.9239
    24.1011  29.8668

          k =-0.2857 0.5714 0.0000 (   241 PWs)   bands (ev):

     7.1087   7.1183   7.9321   9.0097   9.0593  11.0062  23.4984  23.7633
    27.6752  33.0415

          k = 0.5714-0.2857 0.8571 (   243 PWs)   bands (ev):

     6.9701   7.3781   7.9325   8.6129   9.5600  13.9964  18.4575  23.7108
    25.2814  32.3505

          k = 0.7143-0.1429 1.0000 (   243 PWs)   bands (ev):

     6.6260   6.7207   8.5420   9.3131   9.8013  14.6358  20.9569  21.5338
    22.1449  32.5729

          k = 0.5714 0.0000 0.8571 (   242 PWs)   bands (ev):

     6.8885   7.3468   7.8769   8.8846   9.7949  17.4194  18.0341  19.9918
    23.0511  33.0937

     the Fermi energy is    12.9491 ev

!    total energy              =     -83.71849777 Ry
     Harris-Foulkes estimate   =     -83.71849777 Ry
     estimated scf accuracy    <          3.2E-12 Ry

     The total energy is the sum of the following terms:

     one-electron contribution =      -3.85285636 Ry
     hartree contribution      =      14.02537429 Ry
     xc contribution           =     -22.02973889 Ry
     ewald contribution        =     -71.86118028 Ry
     smearing contrib. (-TS)   =      -0.00009653 Ry

     convergence has been achieved in   9 iterations

     Forces acting on atoms (cartesian axes, Ry/au):

     atom    1 type  1   force =     0.00000000    0.00000000    0.00000000

     Total force =     0.000000     Total SCF correction =     0.000000


     Computing stress (Cartesian axis) and pressure

          total   stress  (Ry/bohr**3)                   (kbar)     P=-2878.33
  -0.01956648  -0.00000000  -0.00000000      -2878.33     -0.00     -0.00
  -0.00000000  -0.01956648   0.00000000         -0.00  -2878.33      0.00
  -0.00000000   0.00000000  -0.01956648         -0.00      0.00  -2878.33


     Writing output data file Ag.save/

     init_run     :      0.13s CPU      0.13s WALL (       1 calls)
     electrons    :      0.78s CPU      0.86s WALL (       1 calls)
     forces       :      0.01s CPU      0.01s WALL (       1 calls)
     stress       :      0.04s CPU      0.04s WALL (       1 calls)

     Called by init_run:
     wfcinit      :      0.02s CPU      0.03s WALL (       1 calls)
     potinit      :      0.00s CPU      0.00s WALL (       1 calls)
     hinit0       :      0.10s CPU      0.10s WALL (       1 calls)

     Called by electrons:
     c_bands      :      0.61s CPU      0.67s WALL (      10 calls)
     sum_band     :      0.14s CPU      0.15s WALL (      10 calls)
     v_of_rho     :      0.01s CPU      0.01s WALL (      10 calls)
     newd         :      0.02s CPU      0.02s WALL (      10 calls)
     mix_rho      :      0.00s CPU      0.00s WALL (      10 calls)

     Called by c_bands:
     init_us_2    :      0.02s CPU      0.02s WALL (     460 calls)
     cegterg      :      0.59s CPU      0.64s WALL (     200 calls)

     Called by sum_band:
     sum_band:bec :      0.00s CPU      0.00s WALL (     200 calls)
     addusdens    :      0.02s CPU      0.02s WALL (      10 calls)

     Called by *egterg:
     h_psi        :      0.42s CPU      0.46s WALL (     615 calls)
     s_psi        :      0.01s CPU      0.01s WALL (     615 calls)
     g_psi        :      0.00s CPU      0.00s WALL (     395 calls)
     cdiaghg      :      0.10s CPU      0.11s WALL (     575 calls)

     Called by h_psi:
     h_psi:pot    :      0.42s CPU      0.46s WALL (     615 calls)
     h_psi:calbec :      0.02s CPU      0.02s WALL (     615 calls)
     vloc_psi     :      0.38s CPU      0.42s WALL (     615 calls)
     add_vuspsi   :      0.01s CPU      0.01s WALL (     615 calls)

     General routines
     calbec       :      0.03s CPU      0.03s WALL (     915 calls)
     fft          :      0.01s CPU      0.01s WALL (     137 calls)
     ffts         :      0.00s CPU      0.00s WALL (      10 calls)
     fftw         :      0.44s CPU      0.48s WALL (   11856 calls)

     Parallel routines
     fft_scatt_xy :      0.04s CPU      0.05s WALL (   12003 calls)
     fft_scatt_yz :      0.15s CPU      0.16s WALL (   12003 calls)

     PWSCF        :     1.70s CPU         1.83s WALL


   This run was terminated on:   0:11:20  27Mar2024            

=------------------------------------------------------------------------------=
   JOB DONE.
=------------------------------------------------------------------------------=
