
     Program PWSCF v.6.3MaX starts on 27Mar2024 at  0:10:14 

     This program is part of the open-source Quantum ESPRESSO suite
     for quantum simulation of materials; please cite
         "P. Giannozzi et al., J. Phys.:Condens. Matter 21 395502 (2009);
         "P. Giannozzi et al., J. Phys.:Condens. Matter 29 465901 (2017);
          URL http://www.quantum-espresso.org", 
     in publications or presentations arising from this work. More details at
     http://www.quantum-espresso.org/quote

     Parallel version (MPI), running on     5 processors

     MPI processes distributed on     1 nodes
     R & G space division:  proc/nbgrp/npool/nimage =       5
     Waiting for input...
     Reading input from standard input

     Current dimensions of program PWSCF are:
     Max number of different atomic species (ntypx) = 10
     Max number of k-points (npk) =  40000
     Max angular momentum in pseudopotentials (lmaxx) =  3
               file Ag.pbe-n-kjpaw_psl.1.0.0.UPF: wavefunction(s)  5S 5P renormalized

     Subspace diagonalization in iterative solution of the eigenvalue problem:
     a serial algorithm will be used


     Parallelization info
     --------------------
     sticks:   dense  smooth     PW     G-vecs:    dense   smooth      PW
     Min          39      39     11                  381      381      51
     Max          40      40     11                  384      384      52
     Sum         199     199     55                 1917     1917     259



     bravais-lattice index     =            2
     lattice parameter (alat)  =       7.7200  a.u.
     unit-cell volume          =     115.0249 (a.u.)^3
     number of atoms/cell      =            1
     number of atomic types    =            1
     number of electrons       =        11.00
     number of Kohn-Sham states=           10
     kinetic-energy cutoff     =      25.0000  Ry
     charge density cutoff     =     100.0000  Ry
     convergence threshold     =      1.0E-08
     mixing beta               =       0.7000
     number of iterations used =            8  plain     mixing
     Exchange-correlation      = SLA PW PBX PBC ( 1  4  3  4 0 0)

     celldm(1)=   7.720000  celldm(2)=   0.000000  celldm(3)=   0.000000
     celldm(4)=   0.000000  celldm(5)=   0.000000  celldm(6)=   0.000000

     crystal axes: (cart. coord. in units of alat)
               a(1) = (  -0.500000   0.000000   0.500000 )  
               a(2) = (   0.000000   0.500000   0.500000 )  
               a(3) = (  -0.500000   0.500000   0.000000 )  

     reciprocal axes: (cart. coord. in units 2 pi/alat)
               b(1) = ( -1.000000 -1.000000  1.000000 )  
               b(2) = (  1.000000  1.000000  1.000000 )  
               b(3) = ( -1.000000  1.000000 -1.000000 )  


     PseudoPot. # 1 for Ag read from file:
     /home/lorenzo/pseudos/Ag/Ag.pbe-n-kjpaw_psl.1.0.0.UPF
     MD5 check sum: 51099775af2a3182a6a1caffb86952a3
     Pseudo is Projector augmented-wave + core cor, Zval = 11.0
     Generated using "atomic" code by A. Dal Corso v.6.2.2
     Shape of augmentation charge: PSQ
     Using radial grid of 1237 points,  6 beta functions with: 
                l(1) =   0
                l(2) =   0
                l(3) =   1
                l(4) =   1
                l(5) =   2
                l(6) =   2
     Q(r) pseudized with 0 coefficients 


     atomic species   valence    mass     pseudopotential
        Ag            11.00   107.86820     Ag( 1.00)

     48 Sym. Ops., with inversion, found



   Cartesian axes

     site n.     atom                  positions (alat units)
         1           Ag  tau(   1) = (   0.0000000   0.0000000   0.0000000  )

     number of k points=     1  gaussian smearing, width (Ry)=  0.0100
                       cart. coord. in units 2pi/alat
        k(    1) = (   0.0000000   0.0000000   0.0000000), wk =   2.0000000

     Dense  grid:     1917 G-vectors     FFT dimensions: (  18,  18,  18)

     Estimated max dynamical RAM per process >       2.42 MB

     Estimated total dynamical RAM >      12.12 MB

     Initial potential from superposition of free atoms

     starting charge   10.99960, renormalised to   11.00000
     Starting wfcs are    9 randomized atomic wfcs +    1 random wfcs
     Checking if some PAW data can be deallocated... 

     total cpu time spent up to now is        1.3 secs

     Self-consistent Calculation

     iteration #  1     ecut=    25.00 Ry     beta= 0.70
     Davidson diagonalization with overlap
     ethr =  1.00E-02,  avg # of iterations =  8.0

     total cpu time spent up to now is        1.4 secs

     total energy              =    -355.46032484 Ry
     Harris-Foulkes estimate   =    -355.60170031 Ry
     estimated scf accuracy    <       0.19458177 Ry

     iteration #  2     ecut=    25.00 Ry     beta= 0.70
     Davidson diagonalization with overlap
     ethr =  1.77E-03,  avg # of iterations =  2.0

     total cpu time spent up to now is        1.6 secs

     total energy              =    -355.52144360 Ry
     Harris-Foulkes estimate   =    -355.53826736 Ry
     estimated scf accuracy    <       0.03184139 Ry

     iteration #  3     ecut=    25.00 Ry     beta= 0.70
     Davidson diagonalization with overlap
     ethr =  2.89E-04,  avg # of iterations =  2.0

     total cpu time spent up to now is        1.8 secs

     total energy              =    -355.52706665 Ry
     Harris-Foulkes estimate   =    -355.52687860 Ry
     estimated scf accuracy    <       0.00031312 Ry

     iteration #  4     ecut=    25.00 Ry     beta= 0.70
     Davidson diagonalization with overlap
     ethr =  2.85E-06,  avg # of iterations =  7.0

     total cpu time spent up to now is        1.9 secs

     total energy              =    -355.52721455 Ry
     Harris-Foulkes estimate   =    -355.52721367 Ry
     estimated scf accuracy    <       0.00001081 Ry

     iteration #  5     ecut=    25.00 Ry     beta= 0.70
     Davidson diagonalization with overlap
     ethr =  9.83E-08,  avg # of iterations =  1.0

     total cpu time spent up to now is        2.1 secs

     total energy              =    -355.52721456 Ry
     Harris-Foulkes estimate   =    -355.52721491 Ry
     estimated scf accuracy    <       0.00000387 Ry

     iteration #  6     ecut=    25.00 Ry     beta= 0.70
     Davidson diagonalization with overlap
     ethr =  3.52E-08,  avg # of iterations =  2.0

     total cpu time spent up to now is        2.3 secs

     total energy              =    -355.52721529 Ry
     Harris-Foulkes estimate   =    -355.52721537 Ry
     estimated scf accuracy    <       0.00000028 Ry

     iteration #  7     ecut=    25.00 Ry     beta= 0.70
     Davidson diagonalization with overlap
     ethr =  2.58E-09,  avg # of iterations =  3.0

     total cpu time spent up to now is        2.4 secs

     total energy              =    -355.52721534 Ry
     Harris-Foulkes estimate   =    -355.52721535 Ry
     estimated scf accuracy    <       0.00000006 Ry

     iteration #  8     ecut=    25.00 Ry     beta= 0.70
     Davidson diagonalization with overlap
     ethr =  5.17E-10,  avg # of iterations =  1.0

     total cpu time spent up to now is        2.5 secs

     total energy              =    -355.52721533 Ry
     Harris-Foulkes estimate   =    -355.52721534 Ry
     estimated scf accuracy    <       0.00000005 Ry

     iteration #  9     ecut=    25.00 Ry     beta= 0.70
     Davidson diagonalization with overlap
     ethr =  4.74E-10,  avg # of iterations =  2.0

     total cpu time spent up to now is        2.7 secs

     End of self-consistent calculation

          k = 0.0000 0.0000 0.0000 (   259 PWs)   bands (ev):

     5.0071   6.6828   6.6828   6.6828   7.7321   7.7321  30.2085  32.9890
    32.9890  32.9890

     the Fermi energy is     7.7970 ev

!    total energy              =    -355.52721533 Ry
     Harris-Foulkes estimate   =    -355.52721534 Ry
     estimated scf accuracy    <          7.9E-09 Ry

     total all-electron energy =    -10632.493269 Ry

     The total energy is the sum of the following terms:

     one-electron contribution =       2.04948345 Ry
     hartree contribution      =      13.31532154 Ry
     xc contribution           =     -22.01215955 Ry
     ewald contribution        =     -71.86118028 Ry
     one-center paw contrib.   =    -277.00969242 Ry
     smearing contrib. (-TS)   =      -0.00898808 Ry

     convergence has been achieved in   9 iterations

     Forces acting on atoms (cartesian axes, Ry/au):

     atom    1 type  1   force =     0.00000000    0.00000000    0.00000000

     Total force =     0.000000     Total SCF correction =     0.000000


     Computing stress (Cartesian axis) and pressure

          total   stress  (Ry/bohr**3)                   (kbar)     P=-3023.65
  -0.02055435  -0.00000000   0.00000000      -3023.65     -0.00      0.00
  -0.00000000  -0.02055435  -0.00000000         -0.00  -3023.65     -0.00
   0.00000000   0.00000000  -0.02055435          0.00      0.00  -3023.65


     Writing output data file Ag.save/

     init_run     :      0.27s CPU      0.30s WALL (       1 calls)
     electrons    :      1.27s CPU      1.41s WALL (       1 calls)
     forces       :      0.02s CPU      0.02s WALL (       1 calls)
     stress       :      0.03s CPU      0.03s WALL (       1 calls)

     Called by init_run:
     wfcinit      :      0.00s CPU      0.00s WALL (       1 calls)
     potinit      :      0.13s CPU      0.15s WALL (       1 calls)
     hinit0       :      0.10s CPU      0.10s WALL (       1 calls)

     Called by electrons:
     c_bands      :      0.06s CPU      0.06s WALL (       9 calls)
     sum_band     :      0.04s CPU      0.04s WALL (       9 calls)
     v_of_rho     :      0.03s CPU      0.03s WALL (      10 calls)
     newd         :      0.03s CPU      0.03s WALL (      10 calls)
     PAW_pot      :      1.24s CPU      1.39s WALL (      10 calls)
     mix_rho      :      0.00s CPU      0.00s WALL (       9 calls)

     Called by c_bands:
     init_us_2    :      0.00s CPU      0.00s WALL (      19 calls)
     cegterg      :      0.05s CPU      0.06s WALL (       9 calls)

     Called by sum_band:
     sum_band:bec :      0.00s CPU      0.00s WALL (       9 calls)
     addusdens    :      0.02s CPU      0.02s WALL (       9 calls)

     Called by *egterg:
     h_psi        :      0.04s CPU      0.04s WALL (      38 calls)
     s_psi        :      0.00s CPU      0.00s WALL (      38 calls)
     g_psi        :      0.00s CPU      0.00s WALL (      28 calls)
     cdiaghg      :      0.01s CPU      0.01s WALL (      37 calls)

     Called by h_psi:
     h_psi:pot    :      0.04s CPU      0.04s WALL (      38 calls)
     h_psi:calbec :      0.00s CPU      0.00s WALL (      38 calls)
     vloc_psi     :      0.03s CPU      0.03s WALL (      38 calls)
     add_vuspsi   :      0.00s CPU      0.00s WALL (      38 calls)

     General routines
     calbec       :      0.00s CPU      0.00s WALL (      52 calls)
     fft          :      0.03s CPU      0.03s WALL (     136 calls)
     ffts         :      0.00s CPU      0.00s WALL (       9 calls)
     fftw         :      0.04s CPU      0.04s WALL (     570 calls)

     Parallel routines
     fft_scatt_xy :      0.00s CPU      0.00s WALL (     715 calls)
     fft_scatt_yz :      0.04s CPU      0.04s WALL (     715 calls)

     PWSCF        :     2.59s CPU         2.82s WALL


   This run was terminated on:   0:10:17  27Mar2024            

=------------------------------------------------------------------------------=
   JOB DONE.
=------------------------------------------------------------------------------=
