
     Program PWSCF v.6.3MaX starts on 27Mar2024 at  0:40:33 

     This program is part of the open-source Quantum ESPRESSO suite
     for quantum simulation of materials; please cite
         "P. Giannozzi et al., J. Phys.:Condens. Matter 21 395502 (2009);
         "P. Giannozzi et al., J. Phys.:Condens. Matter 29 465901 (2017);
          URL http://www.quantum-espresso.org", 
     in publications or presentations arising from this work. More details at
     http://www.quantum-espresso.org/quote

     Parallel version (MPI), running on     5 processors

     MPI processes distributed on     1 nodes
     R & G space division:  proc/nbgrp/npool/nimage =       5
     Waiting for input...
     Reading input from standard input

     Current dimensions of program PWSCF are:
     Max number of different atomic species (ntypx) = 10
     Max number of k-points (npk) =  40000
     Max angular momentum in pseudopotentials (lmaxx) =  3

     Subspace diagonalization in iterative solution of the eigenvalue problem:
     a serial algorithm will be used


     Parallelization info
     --------------------
     sticks:   dense  smooth     PW     G-vecs:    dense   smooth      PW
     Min         137     137     42                 2410     2410     397
     Max         139     139     43                 2411     2411     398
     Sum         691     691    211                12051    12051    1989



     bravais-lattice index     =            2
     lattice parameter (alat)  =       7.7200  a.u.
     unit-cell volume          =     115.0249 (a.u.)^3
     number of atoms/cell      =            1
     number of atomic types    =            1
     number of electrons       =        11.00
     number of Kohn-Sham states=           10
     kinetic-energy cutoff     =      85.0000  Ry
     charge density cutoff     =     340.0000  Ry
     convergence threshold     =      1.0E-08
     mixing beta               =       0.7000
     number of iterations used =            8  plain     mixing
     Exchange-correlation      = PBESOL ( 1  4 10  8 0 0)

     celldm(1)=   7.720000  celldm(2)=   0.000000  celldm(3)=   0.000000
     celldm(4)=   0.000000  celldm(5)=   0.000000  celldm(6)=   0.000000

     crystal axes: (cart. coord. in units of alat)
               a(1) = (  -0.500000   0.000000   0.500000 )  
               a(2) = (   0.000000   0.500000   0.500000 )  
               a(3) = (  -0.500000   0.500000   0.000000 )  

     reciprocal axes: (cart. coord. in units 2 pi/alat)
               b(1) = ( -1.000000 -1.000000  1.000000 )  
               b(2) = (  1.000000  1.000000  1.000000 )  
               b(3) = ( -1.000000  1.000000 -1.000000 )  


     PseudoPot. # 1 for Ag read from file:
     /home/lorenzo/pseudos/Ag/Ag.pbesol-n-rrkjus_psl.1.0.0.UPF
     MD5 check sum: 3b43e8aa747a56f565f44d11355b8b45
     Pseudo is Ultrasoft + core correction, Zval = 11.0
     Generated using "atomic" code by A. Dal Corso v.6.2.2
     Using radial grid of 1237 points,  6 beta functions with: 
                l(1) =   0
                l(2) =   0
                l(3) =   1
                l(4) =   1
                l(5) =   2
                l(6) =   2
     Q(r) pseudized with 0 coefficients 


     atomic species   valence    mass     pseudopotential
        Ag            11.00   107.86820     Ag( 1.00)

     48 Sym. Ops., with inversion, found



   Cartesian axes

     site n.     atom                  positions (alat units)
         1           Ag  tau(   1) = (   0.0000000   0.0000000   0.0000000  )

     number of k points=     8  gaussian smearing, width (Ry)=  0.0100
                       cart. coord. in units 2pi/alat
        k(    1) = (   0.0000000   0.0000000   0.0000000), wk =   0.0312500
        k(    2) = (  -0.2500000   0.2500000  -0.2500000), wk =   0.2500000
        k(    3) = (   0.5000000  -0.5000000   0.5000000), wk =   0.1250000
        k(    4) = (   0.0000000   0.5000000   0.0000000), wk =   0.1875000
        k(    5) = (   0.7500000  -0.2500000   0.7500000), wk =   0.7500000
        k(    6) = (   0.5000000   0.0000000   0.5000000), wk =   0.3750000
        k(    7) = (   0.0000000  -1.0000000   0.0000000), wk =   0.0937500
        k(    8) = (  -0.5000000  -1.0000000   0.0000000), wk =   0.1875000

     Dense  grid:    12051 G-vectors     FFT dimensions: (  36,  36,  36)

     Estimated max dynamical RAM per process >      11.43 MB

     Estimated total dynamical RAM >      57.14 MB

     Initial potential from superposition of free atoms

     starting charge   10.99964, renormalised to   11.00000
     Starting wfcs are    9 randomized atomic wfcs +    1 random wfcs

     total cpu time spent up to now is        1.0 secs

     Self-consistent Calculation

     iteration #  1     ecut=    85.00 Ry     beta= 0.70
     Davidson diagonalization with overlap
     ethr =  1.00E-02,  avg # of iterations =  5.1

     Threshold (ethr) on eigenvalues was too large:
     Diagonalizing with lowered threshold

     Davidson diagonalization with overlap
     ethr =  4.49E-05,  avg # of iterations =  3.2

     total cpu time spent up to now is        1.4 secs

     total energy              =     -84.16701682 Ry
     Harris-Foulkes estimate   =     -84.17049687 Ry
     estimated scf accuracy    <       0.00536172 Ry

     iteration #  2     ecut=    85.00 Ry     beta= 0.70
     Davidson diagonalization with overlap
     ethr =  4.87E-05,  avg # of iterations =  2.1

     total cpu time spent up to now is        1.7 secs

     total energy              =     -84.16826260 Ry
     Harris-Foulkes estimate   =     -84.17020319 Ry
     estimated scf accuracy    <       0.00358529 Ry

     iteration #  3     ecut=    85.00 Ry     beta= 0.70
     Davidson diagonalization with overlap
     ethr =  3.26E-05,  avg # of iterations =  2.0

     total cpu time spent up to now is        1.9 secs

     total energy              =     -84.16905855 Ry
     Harris-Foulkes estimate   =     -84.16906197 Ry
     estimated scf accuracy    <       0.00002652 Ry

     iteration #  4     ecut=    85.00 Ry     beta= 0.70
     Davidson diagonalization with overlap
     ethr =  2.41E-07,  avg # of iterations =  2.4

     total cpu time spent up to now is        2.0 secs

     total energy              =     -84.16906891 Ry
     Harris-Foulkes estimate   =     -84.16906890 Ry
     estimated scf accuracy    <       0.00000066 Ry

     iteration #  5     ecut=    85.00 Ry     beta= 0.70
     Davidson diagonalization with overlap
     ethr =  6.01E-09,  avg # of iterations =  2.1

     total cpu time spent up to now is        2.2 secs

     total energy              =     -84.16906904 Ry
     Harris-Foulkes estimate   =     -84.16906908 Ry
     estimated scf accuracy    <       0.00000009 Ry

     iteration #  6     ecut=    85.00 Ry     beta= 0.70
     Davidson diagonalization with overlap
     ethr =  8.01E-10,  avg # of iterations =  1.6

     total cpu time spent up to now is        2.4 secs

     End of self-consistent calculation

          k = 0.0000 0.0000 0.0000 (  1471 PWs)   bands (ev):

     4.8050   7.9073   7.9073   7.9073   8.9593   8.9593  29.5400  32.8325
    32.8325  32.8325

          k =-0.2500 0.2500-0.2500 (  1525 PWs)   bands (ev):

     6.2207   8.1040   8.1118   8.1118   9.0858   9.0858  23.8369  29.9520
    32.3600  32.3600

          k = 0.5000-0.5000 0.5000 (  1502 PWs)   bands (ev):

     6.2719   7.8864   7.8864   9.7625   9.7625  12.1911  16.2489  28.5902
    30.8274  30.8274

          k = 0.0000 0.5000 0.0000 (  1523 PWs)   bands (ev):

     6.6410   7.1038   8.7910   8.7910   8.8692   9.3356  27.3836  27.3836
    28.4707  29.6274

          k = 0.7500-0.2500 0.7500 (  1527 PWs)   bands (ev):

     6.7594   7.3324   8.3756   8.7565   9.8203  13.6497  18.7734  23.8945
    26.3767  29.5143

          k = 0.5000 0.0000 0.5000 (  1522 PWs)   bands (ev):

     7.3214   7.5624   7.9451   8.5745   8.9692  12.1143  21.9313  22.0463
    30.2411  30.4945

          k = 0.0000-1.0000 0.0000 (  1524 PWs)   bands (ev):

     6.2421   6.3882   9.7319   9.9714   9.9714  14.2114  19.3736  23.4493
    23.4493  29.7409

          k =-0.5000-1.0000 0.0000 (  1540 PWs)   bands (ev):

     7.0029   7.6193   7.6193   8.9666   9.9725  18.5996  18.5996  19.6776
    20.8482  36.0127

     the Fermi energy is    13.4831 ev

!    total energy              =     -84.16906905 Ry
     Harris-Foulkes estimate   =     -84.16906905 Ry
     estimated scf accuracy    <          2.8E-10 Ry

     The total energy is the sum of the following terms:

     one-electron contribution =      -4.71823788 Ry
     hartree contribution      =      14.54971145 Ry
     xc contribution           =     -22.13889005 Ry
     ewald contribution        =     -71.86118018 Ry
     smearing contrib. (-TS)   =      -0.00047239 Ry

     convergence has been achieved in   6 iterations

     Forces acting on atoms (cartesian axes, Ry/au):

     atom    1 type  1   force =     0.00000000    0.00000000    0.00000000

     Total force =     0.000000     Total SCF correction =     0.000000


     Computing stress (Cartesian axis) and pressure

          total   stress  (Ry/bohr**3)                   (kbar)     P=  -11.47
  -0.00007799  -0.00000000  -0.00000000        -11.47     -0.00     -0.00
  -0.00000000  -0.00007799  -0.00000000         -0.00    -11.47     -0.00
  -0.00000000  -0.00000000  -0.00007799         -0.00     -0.00    -11.47


     Writing output data file Ag.save/

     init_run     :      0.27s CPU      0.28s WALL (       1 calls)
     electrons    :      1.28s CPU      1.34s WALL (       1 calls)
     forces       :      0.05s CPU      0.05s WALL (       1 calls)
     stress       :      0.14s CPU      0.14s WALL (       1 calls)

     Called by init_run:
     wfcinit      :      0.05s CPU      0.05s WALL (       1 calls)
     potinit      :      0.02s CPU      0.02s WALL (       1 calls)
     hinit0       :      0.19s CPU      0.20s WALL (       1 calls)

     Called by electrons:
     c_bands      :      0.88s CPU      0.93s WALL (       7 calls)
     sum_band     :      0.26s CPU      0.27s WALL (       7 calls)
     v_of_rho     :      0.07s CPU      0.07s WALL (       7 calls)
     newd         :      0.08s CPU      0.09s WALL (       7 calls)
     mix_rho      :      0.00s CPU      0.00s WALL (       7 calls)

     Called by c_bands:
     init_us_2    :      0.03s CPU      0.03s WALL (     136 calls)
     cegterg      :      0.85s CPU      0.89s WALL (      56 calls)

     Called by sum_band:
     sum_band:bec :      0.00s CPU      0.00s WALL (      56 calls)
     addusdens    :      0.09s CPU      0.09s WALL (       7 calls)

     Called by *egterg:
     h_psi        :      0.73s CPU      0.77s WALL (     213 calls)
     s_psi        :      0.02s CPU      0.02s WALL (     213 calls)
     g_psi        :      0.00s CPU      0.00s WALL (     149 calls)
     cdiaghg      :      0.04s CPU      0.05s WALL (     197 calls)

     Called by h_psi:
     h_psi:pot    :      0.72s CPU      0.77s WALL (     213 calls)
     h_psi:calbec :      0.03s CPU      0.03s WALL (     213 calls)
     vloc_psi     :      0.67s CPU      0.71s WALL (     213 calls)
     add_vuspsi   :      0.02s CPU      0.02s WALL (     213 calls)

     General routines
     calbec       :      0.05s CPU      0.06s WALL (     309 calls)
     fft          :      0.04s CPU      0.04s WALL (     104 calls)
     ffts         :      0.00s CPU      0.00s WALL (       7 calls)
     fftw         :      0.75s CPU      0.79s WALL (    3470 calls)

     Parallel routines
     fft_scatt_xy :      0.07s CPU      0.07s WALL (    3581 calls)
     fft_scatt_yz :      0.16s CPU      0.18s WALL (    3581 calls)

     PWSCF        :     2.49s CPU         2.60s WALL


   This run was terminated on:   0:40:35  27Mar2024            

=------------------------------------------------------------------------------=
   JOB DONE.
=------------------------------------------------------------------------------=
