
     Program PWSCF v.6.3MaX starts on 27Mar2024 at  0:17:43 

     This program is part of the open-source Quantum ESPRESSO suite
     for quantum simulation of materials; please cite
         "P. Giannozzi et al., J. Phys.:Condens. Matter 21 395502 (2009);
         "P. Giannozzi et al., J. Phys.:Condens. Matter 29 465901 (2017);
          URL http://www.quantum-espresso.org", 
     in publications or presentations arising from this work. More details at
     http://www.quantum-espresso.org/quote

     Parallel version (MPI), running on     5 processors

     MPI processes distributed on     1 nodes
     R & G space division:  proc/nbgrp/npool/nimage =       5
     Waiting for input...
     Reading input from standard input

     Current dimensions of program PWSCF are:
     Max number of different atomic species (ntypx) = 10
     Max number of k-points (npk) =  40000
     Max angular momentum in pseudopotentials (lmaxx) =  3

     Subspace diagonalization in iterative solution of the eigenvalue problem:
     a serial algorithm will be used


     Parallelization info
     --------------------
     sticks:   dense  smooth     PW     G-vecs:    dense   smooth      PW
     Min          62      62     21                  765      765     148
     Max          63      63     22                  770      770     151
     Sum         313     313    109                 3839     3839     749



     bravais-lattice index     =            2
     lattice parameter (alat)  =       7.7200  a.u.
     unit-cell volume          =     115.0249 (a.u.)^3
     number of atoms/cell      =            1
     number of atomic types    =            1
     number of electrons       =        11.00
     number of Kohn-Sham states=           10
     kinetic-energy cutoff     =      40.0000  Ry
     charge density cutoff     =     160.0000  Ry
     convergence threshold     =      1.0E-08
     mixing beta               =       0.7000
     number of iterations used =            8  plain     mixing
     Exchange-correlation      = PBE ( 1  4  3  4 0 0)

     celldm(1)=   7.720000  celldm(2)=   0.000000  celldm(3)=   0.000000
     celldm(4)=   0.000000  celldm(5)=   0.000000  celldm(6)=   0.000000

     crystal axes: (cart. coord. in units of alat)
               a(1) = (  -0.500000   0.000000   0.500000 )  
               a(2) = (   0.000000   0.500000   0.500000 )  
               a(3) = (  -0.500000   0.500000   0.000000 )  

     reciprocal axes: (cart. coord. in units 2 pi/alat)
               b(1) = ( -1.000000 -1.000000  1.000000 )  
               b(2) = (  1.000000  1.000000  1.000000 )  
               b(3) = ( -1.000000  1.000000 -1.000000 )  


     PseudoPot. # 1 for Ag read from file:
     /home/lorenzo/pseudos/Ag/Ag.pbe-n-rrkjus_psl.1.0.0.UPF
     MD5 check sum: d841cbfac2b0861aec33b46768a516bf
     Pseudo is Ultrasoft + core correction, Zval = 11.0
     Generated using "atomic" code by A. Dal Corso v.6.2.2
     Using radial grid of 1237 points,  6 beta functions with: 
                l(1) =   0
                l(2) =   0
                l(3) =   1
                l(4) =   1
                l(5) =   2
                l(6) =   2
     Q(r) pseudized with 0 coefficients 


     atomic species   valence    mass     pseudopotential
        Ag            11.00   107.86820     Ag( 1.00)

     48 Sym. Ops., with inversion, found



   Cartesian axes

     site n.     atom                  positions (alat units)
         1           Ag  tau(   1) = (   0.0000000   0.0000000   0.0000000  )

     number of k points=    29  gaussian smearing, width (Ry)=  0.0100
                       cart. coord. in units 2pi/alat
        k(    1) = (   0.0000000   0.0000000   0.0000000), wk =   0.0039062
        k(    2) = (  -0.1250000   0.1250000  -0.1250000), wk =   0.0312500
        k(    3) = (  -0.2500000   0.2500000  -0.2500000), wk =   0.0312500
        k(    4) = (  -0.3750000   0.3750000  -0.3750000), wk =   0.0312500
        k(    5) = (   0.5000000  -0.5000000   0.5000000), wk =   0.0156250
        k(    6) = (   0.0000000   0.2500000   0.0000000), wk =   0.0234375
        k(    7) = (  -0.1250000   0.3750000  -0.1250000), wk =   0.0937500
        k(    8) = (  -0.2500000   0.5000000  -0.2500000), wk =   0.0937500
        k(    9) = (   0.6250000  -0.3750000   0.6250000), wk =   0.0937500
        k(   10) = (   0.5000000  -0.2500000   0.5000000), wk =   0.0937500
        k(   11) = (   0.3750000  -0.1250000   0.3750000), wk =   0.0937500
        k(   12) = (   0.2500000   0.0000000   0.2500000), wk =   0.0468750
        k(   13) = (   0.0000000   0.5000000   0.0000000), wk =   0.0234375
        k(   14) = (  -0.1250000   0.6250000  -0.1250000), wk =   0.0937500
        k(   15) = (   0.7500000  -0.2500000   0.7500000), wk =   0.0937500
        k(   16) = (   0.6250000  -0.1250000   0.6250000), wk =   0.0937500
        k(   17) = (   0.5000000   0.0000000   0.5000000), wk =   0.0468750
        k(   18) = (   0.0000000   0.7500000   0.0000000), wk =   0.0234375
        k(   19) = (   0.8750000  -0.1250000   0.8750000), wk =   0.0937500
        k(   20) = (   0.7500000   0.0000000   0.7500000), wk =   0.0468750
        k(   21) = (   0.0000000  -1.0000000   0.0000000), wk =   0.0117188
        k(   22) = (  -0.2500000   0.5000000   0.0000000), wk =   0.0937500
        k(   23) = (   0.6250000  -0.3750000   0.8750000), wk =   0.1875000
        k(   24) = (   0.5000000  -0.2500000   0.7500000), wk =   0.0937500
        k(   25) = (   0.7500000  -0.2500000   1.0000000), wk =   0.0937500
        k(   26) = (   0.6250000  -0.1250000   0.8750000), wk =   0.1875000
        k(   27) = (   0.5000000   0.0000000   0.7500000), wk =   0.0937500
        k(   28) = (  -0.2500000  -1.0000000   0.0000000), wk =   0.0468750
        k(   29) = (  -0.5000000  -1.0000000   0.0000000), wk =   0.0234375

     Dense  grid:     3839 G-vectors     FFT dimensions: (  24,  24,  24)

     Estimated max dynamical RAM per process >       4.60 MB

     Estimated total dynamical RAM >      23.02 MB

     Initial potential from superposition of free atoms

     starting charge   10.99960, renormalised to   11.00000
     Starting wfcs are    9 randomized atomic wfcs +    1 random wfcs

     total cpu time spent up to now is        0.9 secs

     Self-consistent Calculation

     iteration #  1     ecut=    40.00 Ry     beta= 0.70
     Davidson diagonalization with overlap
     ethr =  1.00E-02,  avg # of iterations =  4.6

     Threshold (ethr) on eigenvalues was too large:
     Diagonalizing with lowered threshold

     Davidson diagonalization with overlap
     ethr =  2.28E-05,  avg # of iterations =  2.7

     total cpu time spent up to now is        1.4 secs

     total energy              =     -84.26347002 Ry
     Harris-Foulkes estimate   =     -84.26485722 Ry
     estimated scf accuracy    <       0.00278024 Ry

     iteration #  2     ecut=    40.00 Ry     beta= 0.70
     Davidson diagonalization with overlap
     ethr =  2.53E-05,  avg # of iterations =  2.0

     total cpu time spent up to now is        1.6 secs

     total energy              =     -84.26403089 Ry
     Harris-Foulkes estimate   =     -84.26491346 Ry
     estimated scf accuracy    <       0.00161655 Ry

     iteration #  3     ecut=    40.00 Ry     beta= 0.70
     Davidson diagonalization with overlap
     ethr =  1.47E-05,  avg # of iterations =  2.0

     total cpu time spent up to now is        1.8 secs

     total energy              =     -84.26442486 Ry
     Harris-Foulkes estimate   =     -84.26442252 Ry
     estimated scf accuracy    <       0.00003310 Ry

     iteration #  4     ecut=    40.00 Ry     beta= 0.70
     Davidson diagonalization with overlap
     ethr =  3.01E-07,  avg # of iterations =  2.0

     total cpu time spent up to now is        1.9 secs

     total energy              =     -84.26443066 Ry
     Harris-Foulkes estimate   =     -84.26443053 Ry
     estimated scf accuracy    <       0.00000016 Ry

     iteration #  5     ecut=    40.00 Ry     beta= 0.70
     Davidson diagonalization with overlap
     ethr =  1.47E-09,  avg # of iterations =  2.8

     total cpu time spent up to now is        2.1 secs

     total energy              =     -84.26443078 Ry
     Harris-Foulkes estimate   =     -84.26443081 Ry
     estimated scf accuracy    <       0.00000006 Ry

     iteration #  6     ecut=    40.00 Ry     beta= 0.70
     Davidson diagonalization with overlap
     ethr =  5.64E-10,  avg # of iterations =  2.2

     total cpu time spent up to now is        2.3 secs

     End of self-consistent calculation

          k = 0.0000 0.0000 0.0000 (   531 PWs)   bands (ev):

     5.0701   8.1047   8.1047   8.1047   9.1427   9.1427  29.8027  33.0942
    33.0942  33.0942

          k =-0.1250 0.1250-0.1250 (   513 PWs)   bands (ev):

     5.5412   8.0159   8.2242   8.2242   9.1091   9.1091  28.8374  30.7024
    33.0474  33.0474

          k =-0.2500 0.2500-0.2500 (   492 PWs)   bands (ev):

     6.4680   8.3062   8.3062   8.3241   9.2711   9.2711  24.0894  30.2059
    32.6259  32.6259

          k =-0.3750 0.3750-0.3750 (   492 PWs)   bands (ev):

     6.5712   8.1623   8.1623   9.7175   9.7175  10.3861  19.3742  29.2686
    31.6496  31.6496

          k = 0.5000-0.5000 0.5000 (   476 PWs)   bands (ev):

     6.4906   8.0800   8.0800   9.9453   9.9453  12.4535  16.4886  28.8430
    31.1070  31.1070

          k = 0.0000 0.2500 0.0000 (   504 PWs)   bands (ev):

     5.7002   7.8607   8.3412   8.3412   8.9177   9.2507  29.8187  31.1271
    31.1271  31.2210

          k =-0.1250 0.3750-0.1250 (   497 PWs)   bands (ev):

     6.5590   7.7074   8.3932   8.5317   9.1445   9.4229  26.0576  29.7731
    29.9301  32.4092

          k =-0.2500 0.5000-0.2500 (   504 PWs)   bands (ev):

     6.8542   8.0944   8.4036   8.4566   9.7965  10.6391  21.1552  28.9710
    29.0661  30.7666

          k = 0.6250-0.3750 0.6250 (   487 PWs)   bands (ev):

     6.7509   7.9284   8.3192   9.1231   9.9612  13.1712  17.1027  27.7086
    29.3407  29.7515

          k = 0.5000-0.2500 0.5000 (   493 PWs)   bands (ev):

     6.8102   7.9824   8.3138   9.1314   9.6591  12.3873  18.2873  26.9514
    29.9670  30.9140

          k = 0.3750-0.1250 0.3750 (   497 PWs)   bands (ev):

     6.9393   8.0493   8.3930   8.4639   9.0897  10.3555  22.7824  27.0274
    31.3701  33.6891

          k = 0.2500 0.0000 0.2500 (   503 PWs)   bands (ev):

     6.2430   7.8289   8.3780   8.4173   8.8858   9.4208  27.6391  27.7907
    32.6403  34.1015

          k = 0.0000 0.5000 0.0000 (   504 PWs)   bands (ev):

     6.8791   7.3068   8.9837   8.9837   9.0868   9.5167  27.6481  27.6481
    28.7136  29.8753

          k =-0.1250 0.6250-0.1250 (   488 PWs)   bands (ev):

     6.9831   7.2383   8.7851   9.0971   9.8328  10.9660  23.4890  26.3288
    26.5058  30.0076

          k = 0.7500-0.2500 0.7500 (   487 PWs)   bands (ev):

     6.9676   7.5334   8.5804   8.9449  10.0030  13.8906  19.0279  24.1474
    26.6454  29.7644

          k = 0.6250-0.1250 0.6250 (   487 PWs)   bands (ev):

     7.1947   7.7599   8.3854   8.8208   9.6872  15.0675  17.8933  22.7039
    28.1741  29.8380

          k = 0.5000 0.0000 0.5000 (   489 PWs)   bands (ev):

     7.5351   7.7664   8.1512   8.7616   9.1602  12.3395  22.1826  22.3024
    30.4971  30.7623

          k = 0.0000 0.7500 0.0000 (   484 PWs)   bands (ev):

     6.6900   6.7962   9.7687   9.7687   9.7928  11.7928  23.3099  24.8268
    24.8268  29.9490

          k = 0.8750-0.1250 0.8750 (   482 PWs)   bands (ev):

     6.6541   6.8267   9.5506   9.6457  10.0654  14.2788  20.8882  21.9336
    24.5374  29.9510

          k = 0.7500 0.0000 0.7500 (   492 PWs)   bands (ev):

     6.8882   7.3093   8.8190   9.3652   9.8729  17.1797  18.1768  20.0362
    25.7930  29.8491

          k = 0.0000-1.0000 0.0000 (   468 PWs)   bands (ev):

     6.4470   6.5956   9.9104  10.1557  10.1557  14.4814  19.6158  23.7218
    23.7218  29.9839

          k =-0.2500 0.5000 0.0000 (   498 PWs)   bands (ev):

     7.2691   7.4692   8.1819   8.9808   9.1673  10.4434  24.8659  25.1524
    29.3667  32.7604

          k = 0.6250-0.3750 0.8750 (   490 PWs)   bands (ev):

     7.2142   7.7920   8.1279   8.8856   9.6560  12.6121  20.2759  24.7476
    27.1309  32.4134

          k = 0.5000-0.2500 0.7500 (   484 PWs)   bands (ev):

     7.1581   7.6470   8.5296   8.7087   9.8709  15.1665  16.8462  25.3910
    25.5899  31.8782

          k = 0.7500-0.2500 1.0000 (   486 PWs)   bands (ev):

     7.0368   7.0701   8.7051   9.6133   9.7613  13.1003  22.7382  22.8799
    23.8490  32.2513

          k = 0.6250-0.1250 0.8750 (   491 PWs)   bands (ev):

     7.1186   7.4151   8.3697   9.2433   9.9885  16.2327  18.7495  21.7105
    23.5167  32.5744

          k = 0.5000 0.0000 0.7500 (   495 PWs)   bands (ev):

     7.4213   7.7798   7.8432   9.0993   9.7582  15.3276  19.8293  20.8649
    25.0433  33.0701

          k =-0.2500-1.0000 0.0000 (   484 PWs)   bands (ev):

     6.7689   6.9080   9.1961   9.5899  10.1560  15.9719  19.7132  21.9347
    22.2388  32.0676

          k =-0.5000-1.0000 0.0000 (   488 PWs)   bands (ev):

     7.2030   7.8239   7.8239   9.1524  10.1566  18.8548  18.8548  19.9450
    21.0808  36.2766

     the Fermi energy is    12.7137 ev

!    total energy              =     -84.26443079 Ry
     Harris-Foulkes estimate   =     -84.26443079 Ry
     estimated scf accuracy    <          7.7E-10 Ry

     The total energy is the sum of the following terms:

     one-electron contribution =      -4.71077552 Ry
     hartree contribution      =      14.65960222 Ry
     xc contribution           =     -22.35177241 Ry
     ewald contribution        =     -71.86118024 Ry
     smearing contrib. (-TS)   =      -0.00030484 Ry

     convergence has been achieved in   6 iterations

     Forces acting on atoms (cartesian axes, Ry/au):

     atom    1 type  1   force =     0.00000000    0.00000000    0.00000000

     Total force =     0.000000     Total SCF correction =     0.000000


     Computing stress (Cartesian axis) and pressure

          total   stress  (Ry/bohr**3)                   (kbar)     P=   50.86
   0.00034571  -0.00000000  -0.00000000         50.86     -0.00     -0.00
  -0.00000000   0.00034571   0.00000000         -0.00     50.86      0.00
  -0.00000000  -0.00000000   0.00034571         -0.00     -0.00     50.86


     Writing output data file Ag.save/

     init_run     :      0.18s CPU      0.19s WALL (       1 calls)
     electrons    :      1.30s CPU      1.39s WALL (       1 calls)
     forces       :      0.03s CPU      0.03s WALL (       1 calls)
     stress       :      0.07s CPU      0.07s WALL (       1 calls)

     Called by init_run:
     wfcinit      :      0.05s CPU      0.05s WALL (       1 calls)
     potinit      :      0.01s CPU      0.01s WALL (       1 calls)
     hinit0       :      0.12s CPU      0.12s WALL (       1 calls)

     Called by electrons:
     c_bands      :      1.06s CPU      1.13s WALL (       7 calls)
     sum_band     :      0.20s CPU      0.21s WALL (       7 calls)
     v_of_rho     :      0.02s CPU      0.02s WALL (       7 calls)
     newd         :      0.02s CPU      0.03s WALL (       7 calls)
     mix_rho      :      0.00s CPU      0.00s WALL (       7 calls)

     Called by c_bands:
     init_us_2    :      0.03s CPU      0.03s WALL (     493 calls)
     cegterg      :      1.01s CPU      1.08s WALL (     203 calls)

     Called by sum_band:
     sum_band:bec :      0.00s CPU      0.00s WALL (     203 calls)
     addusdens    :      0.03s CPU      0.03s WALL (       7 calls)

     Called by *egterg:
     h_psi        :      0.77s CPU      0.82s WALL (     763 calls)
     s_psi        :      0.02s CPU      0.02s WALL (     763 calls)
     g_psi        :      0.00s CPU      0.00s WALL (     531 calls)
     cdiaghg      :      0.15s CPU      0.15s WALL (     705 calls)

     Called by h_psi:
     h_psi:pot    :      0.76s CPU      0.81s WALL (     763 calls)
     h_psi:calbec :      0.04s CPU      0.04s WALL (     763 calls)
     vloc_psi     :      0.69s CPU      0.74s WALL (     763 calls)
     add_vuspsi   :      0.02s CPU      0.03s WALL (     763 calls)

     General routines
     calbec       :      0.06s CPU      0.06s WALL (    1111 calls)
     fft          :      0.01s CPU      0.02s WALL (     104 calls)
     ffts         :      0.00s CPU      0.00s WALL (       7 calls)
     fftw         :      0.77s CPU      0.82s WALL (   12790 calls)

     Parallel routines
     fft_scatt_xy :      0.07s CPU      0.08s WALL (   12901 calls)
     fft_scatt_yz :      0.22s CPU      0.23s WALL (   12901 calls)

     PWSCF        :     2.33s CPU         2.48s WALL


   This run was terminated on:   0:17:45  27Mar2024            

=------------------------------------------------------------------------------=
   JOB DONE.
=------------------------------------------------------------------------------=
