
     Program PWSCF v.6.3MaX starts on 27Mar2024 at  0:37:43 

     This program is part of the open-source Quantum ESPRESSO suite
     for quantum simulation of materials; please cite
         "P. Giannozzi et al., J. Phys.:Condens. Matter 21 395502 (2009);
         "P. Giannozzi et al., J. Phys.:Condens. Matter 29 465901 (2017);
          URL http://www.quantum-espresso.org", 
     in publications or presentations arising from this work. More details at
     http://www.quantum-espresso.org/quote

     Parallel version (MPI), running on     5 processors

     MPI processes distributed on     1 nodes
     R & G space division:  proc/nbgrp/npool/nimage =       5
     Waiting for input...
     Reading input from standard input

     Current dimensions of program PWSCF are:
     Max number of different atomic species (ntypx) = 10
     Max number of k-points (npk) =  40000
     Max angular momentum in pseudopotentials (lmaxx) =  3
               file Ag.pbesol-n-kjpaw_psl.1.0.0.UPF: wavefunction(s)  5S 5P renormalized

     Subspace diagonalization in iterative solution of the eigenvalue problem:
     a serial algorithm will be used


     Parallelization info
     --------------------
     sticks:   dense  smooth     PW     G-vecs:    dense   smooth      PW
     Min         131     131     39                 2222     2222     381
     Max         134     134     40                 2223     2223     384
     Sum         661     661    199                11113    11113    1917



     bravais-lattice index     =            2
     lattice parameter (alat)  =       7.7200  a.u.
     unit-cell volume          =     115.0249 (a.u.)^3
     number of atoms/cell      =            1
     number of atomic types    =            1
     number of electrons       =        11.00
     number of Kohn-Sham states=           10
     kinetic-energy cutoff     =      80.0000  Ry
     charge density cutoff     =     320.0000  Ry
     convergence threshold     =      1.0E-08
     mixing beta               =       0.7000
     number of iterations used =            8  plain     mixing
     Exchange-correlation      = SLA PW PSX PSC ( 1  4 10  8 0 0)

     celldm(1)=   7.720000  celldm(2)=   0.000000  celldm(3)=   0.000000
     celldm(4)=   0.000000  celldm(5)=   0.000000  celldm(6)=   0.000000

     crystal axes: (cart. coord. in units of alat)
               a(1) = (  -0.500000   0.000000   0.500000 )  
               a(2) = (   0.000000   0.500000   0.500000 )  
               a(3) = (  -0.500000   0.500000   0.000000 )  

     reciprocal axes: (cart. coord. in units 2 pi/alat)
               b(1) = ( -1.000000 -1.000000  1.000000 )  
               b(2) = (  1.000000  1.000000  1.000000 )  
               b(3) = ( -1.000000  1.000000 -1.000000 )  


     PseudoPot. # 1 for Ag read from file:
     /home/lorenzo/pseudos/Ag/Ag.pbesol-n-kjpaw_psl.1.0.0.UPF
     MD5 check sum: 3b245e14fa22881b2ac493bfd23f605f
     Pseudo is Projector augmented-wave + core cor, Zval = 11.0
     Generated using "atomic" code by A. Dal Corso v.6.2.2
     Shape of augmentation charge: PSQ
     Using radial grid of 1237 points,  6 beta functions with: 
                l(1) =   0
                l(2) =   0
                l(3) =   1
                l(4) =   1
                l(5) =   2
                l(6) =   2
     Q(r) pseudized with 0 coefficients 


     atomic species   valence    mass     pseudopotential
        Ag            11.00   107.86820     Ag( 1.00)

     48 Sym. Ops., with inversion, found



   Cartesian axes

     site n.     atom                  positions (alat units)
         1           Ag  tau(   1) = (   0.0000000   0.0000000   0.0000000  )

     number of k points=    16  gaussian smearing, width (Ry)=  0.0100
                       cart. coord. in units 2pi/alat
        k(    1) = (   0.0000000   0.0000000   0.0000000), wk =   0.0092593
        k(    2) = (  -0.1666667   0.1666667  -0.1666667), wk =   0.0740741
        k(    3) = (  -0.3333333   0.3333333  -0.3333333), wk =   0.0740741
        k(    4) = (   0.5000000  -0.5000000   0.5000000), wk =   0.0370370
        k(    5) = (   0.0000000   0.3333333   0.0000000), wk =   0.0555556
        k(    6) = (  -0.1666667   0.5000000  -0.1666667), wk =   0.2222222
        k(    7) = (   0.6666667  -0.3333333   0.6666667), wk =   0.2222222
        k(    8) = (   0.5000000  -0.1666667   0.5000000), wk =   0.2222222
        k(    9) = (   0.3333333   0.0000000   0.3333333), wk =   0.1111111
        k(   10) = (   0.0000000   0.6666667   0.0000000), wk =   0.0555556
        k(   11) = (   0.8333333  -0.1666667   0.8333333), wk =   0.2222222
        k(   12) = (   0.6666667  -0.0000000   0.6666667), wk =   0.1111111
        k(   13) = (   0.0000000  -1.0000000   0.0000000), wk =   0.0277778
        k(   14) = (   0.6666667  -0.3333333   1.0000000), wk =   0.2222222
        k(   15) = (   0.5000000  -0.1666667   0.8333333), wk =   0.2222222
        k(   16) = (  -0.3333333  -1.0000000   0.0000000), wk =   0.1111111

     Dense  grid:    11113 G-vectors     FFT dimensions: (  32,  32,  32)

     Estimated max dynamical RAM per process >      10.79 MB

     Estimated total dynamical RAM >      53.96 MB

     Initial potential from superposition of free atoms

     starting charge   10.99964, renormalised to   11.00000
     Starting wfcs are    9 randomized atomic wfcs +    1 random wfcs
     Checking if some PAW data can be deallocated... 

     total cpu time spent up to now is        1.2 secs

     Self-consistent Calculation

     iteration #  1     ecut=    80.00 Ry     beta= 0.70
     Davidson diagonalization with overlap
     ethr =  1.00E-02,  avg # of iterations =  4.5

     Threshold (ethr) on eigenvalues was too large:
     Diagonalizing with lowered threshold

     Davidson diagonalization with overlap
     ethr =  4.57E-05,  avg # of iterations =  3.1

     total cpu time spent up to now is        1.8 secs

     total energy              =    -350.23317657 Ry
     Harris-Foulkes estimate   =    -350.23680357 Ry
     estimated scf accuracy    <       0.00546475 Ry

     iteration #  2     ecut=    80.00 Ry     beta= 0.70
     Davidson diagonalization with overlap
     ethr =  4.97E-05,  avg # of iterations =  2.0

     total cpu time spent up to now is        2.1 secs

     total energy              =    -350.23472587 Ry
     Harris-Foulkes estimate   =    -350.23673687 Ry
     estimated scf accuracy    <       0.00418435 Ry

     iteration #  3     ecut=    80.00 Ry     beta= 0.70
     Davidson diagonalization with overlap
     ethr =  3.80E-05,  avg # of iterations =  1.6

     total cpu time spent up to now is        2.4 secs

     total energy              =    -350.23552848 Ry
     Harris-Foulkes estimate   =    -350.23551187 Ry
     estimated scf accuracy    <       0.00001471 Ry

     iteration #  4     ecut=    80.00 Ry     beta= 0.70
     Davidson diagonalization with overlap
     ethr =  1.34E-07,  avg # of iterations =  2.9

     total cpu time spent up to now is        2.7 secs

     total energy              =    -350.23553733 Ry
     Harris-Foulkes estimate   =    -350.23553715 Ry
     estimated scf accuracy    <       0.00000052 Ry

     iteration #  5     ecut=    80.00 Ry     beta= 0.70
     Davidson diagonalization with overlap
     ethr =  4.73E-09,  avg # of iterations =  1.4

     total cpu time spent up to now is        3.0 secs

     End of self-consistent calculation

          k = 0.0000 0.0000 0.0000 (  1411 PWs)   bands (ev):

     4.8045   7.9146   7.9146   7.9146   8.9675   8.9675  29.5435  32.8290
    32.8290  32.8290

          k =-0.1667 0.1667-0.1667 (  1399 PWs)   bands (ev):

     5.6036   7.8045   8.0933   8.0933   8.9408   8.9408  27.1155  30.3022
    32.7103  32.7103

          k =-0.3333 0.3333-0.3333 (  1399 PWs)   bands (ev):

     6.3806   8.0293   8.0293   9.2973   9.3927   9.3927  20.6222  29.3129
    31.7174  31.7174

          k = 0.5000-0.5000 0.5000 (  1404 PWs)   bands (ev):

     6.2775   7.8937   7.8937   9.7706   9.7706  12.1888  16.2508  28.5895
    30.8271  30.8271

          k = 0.0000 0.3333 0.0000 (  1383 PWs)   bands (ev):

     5.8740   7.5002   8.3298   8.3298   8.6303   9.1535  29.5817  29.7193
    29.7193  30.2451

          k =-0.1667 0.5000-0.1667 (  1384 PWs)   bands (ev):

     6.7615   7.4957   8.1002   8.4986   9.5172   9.8679  23.2472  28.0517
    28.6990  30.3165

          k = 0.6667-0.3333 0.6667 (  1398 PWs)   bands (ev):

     6.6844   7.6540   8.3111   8.5650   9.7983  13.2238  17.3592  26.3214
    28.1604  29.4186

          k = 0.5000-0.1667 0.5000 (  1398 PWs)   bands (ev):

     6.8358   7.7382   8.2950   8.5014   9.2902  12.1346  19.2034  25.1259
    29.9349  30.5640

          k = 0.3333 0.0000 0.3333 (  1380 PWs)   bands (ev):

     6.6591   7.5278   8.1590   8.4503   8.6006   9.7894  25.3587  25.7060
    32.2699  33.3826

          k = 0.0000 0.6667 0.0000 (  1379 PWs)   bands (ev):

     6.6238   6.7435   9.3384   9.3384   9.5397  10.4366  24.9386  25.3523
    25.3523  29.6841

          k = 0.8333-0.1667 0.8333 (  1386 PWs)   bands (ev):

     6.5709   6.8259   8.9968   9.2583   9.8659  13.9191  20.4975  21.7741
    24.8567  29.6505

          k = 0.6667-0.0000 0.6667 (  1382 PWs)   bands (ev):

     6.9363   7.5137   8.1372   8.9226   9.4888  15.7940  18.4604  20.1904
    26.9528  29.6057

          k = 0.0000-1.0000 0.0000 (  1362 PWs)   bands (ev):

     6.2472   6.3952   9.7405   9.9794   9.9794  14.2109  19.3748  23.4477
    23.4477  29.7427

          k = 0.6667-0.3333 1.0000 (  1392 PWs)   bands (ev):

     7.1708   7.2390   7.8965   9.1608   9.3270  12.4572  22.2651  22.2822
    25.6724  33.4853

          k = 0.5000-0.1667 0.8333 (  1400 PWs)   bands (ev):

     7.2343   7.2801   7.9384   8.8409   9.7314  16.3055  17.0431  22.8803
    23.5172  32.9898

          k =-0.3333-1.0000 0.0000 (  1396 PWs)   bands (ev):

     6.7687   6.9496   8.5180   9.2173   9.9801  16.6051  19.5431  20.6811
    21.4093  33.0687

     the Fermi energy is    12.4879 ev

!    total energy              =    -350.23553735 Ry
     Harris-Foulkes estimate   =    -350.23553735 Ry
     estimated scf accuracy    <          4.7E-09 Ry

     total all-electron energy =    -10627.245946 Ry

     The total energy is the sum of the following terms:

     one-electron contribution =       1.61489252 Ry
     hartree contribution      =      14.56903984 Ry
     xc contribution           =     -22.14321339 Ry
     ewald contribution        =     -71.86118018 Ry
     one-center paw contrib.   =    -272.41447887 Ry
     smearing contrib. (-TS)   =      -0.00059728 Ry

     convergence has been achieved in   5 iterations

     Forces acting on atoms (cartesian axes, Ry/au):

     atom    1 type  1   force =     0.00000000    0.00000000    0.00000000

     Total force =     0.000000     Total SCF correction =     0.000000


     Computing stress (Cartesian axis) and pressure

          total   stress  (Ry/bohr**3)                   (kbar)     P=  -14.70
  -0.00009990   0.00000000   0.00000000        -14.70      0.00      0.00
   0.00000000  -0.00009990   0.00000000          0.00    -14.70      0.00
  -0.00000000  -0.00000000  -0.00009990         -0.00     -0.00    -14.70


     Writing output data file Ag.save/

     init_run     :      0.39s CPU      0.41s WALL (       1 calls)
     electrons    :      1.67s CPU      1.78s WALL (       1 calls)
     forces       :      0.04s CPU      0.04s WALL (       1 calls)
     stress       :      0.15s CPU      0.15s WALL (       1 calls)

     Called by init_run:
     wfcinit      :      0.06s CPU      0.06s WALL (       1 calls)
     potinit      :      0.11s CPU      0.12s WALL (       1 calls)
     hinit0       :      0.19s CPU      0.19s WALL (       1 calls)

     Called by electrons:
     c_bands      :      0.90s CPU      0.97s WALL (       6 calls)
     sum_band     :      0.22s CPU      0.24s WALL (       6 calls)
     v_of_rho     :      0.04s CPU      0.04s WALL (       6 calls)
     newd         :      0.07s CPU      0.07s WALL (       6 calls)
     PAW_pot      :      0.56s CPU      0.59s WALL (       6 calls)
     mix_rho      :      0.00s CPU      0.00s WALL (       6 calls)

     Called by c_bands:
     init_us_2    :      0.04s CPU      0.04s WALL (     240 calls)
     cegterg      :      0.85s CPU      0.93s WALL (      96 calls)

     Called by sum_band:
     sum_band:bec :      0.00s CPU      0.00s WALL (      96 calls)
     addusdens    :      0.06s CPU      0.06s WALL (       6 calls)

     Called by *egterg:
     h_psi        :      0.69s CPU      0.75s WALL (     361 calls)
     s_psi        :      0.03s CPU      0.03s WALL (     361 calls)
     g_psi        :      0.00s CPU      0.00s WALL (     249 calls)
     cdiaghg      :      0.07s CPU      0.07s WALL (     329 calls)

     Called by h_psi:
     h_psi:pot    :      0.68s CPU      0.75s WALL (     361 calls)
     h_psi:calbec :      0.04s CPU      0.04s WALL (     361 calls)
     vloc_psi     :      0.62s CPU      0.68s WALL (     361 calls)
     add_vuspsi   :      0.03s CPU      0.03s WALL (     361 calls)

     General routines
     calbec       :      0.06s CPU      0.07s WALL (     537 calls)
     fft          :      0.02s CPU      0.03s WALL (      93 calls)
     ffts         :      0.00s CPU      0.00s WALL (       6 calls)
     fftw         :      0.68s CPU      0.75s WALL (    5976 calls)

     Parallel routines
     fft_scatt_xy :      0.07s CPU      0.08s WALL (    6075 calls)
     fft_scatt_yz :      0.21s CPU      0.23s WALL (    6075 calls)

     PWSCF        :     3.08s CPU         3.27s WALL


   This run was terminated on:   0:37:46  27Mar2024            

=------------------------------------------------------------------------------=
   JOB DONE.
=------------------------------------------------------------------------------=
