
     Program PWSCF v.6.3MaX starts on 27Mar2024 at  0:13:50 

     This program is part of the open-source Quantum ESPRESSO suite
     for quantum simulation of materials; please cite
         "P. Giannozzi et al., J. Phys.:Condens. Matter 21 395502 (2009);
         "P. Giannozzi et al., J. Phys.:Condens. Matter 29 465901 (2017);
          URL http://www.quantum-espresso.org", 
     in publications or presentations arising from this work. More details at
     http://www.quantum-espresso.org/quote

     Parallel version (MPI), running on     5 processors

     MPI processes distributed on     1 nodes
     R & G space division:  proc/nbgrp/npool/nimage =       5
     Waiting for input...
     Reading input from standard input

     Current dimensions of program PWSCF are:
     Max number of different atomic species (ntypx) = 10
     Max number of k-points (npk) =  40000
     Max angular momentum in pseudopotentials (lmaxx) =  3
               file Ag.pbesol-n-kjpaw_psl.1.0.0.UPF: wavefunction(s)  5S 5P renormalized

     Subspace diagonalization in iterative solution of the eigenvalue problem:
     a serial algorithm will be used


     Parallelization info
     --------------------
     sticks:   dense  smooth     PW     G-vecs:    dense   smooth      PW
     Min          50      50     17                  527      527     107
     Max          51      51     17                  528      528     108
     Sum         253     253     85                 2637     2637     537



     bravais-lattice index     =            2
     lattice parameter (alat)  =       7.7200  a.u.
     unit-cell volume          =     115.0249 (a.u.)^3
     number of atoms/cell      =            1
     number of atomic types    =            1
     number of electrons       =        11.00
     number of Kohn-Sham states=           10
     kinetic-energy cutoff     =      30.0000  Ry
     charge density cutoff     =     120.0000  Ry
     convergence threshold     =      1.0E-08
     mixing beta               =       0.7000
     number of iterations used =            8  plain     mixing
     Exchange-correlation      = SLA PW PSX PSC ( 1  4 10  8 0 0)

     celldm(1)=   7.720000  celldm(2)=   0.000000  celldm(3)=   0.000000
     celldm(4)=   0.000000  celldm(5)=   0.000000  celldm(6)=   0.000000

     crystal axes: (cart. coord. in units of alat)
               a(1) = (  -0.500000   0.000000   0.500000 )  
               a(2) = (   0.000000   0.500000   0.500000 )  
               a(3) = (  -0.500000   0.500000   0.000000 )  

     reciprocal axes: (cart. coord. in units 2 pi/alat)
               b(1) = ( -1.000000 -1.000000  1.000000 )  
               b(2) = (  1.000000  1.000000  1.000000 )  
               b(3) = ( -1.000000  1.000000 -1.000000 )  


     PseudoPot. # 1 for Ag read from file:
     /home/lorenzo/pseudos/Ag/Ag.pbesol-n-kjpaw_psl.1.0.0.UPF
     MD5 check sum: 3b245e14fa22881b2ac493bfd23f605f
     Pseudo is Projector augmented-wave + core cor, Zval = 11.0
     Generated using "atomic" code by A. Dal Corso v.6.2.2
     Shape of augmentation charge: PSQ
     Using radial grid of 1237 points,  6 beta functions with: 
                l(1) =   0
                l(2) =   0
                l(3) =   1
                l(4) =   1
                l(5) =   2
                l(6) =   2
     Q(r) pseudized with 0 coefficients 


     atomic species   valence    mass     pseudopotential
        Ag            11.00   107.86820     Ag( 1.00)

     48 Sym. Ops., with inversion, found



   Cartesian axes

     site n.     atom                  positions (alat units)
         1           Ag  tau(   1) = (   0.0000000   0.0000000   0.0000000  )

     number of k points=    35  gaussian smearing, width (Ry)=  0.0100
                       cart. coord. in units 2pi/alat
        k(    1) = (   0.0000000   0.0000000   0.0000000), wk =   0.0027435
        k(    2) = (  -0.1111111   0.1111111  -0.1111111), wk =   0.0219479
        k(    3) = (  -0.2222222   0.2222222  -0.2222222), wk =   0.0219479
        k(    4) = (  -0.3333333   0.3333333  -0.3333333), wk =   0.0219479
        k(    5) = (  -0.4444444   0.4444444  -0.4444444), wk =   0.0219479
        k(    6) = (   0.0000000   0.2222222   0.0000000), wk =   0.0164609
        k(    7) = (  -0.1111111   0.3333333  -0.1111111), wk =   0.0658436
        k(    8) = (  -0.2222222   0.4444444  -0.2222222), wk =   0.0658436
        k(    9) = (  -0.3333333   0.5555556  -0.3333333), wk =   0.0658436
        k(   10) = (   0.5555556  -0.3333333   0.5555556), wk =   0.0658436
        k(   11) = (   0.4444444  -0.2222222   0.4444444), wk =   0.0658436
        k(   12) = (   0.3333333  -0.1111111   0.3333333), wk =   0.0658436
        k(   13) = (   0.2222222  -0.0000000   0.2222222), wk =   0.0329218
        k(   14) = (   0.0000000   0.4444444   0.0000000), wk =   0.0164609
        k(   15) = (  -0.1111111   0.5555556  -0.1111111), wk =   0.0658436
        k(   16) = (  -0.2222222   0.6666667  -0.2222222), wk =   0.0658436
        k(   17) = (   0.6666667  -0.2222222   0.6666667), wk =   0.0658436
        k(   18) = (   0.5555556  -0.1111111   0.5555556), wk =   0.0658436
        k(   19) = (   0.4444444   0.0000000   0.4444444), wk =   0.0329218
        k(   20) = (   0.0000000   0.6666667   0.0000000), wk =   0.0164609
        k(   21) = (  -0.1111111   0.7777778  -0.1111111), wk =   0.0658436
        k(   22) = (   0.7777778  -0.1111111   0.7777778), wk =   0.0658436
        k(   23) = (   0.6666667  -0.0000000   0.6666667), wk =   0.0329218
        k(   24) = (   0.0000000   0.8888889   0.0000000), wk =   0.0164609
        k(   25) = (   0.8888889   0.0000000   0.8888889), wk =   0.0329218
        k(   26) = (  -0.2222222   0.4444444   0.0000000), wk =   0.0658436
        k(   27) = (  -0.3333333   0.5555556  -0.1111111), wk =   0.1316872
        k(   28) = (   0.5555556  -0.3333333   0.7777778), wk =   0.1316872
        k(   29) = (  -0.2222222   0.6666667   0.0000000), wk =   0.0658436
        k(   30) = (   0.6666667  -0.2222222   0.8888889), wk =   0.1316872
        k(   31) = (   0.5555556  -0.1111111   0.7777778), wk =   0.1316872
        k(   32) = (   0.4444444   0.0000000   0.6666667), wk =   0.0658436
        k(   33) = (   0.7777778  -0.1111111   1.0000000), wk =   0.0658436
        k(   34) = (   0.6666667  -0.0000000   0.8888889), wk =   0.0658436
        k(   35) = (   0.5555556  -0.1111111   1.0000000), wk =   0.0658436

     Dense  grid:     2637 G-vectors     FFT dimensions: (  20,  20,  20)

     Estimated max dynamical RAM per process >       3.39 MB

     Estimated total dynamical RAM >      16.96 MB

     Initial potential from superposition of free atoms

     starting charge   10.99964, renormalised to   11.00000
     Starting wfcs are    9 randomized atomic wfcs +    1 random wfcs
     Checking if some PAW data can be deallocated... 

     total cpu time spent up to now is        1.1 secs

     Self-consistent Calculation

     iteration #  1     ecut=    30.00 Ry     beta= 0.70
     Davidson diagonalization with overlap
     ethr =  1.00E-02,  avg # of iterations =  4.6

     Threshold (ethr) on eigenvalues was too large:
     Diagonalizing with lowered threshold

     Davidson diagonalization with overlap
     ethr =  1.41E-04,  avg # of iterations =  1.5

     total cpu time spent up to now is        1.6 secs

     total energy              =    -350.13622467 Ry
     Harris-Foulkes estimate   =    -350.14787823 Ry
     estimated scf accuracy    <       0.01633068 Ry

     iteration #  2     ecut=    30.00 Ry     beta= 0.70
     Davidson diagonalization with overlap
     ethr =  1.48E-04,  avg # of iterations =  2.0

     total cpu time spent up to now is        1.9 secs

     total energy              =    -350.14201159 Ry
     Harris-Foulkes estimate   =    -350.14823928 Ry
     estimated scf accuracy    <       0.01350925 Ry

     iteration #  3     ecut=    30.00 Ry     beta= 0.70
     Davidson diagonalization with overlap
     ethr =  1.23E-04,  avg # of iterations =  1.4

     total cpu time spent up to now is        2.1 secs

     total energy              =    -350.14435643 Ry
     Harris-Foulkes estimate   =    -350.14428762 Ry
     estimated scf accuracy    <       0.00007724 Ry

     iteration #  4     ecut=    30.00 Ry     beta= 0.70
     Davidson diagonalization with overlap
     ethr =  7.02E-07,  avg # of iterations =  3.0

     total cpu time spent up to now is        2.5 secs

     total energy              =    -350.14440225 Ry
     Harris-Foulkes estimate   =    -350.14440256 Ry
     estimated scf accuracy    <       0.00000406 Ry

     iteration #  5     ecut=    30.00 Ry     beta= 0.70
     Davidson diagonalization with overlap
     ethr =  3.69E-08,  avg # of iterations =  1.1

     total cpu time spent up to now is        2.8 secs

     total energy              =    -350.14440126 Ry
     Harris-Foulkes estimate   =    -350.14440231 Ry
     estimated scf accuracy    <       0.00000278 Ry

     iteration #  6     ecut=    30.00 Ry     beta= 0.70
     Davidson diagonalization with overlap
     ethr =  2.53E-08,  avg # of iterations =  1.1

     total cpu time spent up to now is        3.1 secs

     total energy              =    -350.14440170 Ry
     Harris-Foulkes estimate   =    -350.14440172 Ry
     estimated scf accuracy    <       0.00000017 Ry

     iteration #  7     ecut=    30.00 Ry     beta= 0.70
     Davidson diagonalization with overlap
     ethr =  1.58E-09,  avg # of iterations =  1.0

     total cpu time spent up to now is        3.4 secs

     total energy              =    -350.14440168 Ry
     Harris-Foulkes estimate   =    -350.14440170 Ry
     estimated scf accuracy    <       0.00000011 Ry

     iteration #  8     ecut=    30.00 Ry     beta= 0.70
     Davidson diagonalization with overlap
     ethr =  9.62E-10,  avg # of iterations =  1.0

     total cpu time spent up to now is        3.6 secs

     total energy              =    -350.14440166 Ry
     Harris-Foulkes estimate   =    -350.14440168 Ry
     estimated scf accuracy    <       0.00000004 Ry

     iteration #  9     ecut=    30.00 Ry     beta= 0.70
     Davidson diagonalization with overlap
     ethr =  4.06E-10,  avg # of iterations =  2.0

     total cpu time spent up to now is        3.9 secs

     End of self-consistent calculation

          k = 0.0000 0.0000 0.0000 (   331 PWs)   bands (ev):

     4.7996   7.8214   7.8214   7.8214   8.8584   8.8584  29.5592  32.8171
    32.8171  32.8171

          k =-0.1111 0.1111-0.1111 (   319 PWs)   bands (ev):

     5.1754   7.8017   7.9431   7.9431   8.8758   8.8758  28.9756  30.5756
    32.7864  32.7864

          k =-0.2222 0.2222-0.2222 (   314 PWs)   bands (ev):

     6.0389   7.8779   8.0769   8.0769   8.9980   8.9980  24.9304  30.1351
    32.5058  32.5058

          k =-0.3333 0.3333-0.3333 (   308 PWs)   bands (ev):

     6.3519   7.9979   7.9979   9.2762   9.4255   9.4255  20.6109  29.3312
    31.6997  31.6997

          k =-0.4444 0.4444-0.4444 (   320 PWs)   bands (ev):

     6.2816   7.8608   7.8608   9.6754   9.6754  11.5722  17.0141  28.6935
    30.9114  30.9114

          k = 0.0000 0.2222 0.0000 (   327 PWs)   bands (ev):

     5.3018   7.6304   8.0274   8.0274   8.7109   8.9490  29.5736  31.2040
    31.2040  31.2283

          k =-0.1111 0.3333-0.1111 (   317 PWs)   bands (ev):

     6.0467   7.5057   8.1755   8.2360   8.7716   9.1285  26.6607  29.8558
    30.0218  32.5758

          k =-0.2222 0.4444-0.2222 (   324 PWs)   bands (ev):

     6.5569   7.9433   7.9568   8.1916   9.4347   9.7044  22.2384  29.2005
    29.2341  31.3859

          k =-0.3333 0.5556-0.3333 (   320 PWs)   bands (ev):

     6.4895   7.7558   8.0821   8.8079   9.7142  11.6964  18.2320  28.2438
    29.0813  29.9146

          k = 0.5556-0.3333 0.5556 (   324 PWs)   bands (ev):

     6.4630   7.7055   8.0194   9.1124   9.6398  13.0490  16.4216  27.4030
    29.4719  29.8580

          k = 0.4444-0.2222 0.4444 (   317 PWs)   bands (ev):

     6.5612   7.8403   8.0793   8.7678   9.3160  11.0763  19.5124  27.1220
    30.0855  31.6975

          k = 0.3333-0.1111 0.3333 (   315 PWs)   bands (ev):

     6.5429   7.7282   8.1239   8.2311   8.7973   9.7163  23.7200  27.4169
    31.5884  34.2400

          k = 0.2222-0.0000 0.2222 (   317 PWs)   bands (ev):

     5.7517   7.6414   8.0916   8.1166   8.7066   9.0835  28.0824  28.1045
    32.1429  34.4240

          k = 0.0000 0.4444 0.0000 (   311 PWs)   bands (ev):

     6.4436   7.1975   8.6204   8.6204   8.6316   9.2395  28.1406  28.1406
    29.2605  29.6489

          k =-0.1111 0.5556-0.1111 (   320 PWs)   bands (ev):

     6.7733   7.0713   8.3824   8.7451   9.4671   9.8963  24.2861  26.9551
    27.5895  29.9168

          k =-0.2222 0.6667-0.2222 (   318 PWs)   bands (ev):

     6.7284   7.3700   8.2561   8.6480   9.7559  12.1381  20.1107  25.5485
    26.6766  29.5939

          k = 0.6667-0.2222 0.6667 (   320 PWs)   bands (ev):

     6.8017   7.4934   8.3297   8.5012   9.6774  14.8330  16.7521  23.9823
    27.4674  29.4645

          k = 0.5556-0.1111 0.5556 (   324 PWs)   bands (ev):

     7.0138   7.5676   8.1709   8.4497   9.2632  13.2275  19.0153  23.1200
    29.2839  29.8055

          k = 0.4444 0.0000 0.4444 (   319 PWs)   bands (ev):

     7.2290   7.4717   7.9594   8.5323   8.7439  11.1112  22.9921  23.1722
    30.7475  31.8255

          k = 0.0000 0.6667 0.0000 (   323 PWs)   bands (ev):

     6.5750   6.6854   9.2786   9.2786   9.4752  10.4079  24.9266  25.3288
    25.3288  29.7174

          k =-0.1111 0.7778-0.1111 (   324 PWs)   bands (ev):

     6.5028   6.6491   9.1589   9.2767   9.7509  12.5222  22.1940  22.8049
    24.6987  29.7286

          k = 0.7778-0.1111 0.7778 (   317 PWs)   bands (ev):

     6.6098   6.9910   8.7267   9.1221   9.7754  15.4236  18.7992  20.9335
    25.2706  29.6328

          k = 0.6667-0.0000 0.6667 (   323 PWs)   bands (ev):

     6.8838   7.4857   8.0915   8.8792   9.4388  15.7825  18.4405  20.1730
    26.9338  29.6248

          k = 0.0000 0.8889 0.0000 (   322 PWs)   bands (ev):

     6.2571   6.3770   9.6581   9.8549   9.8549  13.4045  20.3447  23.6496
    23.6496  29.7685

          k = 0.8889 0.0000 0.8889 (   318 PWs)   bands (ev):

     6.3354   6.4867   9.5469   9.5557   9.9157  14.8677  19.4009  21.7082
    23.8592  29.7590

          k =-0.2222 0.4444 0.0000 (   319 PWs)   bands (ev):

     6.7603   7.2933   8.0432   8.5901   8.8352   9.7178  25.5115  25.8263
    30.2611  32.2107

          k =-0.3333 0.5556-0.1111 (   318 PWs)   bands (ev):

     6.9268   7.6881   7.7887   8.5876   9.3028  11.2417  21.3309  25.2201
    28.2015  32.1645

          k = 0.5556-0.3333 0.7778 (   320 PWs)   bands (ev):

     6.8194   7.5169   8.3026   8.4738   9.6120  13.6102  17.5332  25.4872
    26.5356  31.3473

          k =-0.2222 0.6667 0.0000 (   324 PWs)   bands (ev):

     6.8764   6.8777   8.3457   9.2688   9.3451  11.5508  23.4195  23.5940
    25.2608  31.7476

          k = 0.6667-0.2222 0.8889 (   324 PWs)   bands (ev):

     6.8596   7.1599   8.1528   9.0260   9.6601  14.0722  19.5984  23.1440
    23.7748  31.8770

          k = 0.5556-0.1111 0.7778 (   314 PWs)   bands (ev):

     7.0605   7.3990   7.9681   8.8267   9.6627  16.1019  17.3966  21.8385
    24.6659  32.0783

          k = 0.4444 0.0000 0.6667 (   320 PWs)   bands (ev):

     7.3839   7.4414   7.5599   8.8801   9.2981  13.4016  20.9000  21.3313
    26.2662  32.8425

          k = 0.7778-0.1111 1.0000 (   322 PWs)   bands (ev):

     6.5284   6.6244   8.9915   9.4716   9.8383  14.5462  20.4844  22.1592
    22.3741  31.5061

          k = 0.6667-0.0000 0.8889 (   319 PWs)   bands (ev):

     6.7212   7.0126   8.4571   9.1501   9.8672  16.8266  18.8826  19.8139
    23.1014  31.8833

          k = 0.5556-0.1111 1.0000 (   317 PWs)   bands (ev):

     6.9995   7.3624   7.8207   8.9888   9.8695  16.6544  19.4825  20.3450
    21.7428  35.0819

     the Fermi energy is    12.9011 ev

!    total energy              =    -350.14440167 Ry
     Harris-Foulkes estimate   =    -350.14440167 Ry
     estimated scf accuracy    <          2.8E-09 Ry

     total all-electron energy =    -10627.154810 Ry

     The total energy is the sum of the following terms:

     one-electron contribution =       1.74325294 Ry
     hartree contribution      =      14.45275326 Ry
     xc contribution           =     -22.12144563 Ry
     ewald contribution        =     -71.86118020 Ry
     one-center paw contrib.   =    -272.35772432 Ry
     smearing contrib. (-TS)   =      -0.00005771 Ry

     convergence has been achieved in   9 iterations

     Forces acting on atoms (cartesian axes, Ry/au):

     atom    1 type  1   force =     0.00000000    0.00000000    0.00000000

     Total force =     0.000000     Total SCF correction =     0.000000


     Computing stress (Cartesian axis) and pressure

          total   stress  (Ry/bohr**3)                   (kbar)     P= -881.17
  -0.00599009   0.00000000   0.00000000       -881.17      0.00      0.00
   0.00000000  -0.00599009  -0.00000000          0.00   -881.17     -0.00
   0.00000000  -0.00000000  -0.00599009          0.00     -0.00   -881.17


     Writing output data file Ag.save/

     init_run     :      0.26s CPU      0.29s WALL (       1 calls)
     electrons    :      2.54s CPU      2.82s WALL (       1 calls)
     forces       :      0.02s CPU      0.02s WALL (       1 calls)
     stress       :      0.06s CPU      0.06s WALL (       1 calls)

     Called by init_run:
     wfcinit      :      0.04s CPU      0.05s WALL (       1 calls)
     potinit      :      0.09s CPU      0.11s WALL (       1 calls)
     hinit0       :      0.11s CPU      0.11s WALL (       1 calls)

     Called by electrons:
     c_bands      :      1.29s CPU      1.40s WALL (      10 calls)
     sum_band     :      0.24s CPU      0.26s WALL (      10 calls)
     v_of_rho     :      0.02s CPU      0.02s WALL (      10 calls)
     newd         :      0.03s CPU      0.03s WALL (      10 calls)
     PAW_pot      :      1.04s CPU      1.20s WALL (      10 calls)
     mix_rho      :      0.00s CPU      0.00s WALL (      10 calls)

     Called by c_bands:
     init_us_2    :      0.04s CPU      0.04s WALL (     805 calls)
     cegterg      :      1.23s CPU      1.34s WALL (     350 calls)

     Called by sum_band:
     sum_band:bec :      0.00s CPU      0.00s WALL (     350 calls)
     addusdens    :      0.02s CPU      0.03s WALL (      10 calls)

     Called by *egterg:
     h_psi        :      0.92s CPU      1.00s WALL (    1041 calls)
     s_psi        :      0.03s CPU      0.03s WALL (    1041 calls)
     g_psi        :      0.00s CPU      0.00s WALL (     656 calls)
     cdiaghg      :      0.17s CPU      0.19s WALL (     971 calls)

     Called by h_psi:
     h_psi:pot    :      0.91s CPU      1.00s WALL (    1041 calls)
     h_psi:calbec :      0.05s CPU      0.05s WALL (    1041 calls)
     vloc_psi     :      0.83s CPU      0.91s WALL (    1041 calls)
     add_vuspsi   :      0.03s CPU      0.03s WALL (    1041 calls)

     General routines
     calbec       :      0.07s CPU      0.08s WALL (    1566 calls)
     fft          :      0.01s CPU      0.01s WALL (     137 calls)
     ffts         :      0.00s CPU      0.00s WALL (      10 calls)
     fftw         :      0.92s CPU      1.01s WALL (   20246 calls)

     Parallel routines
     fft_scatt_xy :      0.08s CPU      0.09s WALL (   20393 calls)
     fft_scatt_yz :      0.34s CPU      0.37s WALL (   20393 calls)

     PWSCF        :     3.71s CPU         4.09s WALL


   This run was terminated on:   0:13:54  27Mar2024            

=------------------------------------------------------------------------------=
   JOB DONE.
=------------------------------------------------------------------------------=
