
     Program PWSCF v.6.3MaX starts on 27Mar2024 at  0:20: 4 

     This program is part of the open-source Quantum ESPRESSO suite
     for quantum simulation of materials; please cite
         "P. Giannozzi et al., J. Phys.:Condens. Matter 21 395502 (2009);
         "P. Giannozzi et al., J. Phys.:Condens. Matter 29 465901 (2017);
          URL http://www.quantum-espresso.org", 
     in publications or presentations arising from this work. More details at
     http://www.quantum-espresso.org/quote

     Parallel version (MPI), running on     5 processors

     MPI processes distributed on     1 nodes
     R & G space division:  proc/nbgrp/npool/nimage =       5
     Waiting for input...
     Reading input from standard input

     Current dimensions of program PWSCF are:
     Max number of different atomic species (ntypx) = 10
     Max number of k-points (npk) =  40000
     Max angular momentum in pseudopotentials (lmaxx) =  3

     Subspace diagonalization in iterative solution of the eigenvalue problem:
     a serial algorithm will be used


     Parallelization info
     --------------------
     sticks:   dense  smooth     PW     G-vecs:    dense   smooth      PW
     Min          73      73     24                  928      928     178
     Max          74      74     25                  930      930     181
     Sum         367     367    121                 4645     4645     893



     bravais-lattice index     =            2
     lattice parameter (alat)  =       7.7200  a.u.
     unit-cell volume          =     115.0249 (a.u.)^3
     number of atoms/cell      =            1
     number of atomic types    =            1
     number of electrons       =        11.00
     number of Kohn-Sham states=           10
     kinetic-energy cutoff     =      45.0000  Ry
     charge density cutoff     =     180.0000  Ry
     convergence threshold     =      1.0E-08
     mixing beta               =       0.7000
     number of iterations used =            8  plain     mixing
     Exchange-correlation      = PBE ( 1  4  3  4 0 0)

     celldm(1)=   7.720000  celldm(2)=   0.000000  celldm(3)=   0.000000
     celldm(4)=   0.000000  celldm(5)=   0.000000  celldm(6)=   0.000000

     crystal axes: (cart. coord. in units of alat)
               a(1) = (  -0.500000   0.000000   0.500000 )  
               a(2) = (   0.000000   0.500000   0.500000 )  
               a(3) = (  -0.500000   0.500000   0.000000 )  

     reciprocal axes: (cart. coord. in units 2 pi/alat)
               b(1) = ( -1.000000 -1.000000  1.000000 )  
               b(2) = (  1.000000  1.000000  1.000000 )  
               b(3) = ( -1.000000  1.000000 -1.000000 )  


     PseudoPot. # 1 for Ag read from file:
     /home/lorenzo/pseudos/Ag/Ag.pbe-n-rrkjus_psl.1.0.0.UPF
     MD5 check sum: d841cbfac2b0861aec33b46768a516bf
     Pseudo is Ultrasoft + core correction, Zval = 11.0
     Generated using "atomic" code by A. Dal Corso v.6.2.2
     Using radial grid of 1237 points,  6 beta functions with: 
                l(1) =   0
                l(2) =   0
                l(3) =   1
                l(4) =   1
                l(5) =   2
                l(6) =   2
     Q(r) pseudized with 0 coefficients 


     atomic species   valence    mass     pseudopotential
        Ag            11.00   107.86820     Ag( 1.00)

     48 Sym. Ops., with inversion, found



   Cartesian axes

     site n.     atom                  positions (alat units)
         1           Ag  tau(   1) = (   0.0000000   0.0000000   0.0000000  )

     number of k points=    35  gaussian smearing, width (Ry)=  0.0100
                       cart. coord. in units 2pi/alat
        k(    1) = (   0.0000000   0.0000000   0.0000000), wk =   0.0027435
        k(    2) = (  -0.1111111   0.1111111  -0.1111111), wk =   0.0219479
        k(    3) = (  -0.2222222   0.2222222  -0.2222222), wk =   0.0219479
        k(    4) = (  -0.3333333   0.3333333  -0.3333333), wk =   0.0219479
        k(    5) = (  -0.4444444   0.4444444  -0.4444444), wk =   0.0219479
        k(    6) = (   0.0000000   0.2222222   0.0000000), wk =   0.0164609
        k(    7) = (  -0.1111111   0.3333333  -0.1111111), wk =   0.0658436
        k(    8) = (  -0.2222222   0.4444444  -0.2222222), wk =   0.0658436
        k(    9) = (  -0.3333333   0.5555556  -0.3333333), wk =   0.0658436
        k(   10) = (   0.5555556  -0.3333333   0.5555556), wk =   0.0658436
        k(   11) = (   0.4444444  -0.2222222   0.4444444), wk =   0.0658436
        k(   12) = (   0.3333333  -0.1111111   0.3333333), wk =   0.0658436
        k(   13) = (   0.2222222  -0.0000000   0.2222222), wk =   0.0329218
        k(   14) = (   0.0000000   0.4444444   0.0000000), wk =   0.0164609
        k(   15) = (  -0.1111111   0.5555556  -0.1111111), wk =   0.0658436
        k(   16) = (  -0.2222222   0.6666667  -0.2222222), wk =   0.0658436
        k(   17) = (   0.6666667  -0.2222222   0.6666667), wk =   0.0658436
        k(   18) = (   0.5555556  -0.1111111   0.5555556), wk =   0.0658436
        k(   19) = (   0.4444444   0.0000000   0.4444444), wk =   0.0329218
        k(   20) = (   0.0000000   0.6666667   0.0000000), wk =   0.0164609
        k(   21) = (  -0.1111111   0.7777778  -0.1111111), wk =   0.0658436
        k(   22) = (   0.7777778  -0.1111111   0.7777778), wk =   0.0658436
        k(   23) = (   0.6666667  -0.0000000   0.6666667), wk =   0.0329218
        k(   24) = (   0.0000000   0.8888889   0.0000000), wk =   0.0164609
        k(   25) = (   0.8888889   0.0000000   0.8888889), wk =   0.0329218
        k(   26) = (  -0.2222222   0.4444444   0.0000000), wk =   0.0658436
        k(   27) = (  -0.3333333   0.5555556  -0.1111111), wk =   0.1316872
        k(   28) = (   0.5555556  -0.3333333   0.7777778), wk =   0.1316872
        k(   29) = (  -0.2222222   0.6666667   0.0000000), wk =   0.0658436
        k(   30) = (   0.6666667  -0.2222222   0.8888889), wk =   0.1316872
        k(   31) = (   0.5555556  -0.1111111   0.7777778), wk =   0.1316872
        k(   32) = (   0.4444444   0.0000000   0.6666667), wk =   0.0658436
        k(   33) = (   0.7777778  -0.1111111   1.0000000), wk =   0.0658436
        k(   34) = (   0.6666667  -0.0000000   0.8888889), wk =   0.0658436
        k(   35) = (   0.5555556  -0.1111111   1.0000000), wk =   0.0658436

     Dense  grid:     4645 G-vectors     FFT dimensions: (  24,  24,  24)

     Estimated max dynamical RAM per process >       5.44 MB

     Estimated total dynamical RAM >      27.18 MB

     Initial potential from superposition of free atoms

     starting charge   10.99960, renormalised to   11.00000
     Starting wfcs are    9 randomized atomic wfcs +    1 random wfcs

     total cpu time spent up to now is        1.0 secs

     Self-consistent Calculation

     iteration #  1     ecut=    45.00 Ry     beta= 0.70
     Davidson diagonalization with overlap
     ethr =  1.00E-02,  avg # of iterations =  4.5

     Threshold (ethr) on eigenvalues was too large:
     Diagonalizing with lowered threshold

     Davidson diagonalization with overlap
     ethr =  2.51E-05,  avg # of iterations =  2.4

     total cpu time spent up to now is        1.5 secs

     total energy              =     -84.26719050 Ry
     Harris-Foulkes estimate   =     -84.26875148 Ry
     estimated scf accuracy    <       0.00305160 Ry

     iteration #  2     ecut=    45.00 Ry     beta= 0.70
     Davidson diagonalization with overlap
     ethr =  2.77E-05,  avg # of iterations =  2.1

     total cpu time spent up to now is        1.8 secs

     total energy              =     -84.26781852 Ry
     Harris-Foulkes estimate   =     -84.26879899 Ry
     estimated scf accuracy    <       0.00179789 Ry

     iteration #  3     ecut=    45.00 Ry     beta= 0.70
     Davidson diagonalization with overlap
     ethr =  1.63E-05,  avg # of iterations =  2.0

     total cpu time spent up to now is        2.0 secs

     total energy              =     -84.26825218 Ry
     Harris-Foulkes estimate   =     -84.26824950 Ry
     estimated scf accuracy    <       0.00003404 Ry

     iteration #  4     ecut=    45.00 Ry     beta= 0.70
     Davidson diagonalization with overlap
     ethr =  3.09E-07,  avg # of iterations =  2.1

     total cpu time spent up to now is        2.2 secs

     total energy              =     -84.26825822 Ry
     Harris-Foulkes estimate   =     -84.26825808 Ry
     estimated scf accuracy    <       0.00000018 Ry

     iteration #  5     ecut=    45.00 Ry     beta= 0.70
     Davidson diagonalization with overlap
     ethr =  1.64E-09,  avg # of iterations =  2.7

     total cpu time spent up to now is        2.5 secs

     total energy              =     -84.26825833 Ry
     Harris-Foulkes estimate   =     -84.26825836 Ry
     estimated scf accuracy    <       0.00000006 Ry

     iteration #  6     ecut=    45.00 Ry     beta= 0.70
     Davidson diagonalization with overlap
     ethr =  5.90E-10,  avg # of iterations =  2.1

     total cpu time spent up to now is        2.7 secs

     End of self-consistent calculation

          k = 0.0000 0.0000 0.0000 (   561 PWs)   bands (ev):

     5.0699   8.0960   8.0960   8.0960   9.1319   9.1319  29.8021  33.0937
    33.0937  33.0937

          k =-0.1111 0.1111-0.1111 (   576 PWs)   bands (ev):

     5.4462   8.0203   8.1943   8.1943   9.1012   9.1012  29.2141  30.8329
    33.0604  33.0604

          k =-0.2222 0.2222-0.2222 (   582 PWs)   bands (ev):

     6.3058   8.1218   8.3059   8.3059   9.1862   9.1862  25.1884  30.3705
    32.7745  32.7745

          k =-0.3333 0.3333-0.3333 (   589 PWs)   bands (ev):

     6.5974   8.2059   8.2059   9.5368   9.5583   9.5583  20.8687  29.5673
    31.9881  31.9881

          k =-0.4444 0.4444-0.4444 (   592 PWs)   bands (ev):

     6.5033   8.0880   8.0880   9.8855   9.8855  11.8447  17.2522  28.9323
    31.2216  31.2216

          k = 0.0000 0.2222 0.0000 (   569 PWs)   bands (ev):

     5.5729   7.9005   8.2835   8.2835   8.9470   9.2177  29.8131  31.4784
    31.4802  31.4802

          k =-0.1111 0.3333-0.1111 (   580 PWs)   bands (ev):

     6.3161   7.7464   8.4039   8.4622   8.9939   9.3388  26.9152  30.0856
    30.2913  32.8165

          k =-0.2222 0.4444-0.2222 (   592 PWs)   bands (ev):

     6.8179   8.1893   8.1956   8.4428   9.6500   9.9486  22.5055  29.4306
    29.5218  31.6619

          k =-0.3333 0.5556-0.3333 (   588 PWs)   bands (ev):

     6.7322   7.9897   8.3092   9.0044   9.9247  11.9491  18.4907  28.4807
    29.3721  30.1922

          k = 0.5556-0.3333 0.5556 (   583 PWs)   bands (ev):

     6.6976   7.9481   8.2414   9.3376   9.8702  13.3180  16.6706  27.6599
    29.7432  30.1525

          k = 0.4444-0.2222 0.4444 (   588 PWs)   bands (ev):

     6.8062   8.0610   8.3065   8.9967   9.4749  11.3231  19.7735  27.3746
    30.3514  31.9835

          k = 0.3333-0.1111 0.3333 (   587 PWs)   bands (ev):

     6.8012   7.9606   8.3575   8.4529   8.9885   9.9179  23.9786  27.6677
    31.8504  34.4899

          k = 0.2222-0.0000 0.2222 (   578 PWs)   bands (ev):

     6.0225   7.8640   8.3456   8.3489   8.9163   9.3060  28.3385  28.3441
    32.4086  34.6768

          k = 0.0000 0.4444 0.0000 (   576 PWs)   bands (ev):

     6.7052   7.4306   8.8059   8.8059   8.8551   9.4393  28.4081  28.4081
    29.4699  29.8553

          k =-0.1111 0.5556-0.1111 (   587 PWs)   bands (ev):

     7.0231   7.3181   8.6109   8.9546   9.6935  10.1503  24.5538  27.2360
    27.8298  30.1557

          k =-0.2222 0.6667-0.2222 (   587 PWs)   bands (ev):

     6.9686   7.5917   8.4881   8.8444   9.9653  12.3918  20.3757  25.7992
    26.9607  29.8271

          k = 0.6667-0.2222 0.6667 (   580 PWs)   bands (ev):

     7.0356   7.7115   8.5458   8.7171   9.8936  15.0838  17.0097  24.2400
    27.7543  29.7010

          k = 0.5556-0.1111 0.5556 (   591 PWs)   bands (ev):

     7.2652   7.8026   8.3986   8.6776   9.4735  13.4844  19.2791  23.3855
    29.5681  30.0521

          k = 0.4444 0.0000 0.4444 (   586 PWs)   bands (ev):

     7.4873   7.6930   8.1996   8.7189   8.9701  11.3628  23.2640  23.4189
    30.9991  32.0843

          k = 0.0000 0.6667 0.0000 (   576 PWs)   bands (ev):

     6.8251   6.9342   9.5101   9.5101   9.6995  10.6804  25.1869  25.6196
    25.6196  29.9193

          k =-0.1111 0.7778-0.1111 (   593 PWs)   bands (ev):

     6.7431   6.8924   9.3921   9.5007   9.9882  12.7886  22.4831  23.0571
    24.9925  29.9475

          k = 0.7778-0.1111 0.7778 (   588 PWs)   bands (ev):

     6.8374   7.2098   8.9213   9.3339   9.9639  15.6718  19.0740  21.1797
    25.5624  29.8448

          k = 0.6667-0.0000 0.6667 (   598 PWs)   bands (ev):

     7.1255   7.7045   8.3251   9.0887   9.6579  16.0376  18.7074  20.4372
    27.2188  29.8529

          k = 0.0000 0.8889 0.0000 (   596 PWs)   bands (ev):

     6.4921   6.6289   9.8741  10.0613  10.0613  13.6893  20.6012  23.9473
    23.9473  29.9667

          k = 0.8889 0.0000 0.8889 (   598 PWs)   bands (ev):

     6.5592   6.7257   9.7474   9.7666  10.0873  15.1476  19.6449  21.9851
    24.1564  29.9704

          k =-0.2222 0.4444 0.0000 (   587 PWs)   bands (ev):

     7.0245   7.5352   8.2602   8.8052   9.0623   9.9584  25.7788  26.0752
    30.5013  32.4546

          k =-0.3333 0.5556-0.1111 (   586 PWs)   bands (ev):

     7.1697   7.9158   8.0279   8.7972   9.4959  11.4921  21.5947  25.4842
    28.4513  32.4297

          k = 0.5556-0.3333 0.7778 (   586 PWs)   bands (ev):

     7.0533   7.7441   8.5103   8.6951   9.8272  13.8628  17.7896  25.7508
    26.7950  31.6210

          k =-0.2222 0.6667 0.0000 (   587 PWs)   bands (ev):

     7.1226   7.1280   8.5845   9.5019   9.5672  11.8103  23.7035  23.8682
    25.5119  31.9734

          k = 0.6667-0.2222 0.8889 (   583 PWs)   bands (ev):

     7.0965   7.3887   8.3813   9.2501   9.8950  14.3292  19.8716  23.4172
    24.0287  32.1190

          k = 0.5556-0.1111 0.7778 (   587 PWs)   bands (ev):

     7.2827   7.5978   8.1722   9.0224   9.8469  16.3465  17.6475  22.0979
    24.9242  32.3252

          k = 0.4444 0.0000 0.6667 (   579 PWs)   bands (ev):

     7.6184   7.6651   7.7971   9.0788   9.5077  13.6537  21.1586  21.6031
    26.5215  33.1093

          k = 0.7778-0.1111 1.0000 (   587 PWs)   bands (ev):

     6.7559   6.8700   9.2075   9.6781  10.0600  14.8110  20.7506  22.4423
    22.6427  31.7150

          k = 0.6667-0.0000 0.8889 (   594 PWs)   bands (ev):

     6.9548   7.2333   8.6696   9.3479  10.0539  17.0940  19.1603  20.0565
    23.3719  32.1101

          k = 0.5556-0.1111 1.0000 (   587 PWs)   bands (ev):

     7.2241   7.5781   8.0342   9.1846  10.0564  16.9105  19.7456  20.6253
    21.9812  35.2938

     the Fermi energy is    13.1700 ev

!    total energy              =     -84.26825835 Ry
     Harris-Foulkes estimate   =     -84.26825835 Ry
     estimated scf accuracy    <          8.0E-10 Ry

     The total energy is the sum of the following terms:

     one-electron contribution =      -4.71019440 Ry
     hartree contribution      =      14.65285815 Ry
     xc contribution           =     -22.34968396 Ry
     ewald contribution        =     -71.86118027 Ry
     smearing contrib. (-TS)   =      -0.00005786 Ry

     convergence has been achieved in   6 iterations

     Forces acting on atoms (cartesian axes, Ry/au):

     atom    1 type  1   force =     0.00000000    0.00000000    0.00000000

     Total force =     0.000000     Total SCF correction =     0.000000


     Computing stress (Cartesian axis) and pressure

          total   stress  (Ry/bohr**3)                   (kbar)     P=   44.25
   0.00030082   0.00000000   0.00000000         44.25      0.00      0.00
   0.00000000   0.00030082  -0.00000000          0.00     44.25     -0.00
   0.00000000  -0.00000000   0.00030082          0.00     -0.00     44.25


     Writing output data file Ag.save/

     init_run     :      0.24s CPU      0.25s WALL (       1 calls)
     electrons    :      1.60s CPU      1.74s WALL (       1 calls)
     forces       :      0.05s CPU      0.05s WALL (       1 calls)
     stress       :      0.14s CPU      0.14s WALL (       1 calls)

     Called by init_run:
     wfcinit      :      0.09s CPU      0.09s WALL (       1 calls)
     potinit      :      0.01s CPU      0.01s WALL (       1 calls)
     hinit0       :      0.14s CPU      0.14s WALL (       1 calls)

     Called by electrons:
     c_bands      :      1.31s CPU      1.41s WALL (       7 calls)
     sum_band     :      0.24s CPU      0.27s WALL (       7 calls)
     v_of_rho     :      0.02s CPU      0.03s WALL (       7 calls)
     newd         :      0.03s CPU      0.04s WALL (       7 calls)
     mix_rho      :      0.00s CPU      0.00s WALL (       7 calls)

     Called by c_bands:
     init_us_2    :      0.04s CPU      0.05s WALL (     595 calls)
     cegterg      :      1.25s CPU      1.35s WALL (     245 calls)

     Called by sum_band:
     sum_band:bec :      0.00s CPU      0.00s WALL (     245 calls)
     addusdens    :      0.03s CPU      0.03s WALL (       7 calls)

     Called by *egterg:
     h_psi        :      0.94s CPU      1.02s WALL (     914 calls)
     s_psi        :      0.03s CPU      0.03s WALL (     914 calls)
     g_psi        :      0.00s CPU      0.00s WALL (     634 calls)
     cdiaghg      :      0.18s CPU      0.19s WALL (     844 calls)

     Called by h_psi:
     h_psi:pot    :      0.94s CPU      1.01s WALL (     914 calls)
     h_psi:calbec :      0.05s CPU      0.05s WALL (     914 calls)
     vloc_psi     :      0.85s CPU      0.92s WALL (     914 calls)
     add_vuspsi   :      0.03s CPU      0.03s WALL (     914 calls)

     General routines
     calbec       :      0.11s CPU      0.12s WALL (    1334 calls)
     fft          :      0.02s CPU      0.02s WALL (     104 calls)
     ffts         :      0.00s CPU      0.00s WALL (       7 calls)
     fftw         :      0.94s CPU      1.02s WALL (   15414 calls)

     Parallel routines
     fft_scatt_xy :      0.09s CPU      0.10s WALL (   15525 calls)
     fft_scatt_yz :      0.29s CPU      0.31s WALL (   15525 calls)

     PWSCF        :     2.78s CPU         3.00s WALL


   This run was terminated on:   0:20: 7  27Mar2024            

=------------------------------------------------------------------------------=
   JOB DONE.
=------------------------------------------------------------------------------=
