
     Program PWSCF v.6.3MaX starts on 27Mar2024 at  0:46: 7 

     This program is part of the open-source Quantum ESPRESSO suite
     for quantum simulation of materials; please cite
         "P. Giannozzi et al., J. Phys.:Condens. Matter 21 395502 (2009);
         "P. Giannozzi et al., J. Phys.:Condens. Matter 29 465901 (2017);
          URL http://www.quantum-espresso.org", 
     in publications or presentations arising from this work. More details at
     http://www.quantum-espresso.org/quote

     Parallel version (MPI), running on     5 processors

     MPI processes distributed on     1 nodes
     R & G space division:  proc/nbgrp/npool/nimage =       5
     Waiting for input...
     Reading input from standard input

     Current dimensions of program PWSCF are:
     Max number of different atomic species (ntypx) = 10
     Max number of k-points (npk) =  40000
     Max angular momentum in pseudopotentials (lmaxx) =  3
               file Ag.pbesol-n-kjpaw_psl.1.0.0.UPF: wavefunction(s)  5S 5P renormalized

     Subspace diagonalization in iterative solution of the eigenvalue problem:
     a serial algorithm will be used


     Parallelization info
     --------------------
     sticks:   dense  smooth     PW     G-vecs:    dense   smooth      PW
     Min         153     153     48                 2863     2863     488
     Max         154     154     49                 2867     2867     491
     Sum         769     769    241                14331    14331    2445



     bravais-lattice index     =            2
     lattice parameter (alat)  =       7.7200  a.u.
     unit-cell volume          =     115.0249 (a.u.)^3
     number of atoms/cell      =            1
     number of atomic types    =            1
     number of electrons       =        11.00
     number of Kohn-Sham states=           10
     kinetic-energy cutoff     =      95.0000  Ry
     charge density cutoff     =     380.0000  Ry
     convergence threshold     =      1.0E-08
     mixing beta               =       0.7000
     number of iterations used =            8  plain     mixing
     Exchange-correlation      = SLA PW PSX PSC ( 1  4 10  8 0 0)

     celldm(1)=   7.720000  celldm(2)=   0.000000  celldm(3)=   0.000000
     celldm(4)=   0.000000  celldm(5)=   0.000000  celldm(6)=   0.000000

     crystal axes: (cart. coord. in units of alat)
               a(1) = (  -0.500000   0.000000   0.500000 )  
               a(2) = (   0.000000   0.500000   0.500000 )  
               a(3) = (  -0.500000   0.500000   0.000000 )  

     reciprocal axes: (cart. coord. in units 2 pi/alat)
               b(1) = ( -1.000000 -1.000000  1.000000 )  
               b(2) = (  1.000000  1.000000  1.000000 )  
               b(3) = ( -1.000000  1.000000 -1.000000 )  


     PseudoPot. # 1 for Ag read from file:
     /home/lorenzo/pseudos/Ag/Ag.pbesol-n-kjpaw_psl.1.0.0.UPF
     MD5 check sum: 3b245e14fa22881b2ac493bfd23f605f
     Pseudo is Projector augmented-wave + core cor, Zval = 11.0
     Generated using "atomic" code by A. Dal Corso v.6.2.2
     Shape of augmentation charge: PSQ
     Using radial grid of 1237 points,  6 beta functions with: 
                l(1) =   0
                l(2) =   0
                l(3) =   1
                l(4) =   1
                l(5) =   2
                l(6) =   2
     Q(r) pseudized with 0 coefficients 


     atomic species   valence    mass     pseudopotential
        Ag            11.00   107.86820     Ag( 1.00)

     48 Sym. Ops., with inversion, found



   Cartesian axes

     site n.     atom                  positions (alat units)
         1           Ag  tau(   1) = (   0.0000000   0.0000000   0.0000000  )

     number of k points=    47  gaussian smearing, width (Ry)=  0.0100
                       cart. coord. in units 2pi/alat
        k(    1) = (   0.0000000   0.0000000   0.0000000), wk =   0.0020000
        k(    2) = (  -0.1000000   0.1000000  -0.1000000), wk =   0.0160000
        k(    3) = (  -0.2000000   0.2000000  -0.2000000), wk =   0.0160000
        k(    4) = (  -0.3000000   0.3000000  -0.3000000), wk =   0.0160000
        k(    5) = (  -0.4000000   0.4000000  -0.4000000), wk =   0.0160000
        k(    6) = (   0.5000000  -0.5000000   0.5000000), wk =   0.0080000
        k(    7) = (   0.0000000   0.2000000   0.0000000), wk =   0.0120000
        k(    8) = (  -0.1000000   0.3000000  -0.1000000), wk =   0.0480000
        k(    9) = (  -0.2000000   0.4000000  -0.2000000), wk =   0.0480000
        k(   10) = (  -0.3000000   0.5000000  -0.3000000), wk =   0.0480000
        k(   11) = (   0.6000000  -0.4000000   0.6000000), wk =   0.0480000
        k(   12) = (   0.5000000  -0.3000000   0.5000000), wk =   0.0480000
        k(   13) = (   0.4000000  -0.2000000   0.4000000), wk =   0.0480000
        k(   14) = (   0.3000000  -0.1000000   0.3000000), wk =   0.0480000
        k(   15) = (   0.2000000   0.0000000   0.2000000), wk =   0.0240000
        k(   16) = (   0.0000000   0.4000000   0.0000000), wk =   0.0120000
        k(   17) = (  -0.1000000   0.5000000  -0.1000000), wk =   0.0480000
        k(   18) = (  -0.2000000   0.6000000  -0.2000000), wk =   0.0480000
        k(   19) = (   0.7000000  -0.3000000   0.7000000), wk =   0.0480000
        k(   20) = (   0.6000000  -0.2000000   0.6000000), wk =   0.0480000
        k(   21) = (   0.5000000  -0.1000000   0.5000000), wk =   0.0480000
        k(   22) = (   0.4000000   0.0000000   0.4000000), wk =   0.0240000
        k(   23) = (   0.0000000   0.6000000   0.0000000), wk =   0.0120000
        k(   24) = (  -0.1000000   0.7000000  -0.1000000), wk =   0.0480000
        k(   25) = (   0.8000000  -0.2000000   0.8000000), wk =   0.0480000
        k(   26) = (   0.7000000  -0.1000000   0.7000000), wk =   0.0480000
        k(   27) = (   0.6000000  -0.0000000   0.6000000), wk =   0.0240000
        k(   28) = (   0.0000000   0.8000000   0.0000000), wk =   0.0120000
        k(   29) = (   0.9000000  -0.1000000   0.9000000), wk =   0.0480000
        k(   30) = (   0.8000000   0.0000000   0.8000000), wk =   0.0240000
        k(   31) = (   0.0000000  -1.0000000   0.0000000), wk =   0.0060000
        k(   32) = (  -0.2000000   0.4000000   0.0000000), wk =   0.0480000
        k(   33) = (  -0.3000000   0.5000000  -0.1000000), wk =   0.0960000
        k(   34) = (   0.6000000  -0.4000000   0.8000000), wk =   0.0960000
        k(   35) = (   0.5000000  -0.3000000   0.7000000), wk =   0.0480000
        k(   36) = (  -0.2000000   0.6000000   0.0000000), wk =   0.0480000
        k(   37) = (   0.7000000  -0.3000000   0.9000000), wk =   0.0960000
        k(   38) = (   0.6000000  -0.2000000   0.8000000), wk =   0.0960000
        k(   39) = (   0.5000000  -0.1000000   0.7000000), wk =   0.0960000
        k(   40) = (   0.4000000   0.0000000   0.6000000), wk =   0.0480000
        k(   41) = (   0.8000000  -0.2000000   1.0000000), wk =   0.0480000
        k(   42) = (   0.7000000  -0.1000000   0.9000000), wk =   0.0960000
        k(   43) = (   0.6000000   0.0000000   0.8000000), wk =   0.0480000
        k(   44) = (  -0.2000000  -1.0000000   0.0000000), wk =   0.0240000
        k(   45) = (   0.6000000  -0.2000000   1.0000000), wk =   0.0480000
        k(   46) = (   0.5000000  -0.1000000   0.9000000), wk =   0.0480000
        k(   47) = (  -0.4000000  -1.0000000   0.0000000), wk =   0.0240000

     Dense  grid:    14331 G-vectors     FFT dimensions: (  36,  36,  36)

     Estimated max dynamical RAM per process >      15.35 MB

     Estimated total dynamical RAM >      76.73 MB

     Initial potential from superposition of free atoms

     starting charge   10.99964, renormalised to   11.00000
     Starting wfcs are    9 randomized atomic wfcs +    1 random wfcs
     Checking if some PAW data can be deallocated... 

     total cpu time spent up to now is        1.7 secs

     Self-consistent Calculation

     iteration #  1     ecut=    95.00 Ry     beta= 0.70
     Davidson diagonalization with overlap
     ethr =  1.00E-02,  avg # of iterations =  4.7

     Threshold (ethr) on eigenvalues was too large:
     Diagonalizing with lowered threshold

     Davidson diagonalization with overlap
     ethr =  4.55E-05,  avg # of iterations =  2.4

     total cpu time spent up to now is        3.9 secs

     total energy              =    -350.23748234 Ry
     Harris-Foulkes estimate   =    -350.24105114 Ry
     estimated scf accuracy    <       0.00538561 Ry

     iteration #  2     ecut=    95.00 Ry     beta= 0.70
     Davidson diagonalization with overlap
     ethr =  4.90E-05,  avg # of iterations =  2.0

     total cpu time spent up to now is        5.0 secs

     total energy              =    -350.23901858 Ry
     Harris-Foulkes estimate   =    -350.24102278 Ry
     estimated scf accuracy    <       0.00418128 Ry

     iteration #  3     ecut=    95.00 Ry     beta= 0.70
     Davidson diagonalization with overlap
     ethr =  3.80E-05,  avg # of iterations =  1.6

     total cpu time spent up to now is        5.9 secs

     total energy              =    -350.23981310 Ry
     Harris-Foulkes estimate   =    -350.23979642 Ry
     estimated scf accuracy    <       0.00001473 Ry

     iteration #  4     ecut=    95.00 Ry     beta= 0.70
     Davidson diagonalization with overlap
     ethr =  1.34E-07,  avg # of iterations =  3.0

     total cpu time spent up to now is        6.9 secs

     total energy              =    -350.23982182 Ry
     Harris-Foulkes estimate   =    -350.23982165 Ry
     estimated scf accuracy    <       0.00000054 Ry

     iteration #  5     ecut=    95.00 Ry     beta= 0.70
     Davidson diagonalization with overlap
     ethr =  4.89E-09,  avg # of iterations =  1.0

     total cpu time spent up to now is        7.7 secs

     End of self-consistent calculation

          k = 0.0000 0.0000 0.0000 (  1807 PWs)   bands (ev):

     4.8050   7.9184   7.9184   7.9184   8.9714   8.9714  29.5437  32.8291
    32.8291  32.8291

          k =-0.1000 0.1000-0.1000 (  1817 PWs)   bands (ev):

     5.1123   7.8526   8.0010   8.0010   8.9438   8.9438  29.1892  30.7412
    32.8067  32.8067

          k =-0.2000 0.2000-0.2000 (  1805 PWs)   bands (ev):

     5.8833   7.8475   8.1260   8.1260   8.9809   8.9809  25.8190  30.2120
    32.6085  32.6085

          k =-0.3000 0.3000-0.3000 (  1823 PWs)   bands (ev):

     6.3704   8.0756   8.0756   8.7232   9.2706   9.2706  21.8836  29.5763
    31.9976  31.9976

          k =-0.4000 0.4000-0.4000 (  1802 PWs)   bands (ev):

     6.3341   7.9519   7.9519   9.6234   9.6234  10.6729  18.2942  28.8668
    31.1915  31.1915

          k = 0.5000-0.5000 0.5000 (  1802 PWs)   bands (ev):

     6.2803   7.8973   7.8973   9.7749   9.7749  12.1890  16.2532  28.5891
    30.8284  30.8284

          k = 0.0000 0.2000 0.0000 (  1820 PWs)   bands (ev):

     5.2155   7.7569   8.0715   8.0715   8.8156   9.0419  29.5570  31.4316
    31.4889  31.4889

          k =-0.1000 0.3000-0.1000 (  1811 PWs)   bands (ev):

     5.8538   7.6110   8.2161   8.2358   8.7756   9.1298  27.3420  29.9396
    30.4476  32.7068

          k =-0.2000 0.4000-0.2000 (  1816 PWs)   bands (ev):

     6.5075   7.8399   8.0950   8.2626   9.3521   9.3736  23.3730  29.4642
    29.6867  32.2270

          k =-0.3000 0.5000-0.3000 (  1805 PWs)   bands (ev):

     6.5342   7.8929   8.1508   8.6534   9.6782  10.7790  19.5917  28.7065
    29.3180  30.6064

          k = 0.6000-0.4000 0.6000 (  1801 PWs)   bands (ev):

     6.4568   7.7932   8.0530   9.1707   9.7853  12.7297  16.6357  27.9893
    29.5884  29.6531

          k = 0.5000-0.3000 0.5000 (  1805 PWs)   bands (ev):

     6.4873   7.8296   8.0508   9.1924   9.5847  12.1647  17.4484  27.5436
    29.6494  30.6949

          k = 0.4000-0.2000 0.4000 (  1806 PWs)   bands (ev):

     6.5916   7.9527   8.1539   8.5936   9.1662  10.4140  20.8263  27.5520
    30.4972  32.6324

          k = 0.3000-0.1000 0.3000 (  1818 PWs)   bands (ev):

     6.3769   7.7114   8.1863   8.2637   8.7803   9.4889  24.7074  27.9442
    31.8998  34.0650

          k = 0.2000 0.0000 0.2000 (  1819 PWs)   bands (ev):

     5.5926   7.7191   8.1238   8.1463   8.7873   9.0853  28.4878  28.6601
    32.0152  34.2545

          k = 0.0000 0.4000 0.0000 (  1808 PWs)   bands (ev):

     6.2436   7.3524   8.5056   8.5056   8.6099   9.2296  28.7732  28.7732
    29.6000  29.6724

          k =-0.1000 0.5000-0.1000 (  1799 PWs)   bands (ev):

     6.7456   7.2054   8.3341   8.6717   9.4298   9.4450  25.1910  27.6318
    28.6455  30.1576

          k =-0.2000 0.6000-0.2000 (  1798 PWs)   bands (ev):

     6.7922   7.4740   8.1944   8.6067   9.7214  11.1208  21.3182  26.9003
    27.1331  29.7215

          k = 0.7000-0.3000 0.7000 (  1791 PWs)   bands (ev):

     6.7666   7.5740   8.3679   8.4833   9.8137  13.4227  17.8669  25.3463
    27.4310  29.4414

          k = 0.6000-0.2000 0.6000 (  1802 PWs)   bands (ev):

     6.8641   7.5929   8.4137   8.4770   9.5869  14.2277  17.0336  24.2834
    28.5977  29.5160

          k = 0.5000-0.1000 0.5000 (  1800 PWs)   bands (ev):

     7.0622   7.6893   8.1893   8.4439   9.1329  12.1263  20.2572  23.8510
    30.1173  30.5215

          k = 0.4000 0.0000 0.4000 (  1797 PWs)   bands (ev):

     7.0976   7.4955   8.0748   8.5573   8.6568  10.5237  23.8894  24.1840
    31.2672  32.9182

          k = 0.0000 0.6000 0.0000 (  1796 PWs)   bands (ev):

     6.7054   6.8849   9.1264   9.1264   9.4683   9.6757  26.1061  26.1061
    26.4644  29.6640

          k =-0.1000 0.7000-0.1000 (  1797 PWs)   bands (ev):

     6.6571   6.8035   9.0232   9.1950   9.7295  11.4083  23.2420  24.3338
    25.3089  29.7277

          k = 0.8000-0.2000 0.8000 (  1792 PWs)   bands (ev):

     6.6651   7.0252   8.7130   9.0686   9.8542  13.8253  19.8065  22.5486
    25.4190  29.5991

          k = 0.7000-0.1000 0.7000 (  1800 PWs)   bands (ev):

     6.8428   7.3784   8.3185   8.9229   9.6510  16.4478  17.0511  21.2144
    26.4692  29.5583

          k = 0.6000-0.0000 0.6000 (  1792 PWs)   bands (ev):

     7.1380   7.7662   7.8444   8.7497   9.2996  14.2069  19.7961  20.7485
    28.2780  29.7305

          k = 0.0000 0.8000 0.0000 (  1772 PWs)   bands (ev):

     6.4103   6.5295   9.6672   9.7242   9.7242  12.2381  21.9979  24.1696
    24.1696  29.7214

          k = 0.9000-0.1000 0.9000 (  1781 PWs)   bands (ev):

     6.3915   6.5419   9.5682   9.5790   9.9127  14.0832  20.2423  22.1626
    23.9797  29.7350

          k = 0.8000 0.0000 0.8000 (  1780 PWs)   bands (ev):

     6.5622   6.8708   8.9680   9.3598   9.7993  16.1004  19.1172  19.7978
    24.8131  29.6455

          k = 0.0000-1.0000 0.0000 (  1772 PWs)   bands (ev):

     6.2497   6.3984   9.7446   9.9837   9.9837  14.2115  19.3768  23.4484
    23.4484  29.7443

          k =-0.2000 0.4000 0.0000 (  1802 PWs)   bands (ev):

     6.5250   7.4212   8.1568   8.5069   8.8163   9.5128  26.2920  26.5675
    31.0950  31.9731

          k =-0.3000 0.5000-0.1000 (  1804 PWs)   bands (ev):

     6.9157   7.6705   7.9106   8.5519   9.1850  10.5544  22.4720  25.9084
    29.2576  32.2523

          k = 0.6000-0.4000 0.8000 (  1795 PWs)   bands (ev):

     6.8054   7.6841   8.2486   8.5007   9.5839  12.3753  18.8253  25.8818
    27.6552  31.3705

          k = 0.5000-0.3000 0.7000 (  1792 PWs)   bands (ev):

     6.7504   7.5958   8.3206   8.6444   9.7152  14.1496  16.4483  26.4241
    26.5366  30.9701

          k =-0.2000 0.6000 0.0000 (  1795 PWs)   bands (ev):

     6.9659   7.0244   8.3034   9.1192   9.3217  10.7186  24.2847  24.4980
    26.7072  31.5269

          k = 0.7000-0.3000 0.9000 (  1805 PWs)   bands (ev):

     6.9142   7.2518   8.1510   9.0251   9.6365  12.7040  20.6967  24.1743
    24.8703  31.6112

          k = 0.6000-0.2000 0.8000 (  1799 PWs)   bands (ev):

     6.9875   7.3930   8.1215   8.8058   9.7344  15.2336  17.4523  23.3187
    24.7893  31.5517

          k = 0.5000-0.1000 0.7000 (  1791 PWs)   bands (ev):

     7.2113   7.4296   7.9593   8.7640   9.5263  14.4455  18.5679  22.3850
    25.9447  32.0183

          k = 0.4000 0.0000 0.6000 (  1800 PWs)   bands (ev):

     7.4014   7.5155   7.6223   8.8928   9.1333  12.2437  22.0584  22.1358
    27.5047  33.0658

          k = 0.8000-0.2000 1.0000 (  1792 PWs)   bands (ev):

     6.6362   6.7144   8.9247   9.5671   9.7206  13.1651  22.0592  22.8567
    23.0229  31.2445

          k = 0.7000-0.1000 0.9000 (  1795 PWs)   bands (ev):

     6.7239   6.9638   8.5942   9.2651   9.8689  15.5802  19.5896  20.7672
    23.2869  31.4977

          k = 0.6000 0.0000 0.8000 (  1793 PWs)   bands (ev):

     6.9610   7.3704   8.0903   8.9990   9.7167  16.8555  18.0696  20.0478
    24.4003  31.7160

          k =-0.2000-1.0000 0.0000 (  1790 PWs)   bands (ev):

     6.4655   6.5990   9.2966   9.5294   9.9841  15.2393  19.4324  22.2197
    22.3705  31.1585

          k = 0.6000-0.2000 1.0000 (  1799 PWs)   bands (ev):

     7.1103   7.2561   7.9158   9.1055   9.7130  14.8732  20.4695  20.9923
    23.1616  34.3655

          k = 0.5000-0.1000 0.9000 (  1792 PWs)   bands (ev):

     7.0979   7.4928   7.7412   8.9593   9.8562  17.4433  17.6251  21.2719
    22.1435  34.2836

          k =-0.4000-1.0000 0.0000 (  1786 PWs)   bands (ev):

     6.9129   7.1937   8.1446   9.0779   9.9847  17.3799  19.6170  19.8542
    21.0678  34.1833

     the Fermi energy is    12.5913 ev

!    total energy              =    -350.23982184 Ry
     Harris-Foulkes estimate   =    -350.23982185 Ry
     estimated scf accuracy    <          6.5E-09 Ry

     total all-electron energy =    -10627.250231 Ry

     The total energy is the sum of the following terms:

     one-electron contribution =       1.60765611 Ry
     hartree contribution      =      14.57234357 Ry
     xc contribution           =     -22.14403514 Ry
     ewald contribution        =     -71.86118018 Ry
     one-center paw contrib.   =    -272.41439969 Ry
     smearing contrib. (-TS)   =      -0.00020652 Ry

     convergence has been achieved in   5 iterations

     Forces acting on atoms (cartesian axes, Ry/au):

     atom    1 type  1   force =     0.00000000    0.00000000    0.00000000

     Total force =     0.000000     Total SCF correction =     0.000000


     Computing stress (Cartesian axis) and pressure

          total   stress  (Ry/bohr**3)                   (kbar)     P=  -18.95
  -0.00012880  -0.00000000  -0.00000000        -18.95     -0.00     -0.00
  -0.00000000  -0.00012880   0.00000000         -0.00    -18.95      0.00
  -0.00000000   0.00000000  -0.00012880         -0.00      0.00    -18.95


     Writing output data file Ag.save/

     init_run     :      0.73s CPU      0.78s WALL (       1 calls)
     electrons    :      5.72s CPU      6.04s WALL (       1 calls)
     forces       :      0.09s CPU      0.09s WALL (       1 calls)
     stress       :      0.32s CPU      0.32s WALL (       1 calls)

     Called by init_run:
     wfcinit      :      0.28s CPU      0.30s WALL (       1 calls)
     potinit      :      0.11s CPU      0.13s WALL (       1 calls)
     hinit0       :      0.29s CPU      0.29s WALL (       1 calls)

     Called by electrons:
     c_bands      :      4.24s CPU      4.49s WALL (       6 calls)
     sum_band     :      0.85s CPU      0.90s WALL (       6 calls)
     v_of_rho     :      0.06s CPU      0.06s WALL (       6 calls)
     newd         :      0.09s CPU      0.09s WALL (       6 calls)
     PAW_pot      :      0.58s CPU      0.62s WALL (       6 calls)
     mix_rho      :      0.00s CPU      0.00s WALL (       6 calls)

     Called by c_bands:
     init_us_2    :      0.14s CPU      0.15s WALL (     705 calls)
     cegterg      :      4.04s CPU      4.29s WALL (     282 calls)

     Called by sum_band:
     sum_band:bec :      0.00s CPU      0.00s WALL (     282 calls)
     addusdens    :      0.09s CPU      0.09s WALL (       6 calls)

     Called by *egterg:
     h_psi        :      3.43s CPU      3.67s WALL (    1020 calls)
     s_psi        :      0.10s CPU      0.10s WALL (    1020 calls)
     g_psi        :      0.01s CPU      0.01s WALL (     691 calls)
     cdiaghg      :      0.25s CPU      0.25s WALL (     926 calls)

     Called by h_psi:
     h_psi:pot    :      3.41s CPU      3.65s WALL (    1020 calls)
     h_psi:calbec :      0.16s CPU      0.17s WALL (    1020 calls)
     vloc_psi     :      3.13s CPU      3.36s WALL (    1020 calls)
     add_vuspsi   :      0.10s CPU      0.11s WALL (    1020 calls)

     General routines
     calbec       :      0.26s CPU      0.27s WALL (    1537 calls)
     fft          :      0.03s CPU      0.03s WALL (      93 calls)
     ffts         :      0.00s CPU      0.00s WALL (       6 calls)
     fftw         :      3.52s CPU      3.76s WALL (   17466 calls)

     Parallel routines
     fft_scatt_xy :      0.28s CPU      0.30s WALL (   17565 calls)
     fft_scatt_yz :      0.95s CPU      1.02s WALL (   17565 calls)

     PWSCF        :     7.79s CPU         8.27s WALL


   This run was terminated on:   0:46:15  27Mar2024            

=------------------------------------------------------------------------------=
   JOB DONE.
=------------------------------------------------------------------------------=
