
     Program PWSCF v.6.3MaX starts on 27Mar2024 at  0:27:38 

     This program is part of the open-source Quantum ESPRESSO suite
     for quantum simulation of materials; please cite
         "P. Giannozzi et al., J. Phys.:Condens. Matter 21 395502 (2009);
         "P. Giannozzi et al., J. Phys.:Condens. Matter 29 465901 (2017);
          URL http://www.quantum-espresso.org", 
     in publications or presentations arising from this work. More details at
     http://www.quantum-espresso.org/quote

     Parallel version (MPI), running on     5 processors

     MPI processes distributed on     1 nodes
     R & G space division:  proc/nbgrp/npool/nimage =       5
     Waiting for input...
     Reading input from standard input

     Current dimensions of program PWSCF are:
     Max number of different atomic species (ntypx) = 10
     Max number of k-points (npk) =  40000
     Max angular momentum in pseudopotentials (lmaxx) =  3

     Subspace diagonalization in iterative solution of the eigenvalue problem:
     a serial algorithm will be used


     Parallelization info
     --------------------
     sticks:   dense  smooth     PW     G-vecs:    dense   smooth      PW
     Min         106     106     32                 1619     1619     290
     Max         108     108     33                 1620     1620     293
     Sum         535     535    163                 8099     8099    1459



     bravais-lattice index     =            2
     lattice parameter (alat)  =       7.7200  a.u.
     unit-cell volume          =     115.0249 (a.u.)^3
     number of atoms/cell      =            1
     number of atomic types    =            1
     number of electrons       =        11.00
     number of Kohn-Sham states=           10
     kinetic-energy cutoff     =      65.0000  Ry
     charge density cutoff     =     260.0000  Ry
     convergence threshold     =      1.0E-08
     mixing beta               =       0.7000
     number of iterations used =            8  plain     mixing
     Exchange-correlation      = PBE ( 1  4  3  4 0 0)

     celldm(1)=   7.720000  celldm(2)=   0.000000  celldm(3)=   0.000000
     celldm(4)=   0.000000  celldm(5)=   0.000000  celldm(6)=   0.000000

     crystal axes: (cart. coord. in units of alat)
               a(1) = (  -0.500000   0.000000   0.500000 )  
               a(2) = (   0.000000   0.500000   0.500000 )  
               a(3) = (  -0.500000   0.500000   0.000000 )  

     reciprocal axes: (cart. coord. in units 2 pi/alat)
               b(1) = ( -1.000000 -1.000000  1.000000 )  
               b(2) = (  1.000000  1.000000  1.000000 )  
               b(3) = ( -1.000000  1.000000 -1.000000 )  


     PseudoPot. # 1 for Ag read from file:
     /home/lorenzo/pseudos/Ag/Ag.pbe-n-rrkjus_psl.1.0.0.UPF
     MD5 check sum: d841cbfac2b0861aec33b46768a516bf
     Pseudo is Ultrasoft + core correction, Zval = 11.0
     Generated using "atomic" code by A. Dal Corso v.6.2.2
     Using radial grid of 1237 points,  6 beta functions with: 
                l(1) =   0
                l(2) =   0
                l(3) =   1
                l(4) =   1
                l(5) =   2
                l(6) =   2
     Q(r) pseudized with 0 coefficients 


     atomic species   valence    mass     pseudopotential
        Ag            11.00   107.86820     Ag( 1.00)

     48 Sym. Ops., with inversion, found



   Cartesian axes

     site n.     atom                  positions (alat units)
         1           Ag  tau(   1) = (   0.0000000   0.0000000   0.0000000  )

     number of k points=    47  gaussian smearing, width (Ry)=  0.0100
                       cart. coord. in units 2pi/alat
        k(    1) = (   0.0000000   0.0000000   0.0000000), wk =   0.0020000
        k(    2) = (  -0.1000000   0.1000000  -0.1000000), wk =   0.0160000
        k(    3) = (  -0.2000000   0.2000000  -0.2000000), wk =   0.0160000
        k(    4) = (  -0.3000000   0.3000000  -0.3000000), wk =   0.0160000
        k(    5) = (  -0.4000000   0.4000000  -0.4000000), wk =   0.0160000
        k(    6) = (   0.5000000  -0.5000000   0.5000000), wk =   0.0080000
        k(    7) = (   0.0000000   0.2000000   0.0000000), wk =   0.0120000
        k(    8) = (  -0.1000000   0.3000000  -0.1000000), wk =   0.0480000
        k(    9) = (  -0.2000000   0.4000000  -0.2000000), wk =   0.0480000
        k(   10) = (  -0.3000000   0.5000000  -0.3000000), wk =   0.0480000
        k(   11) = (   0.6000000  -0.4000000   0.6000000), wk =   0.0480000
        k(   12) = (   0.5000000  -0.3000000   0.5000000), wk =   0.0480000
        k(   13) = (   0.4000000  -0.2000000   0.4000000), wk =   0.0480000
        k(   14) = (   0.3000000  -0.1000000   0.3000000), wk =   0.0480000
        k(   15) = (   0.2000000   0.0000000   0.2000000), wk =   0.0240000
        k(   16) = (   0.0000000   0.4000000   0.0000000), wk =   0.0120000
        k(   17) = (  -0.1000000   0.5000000  -0.1000000), wk =   0.0480000
        k(   18) = (  -0.2000000   0.6000000  -0.2000000), wk =   0.0480000
        k(   19) = (   0.7000000  -0.3000000   0.7000000), wk =   0.0480000
        k(   20) = (   0.6000000  -0.2000000   0.6000000), wk =   0.0480000
        k(   21) = (   0.5000000  -0.1000000   0.5000000), wk =   0.0480000
        k(   22) = (   0.4000000   0.0000000   0.4000000), wk =   0.0240000
        k(   23) = (   0.0000000   0.6000000   0.0000000), wk =   0.0120000
        k(   24) = (  -0.1000000   0.7000000  -0.1000000), wk =   0.0480000
        k(   25) = (   0.8000000  -0.2000000   0.8000000), wk =   0.0480000
        k(   26) = (   0.7000000  -0.1000000   0.7000000), wk =   0.0480000
        k(   27) = (   0.6000000  -0.0000000   0.6000000), wk =   0.0240000
        k(   28) = (   0.0000000   0.8000000   0.0000000), wk =   0.0120000
        k(   29) = (   0.9000000  -0.1000000   0.9000000), wk =   0.0480000
        k(   30) = (   0.8000000   0.0000000   0.8000000), wk =   0.0240000
        k(   31) = (   0.0000000  -1.0000000   0.0000000), wk =   0.0060000
        k(   32) = (  -0.2000000   0.4000000   0.0000000), wk =   0.0480000
        k(   33) = (  -0.3000000   0.5000000  -0.1000000), wk =   0.0960000
        k(   34) = (   0.6000000  -0.4000000   0.8000000), wk =   0.0960000
        k(   35) = (   0.5000000  -0.3000000   0.7000000), wk =   0.0480000
        k(   36) = (  -0.2000000   0.6000000   0.0000000), wk =   0.0480000
        k(   37) = (   0.7000000  -0.3000000   0.9000000), wk =   0.0960000
        k(   38) = (   0.6000000  -0.2000000   0.8000000), wk =   0.0960000
        k(   39) = (   0.5000000  -0.1000000   0.7000000), wk =   0.0960000
        k(   40) = (   0.4000000   0.0000000   0.6000000), wk =   0.0480000
        k(   41) = (   0.8000000  -0.2000000   1.0000000), wk =   0.0480000
        k(   42) = (   0.7000000  -0.1000000   0.9000000), wk =   0.0960000
        k(   43) = (   0.6000000   0.0000000   0.8000000), wk =   0.0480000
        k(   44) = (  -0.2000000  -1.0000000   0.0000000), wk =   0.0240000
        k(   45) = (   0.6000000  -0.2000000   1.0000000), wk =   0.0480000
        k(   46) = (   0.5000000  -0.1000000   0.9000000), wk =   0.0480000
        k(   47) = (  -0.4000000  -1.0000000   0.0000000), wk =   0.0240000

     Dense  grid:     8099 G-vectors     FFT dimensions: (  30,  30,  30)

     Estimated max dynamical RAM per process >       9.15 MB

     Estimated total dynamical RAM >      45.73 MB

     Initial potential from superposition of free atoms

     starting charge   10.99960, renormalised to   11.00000
     Starting wfcs are    9 randomized atomic wfcs +    1 random wfcs

     total cpu time spent up to now is        1.1 secs

     Self-consistent Calculation

     iteration #  1     ecut=    65.00 Ry     beta= 0.70
     Davidson diagonalization with overlap
     ethr =  1.00E-02,  avg # of iterations =  4.7

     Threshold (ethr) on eigenvalues was too large:
     Diagonalizing with lowered threshold

     Davidson diagonalization with overlap
     ethr =  2.28E-05,  avg # of iterations =  2.7

     total cpu time spent up to now is        2.3 secs

     total energy              =     -84.27127535 Ry
     Harris-Foulkes estimate   =     -84.27280619 Ry
     estimated scf accuracy    <       0.00278526 Ry

     iteration #  2     ecut=    65.00 Ry     beta= 0.70
     Davidson diagonalization with overlap
     ethr =  2.53E-05,  avg # of iterations =  2.0

     total cpu time spent up to now is        2.9 secs

     total energy              =     -84.27185794 Ry
     Harris-Foulkes estimate   =     -84.27278601 Ry
     estimated scf accuracy    <       0.00170536 Ry

     iteration #  3     ecut=    65.00 Ry     beta= 0.70
     Davidson diagonalization with overlap
     ethr =  1.55E-05,  avg # of iterations =  2.0

     total cpu time spent up to now is        3.3 secs

     total energy              =     -84.27225870 Ry
     Harris-Foulkes estimate   =     -84.27225870 Ry
     estimated scf accuracy    <       0.00002774 Ry

     iteration #  4     ecut=    65.00 Ry     beta= 0.70
     Davidson diagonalization with overlap
     ethr =  2.52E-07,  avg # of iterations =  2.2

     total cpu time spent up to now is        3.8 secs

     total energy              =     -84.27226425 Ry
     Harris-Foulkes estimate   =     -84.27226414 Ry
     estimated scf accuracy    <       0.00000019 Ry

     iteration #  5     ecut=    65.00 Ry     beta= 0.70
     Davidson diagonalization with overlap
     ethr =  1.68E-09,  avg # of iterations =  2.7

     total cpu time spent up to now is        4.3 secs

     total energy              =     -84.27226434 Ry
     Harris-Foulkes estimate   =     -84.27226437 Ry
     estimated scf accuracy    <       0.00000005 Ry

     iteration #  6     ecut=    65.00 Ry     beta= 0.70
     Davidson diagonalization with overlap
     ethr =  4.68E-10,  avg # of iterations =  2.1

     total cpu time spent up to now is        4.7 secs

     End of self-consistent calculation

          k = 0.0000 0.0000 0.0000 (   965 PWs)   bands (ev):

     5.0695   8.0950   8.0950   8.0950   9.1326   9.1326  29.8020  33.0925
    33.0925  33.0925

          k =-0.1000 0.1000-0.1000 (   995 PWs)   bands (ev):

     5.3765   8.0305   8.1769   8.1769   9.1054   9.1054  29.4433  30.9996
    33.0686  33.0686

          k =-0.2000 0.2000-0.2000 (  1001 PWs)   bands (ev):

     6.1402   8.0357   8.3001   8.3001   9.1436   9.1436  26.0691  30.4652
    32.8697  32.8697

          k =-0.3000 0.3000-0.3000 (  1011 PWs)   bands (ev):

     6.5925   8.2482   8.2482   8.9506   9.4333   9.4333  22.1298  29.8282
    32.2648  32.2648

          k =-0.4000 0.4000-0.4000 (  1023 PWs)   bands (ev):

     6.5402   8.1246   8.1246   9.7840   9.7840  10.9230  18.5343  29.1193
    31.4665  31.4665

          k = 0.5000-0.5000 0.5000 (  1008 PWs)   bands (ev):

     6.4838   8.0703   8.0703   9.9345   9.9345  12.4523  16.4833  28.8419
    31.1062  31.1062

          k = 0.0000 0.2000 0.0000 (  1002 PWs)   bands (ev):

     5.4797   7.9348   8.2472   8.2472   8.9787   9.2025  29.8109  31.6848
    31.7500  31.7500

          k =-0.1000 0.3000-0.1000 (  1002 PWs)   bands (ev):

     6.1146   7.7918   8.3903   8.4101   8.9434   9.2905  27.5937  30.1899
    30.7085  32.9625

          k =-0.2000 0.4000-0.2000 (  1012 PWs)   bands (ev):

     6.7382   8.0384   8.2677   8.4349   9.5345   9.5366  23.6217  29.7113
    29.9498  32.4901

          k =-0.3000 0.5000-0.3000 (  1019 PWs)   bands (ev):

     6.7404   8.0663   8.3227   8.8433   9.8380  10.9990  19.8360  28.9541
    29.5853  30.8736

          k = 0.6000-0.4000 0.6000 (  1015 PWs)   bands (ev):

     6.6587   7.9673   8.2249   9.3468   9.9448  12.9748  16.8704  28.2402
    29.8592  29.9200

          k = 0.5000-0.3000 0.5000 (  1016 PWs)   bands (ev):

     6.6900   8.0038   8.2226   9.3713   9.7462  12.4010  17.6869  27.7973
    29.9136  30.9666

          k = 0.4000-0.2000 0.4000 (  1015 PWs)   bands (ev):

     6.8029   8.1274   8.3252   8.7949   9.3307  10.6118  21.0720  27.8051
    30.7596  32.9031

          k = 0.3000-0.1000 0.3000 (  1007 PWs)   bands (ev):

     6.6239   7.8999   8.3635   8.4362   8.9455   9.6582  24.9570  28.1961
    32.1608  34.3244

          k = 0.2000 0.0000 0.2000 (   997 PWs)   bands (ev):

     5.8556   7.8981   8.2989   8.3222   8.9504   9.2476  28.7384  28.9149
    32.2777  34.5146

          k = 0.0000 0.4000 0.0000 (   998 PWs)   bands (ev):

     6.4982   7.5337   8.6789   8.6789   8.7873   9.3889  29.0346  29.0346
    29.8450  29.9143

          k =-0.1000 0.5000-0.1000 (  1011 PWs)   bands (ev):

     6.9722   7.3921   8.5156   8.8424   9.5892   9.6396  25.4447  27.8949
    28.8889  30.4098

          k =-0.2000 0.6000-0.2000 (  1017 PWs)   bands (ev):

     6.9901   7.6604   8.3839   8.7759   9.8806  11.3384  21.5688  27.1485
    27.3986  29.9716

          k = 0.7000-0.3000 0.7000 (  1015 PWs)   bands (ev):

     6.9618   7.7531   8.5548   8.6524   9.9732  13.6561  18.1118  25.5969
    27.6979  29.6919

          k = 0.6000-0.2000 0.6000 (  1012 PWs)   bands (ev):

     7.0602   7.7716   8.5826   8.6614   9.7490  14.4649  17.2733  24.5355
    28.8640  29.7683

          k = 0.5000-0.1000 0.5000 (  1021 PWs)   bands (ev):

     7.2620   7.8675   8.3830   8.6120   9.2992  12.3423  20.5034  24.1026
    30.3722  30.7859

          k = 0.4000 0.0000 0.4000 (  1015 PWs)   bands (ev):

     7.3275   7.6791   8.2556   8.7228   8.8281  10.7129  24.1432  24.4304
    31.5248  33.1811

          k = 0.0000 0.6000 0.0000 (  1018 PWs)   bands (ev):

     6.9123   7.0699   9.2954   9.2954   9.6258   9.9073  26.3711  26.3711
    26.7094  29.9013

          k =-0.1000 0.7000-0.1000 (  1027 PWs)   bands (ev):

     6.8500   6.9914   9.2037   9.3598   9.8885  11.6416  23.5036  24.5777
    25.5761  29.9684

          k = 0.8000-0.2000 0.8000 (  1026 PWs)   bands (ev):

     6.8540   7.2116   8.8963   9.2328  10.0139  14.0630  20.0624  22.7921
    25.6869  29.8405

          k = 0.7000-0.1000 0.7000 (  1015 PWs)   bands (ev):

     7.0298   7.5649   8.5026   9.0872   9.8138  16.6899  17.2979  21.4598
    26.7355  29.8025

          k = 0.6000-0.0000 0.6000 (  1019 PWs)   bands (ev):

     7.3243   7.9561   8.0296   8.9144   9.4660  14.4394  20.0414  20.9975
    28.5423  29.9791

          k = 0.0000 0.8000 0.0000 (  1022 PWs)   bands (ev):

     6.6020   6.7169   9.8231   9.8880   9.8880  12.4935  22.2417  24.4396
    24.4396  29.9539

          k = 0.9000-0.1000 0.9000 (  1021 PWs)   bands (ev):

     6.5808   6.7300   9.7371   9.7385  10.0736  14.3384  20.4847  22.4227
    24.2506  29.9713

          k = 0.8000 0.0000 0.8000 (  1021 PWs)   bands (ev):

     6.7494   7.0586   9.1465   9.5193   9.9619  16.3523  19.3778  20.0291
    25.0820  29.8843

          k = 0.0000-1.0000 0.0000 (  1034 PWs)   bands (ev):

     6.4394   6.5867   9.8998  10.1449  10.1449  14.4805  19.6108  23.7210
    23.7210  29.9752

          k =-0.2000 0.4000 0.0000 (  1014 PWs)   bands (ev):

     6.7760   7.6030   8.3292   8.6798   8.9880   9.6824  26.5464  26.8171
    31.3483  32.2300

          k =-0.3000 0.5000-0.1000 (  1018 PWs)   bands (ev):

     7.1261   7.8691   8.0850   8.7239   9.3533  10.7508  22.7215  26.1617
    29.5118  32.5138

          k = 0.6000-0.4000 0.8000 (  1018 PWs)   bands (ev):

     7.0048   7.8599   8.4282   8.6806   9.7464  12.6005  19.0699  26.1369
    27.9104  31.6359

          k = 0.5000-0.3000 0.7000 (  1030 PWs)   bands (ev):

     6.9487   7.7722   8.4907   8.8269   9.8760  14.3909  16.6845  26.6710
    26.8014  31.2364

          k =-0.2000 0.6000 0.0000 (  1028 PWs)   bands (ev):

     7.1701   7.2094   8.4885   9.2880   9.4885  10.9280  24.5436  24.7517
    26.9555  31.7761

          k = 0.7000-0.3000 0.9000 (  1022 PWs)   bands (ev):

     7.1045   7.4371   8.3379   9.1929   9.7989  12.9315  20.9493  24.4346
    25.1148  31.8654

          k = 0.6000-0.2000 0.8000 (  1023 PWs)   bands (ev):

     7.1768   7.5763   8.3069   8.9726   9.8962  15.4715  17.6985  23.5704
    25.0427  31.8092

          k = 0.5000-0.1000 0.7000 (  1020 PWs)   bands (ev):

     7.4008   7.6125   8.1465   8.9305   9.6905  14.6798  18.8133  22.6368
    26.1974  32.2792

          k = 0.4000 0.0000 0.6000 (  1027 PWs)   bands (ev):

     7.5867   7.7202   7.8004   9.0606   9.3016  12.4609  22.3053  22.3902
    27.7570  33.3303

          k = 0.8000-0.2000 1.0000 (  1018 PWs)   bands (ev):

     6.8258   6.9017   9.1016   9.7278   9.8844  13.4062  22.3165  23.1162
    23.2716  31.4885

          k = 0.7000-0.1000 0.9000 (  1018 PWs)   bands (ev):

     6.9106   7.1510   8.7752   9.4269  10.0309  15.8255  19.8484  21.0068
    23.5435  31.7468

          k = 0.6000 0.0000 0.8000 (  1022 PWs)   bands (ev):

     7.1452   7.5586   8.2744   9.1623   9.8803  17.1017  18.3175  20.2918
    24.6546  31.9698

          k =-0.2000-1.0000 0.0000 (  1016 PWs)   bands (ev):

     6.6537   6.7872   9.4704   9.6872  10.1453  15.4967  19.6714  22.4821
    22.6293  31.4008

          k = 0.6000-0.2000 1.0000 (  1031 PWs)   bands (ev):

     7.2941   7.4426   8.1034   9.2692   9.8768  15.1109  20.7200  21.2505
    23.4037  34.6224

          k = 0.5000-0.1000 0.9000 (  1022 PWs)   bands (ev):

     7.2805   7.6806   7.9270   9.1236  10.0186  17.6862  17.8752  21.5329
    22.3796  34.5447

          k =-0.4000-1.0000 0.0000 (  1028 PWs)   bands (ev):

     7.0974   7.3807   8.3281   9.2410  10.1459  17.6304  19.8730  20.1070
    21.3030  34.4387

     the Fermi energy is    12.8224 ev

!    total energy              =     -84.27226435 Ry
     Harris-Foulkes estimate   =     -84.27226436 Ry
     estimated scf accuracy    <          3.6E-10 Ry

     The total energy is the sum of the following terms:

     one-electron contribution =      -4.71783511 Ry
     hartree contribution      =      14.65897829 Ry
     xc contribution           =     -22.35202733 Ry
     ewald contribution        =     -71.86118018 Ry
     smearing contrib. (-TS)   =      -0.00020002 Ry

     convergence has been achieved in   6 iterations

     Forces acting on atoms (cartesian axes, Ry/au):

     atom    1 type  1   force =     0.00000000    0.00000000    0.00000000

     Total force =     0.000000     Total SCF correction =     0.000000


     Computing stress (Cartesian axis) and pressure

          total   stress  (Ry/bohr**3)                   (kbar)     P=   53.40
   0.00036301  -0.00000000  -0.00000000         53.40     -0.00     -0.00
  -0.00000000   0.00036301   0.00000000         -0.00     53.40      0.00
  -0.00000000   0.00000000   0.00036301         -0.00      0.00     53.40


     Writing output data file Ag.save/

     init_run     :      0.36s CPU      0.37s WALL (       1 calls)
     electrons    :      3.49s CPU      3.64s WALL (       1 calls)
     forces       :      0.05s CPU      0.05s WALL (       1 calls)
     stress       :      0.18s CPU      0.18s WALL (       1 calls)

     Called by init_run:
     wfcinit      :      0.16s CPU      0.17s WALL (       1 calls)
     potinit      :      0.01s CPU      0.01s WALL (       1 calls)
     hinit0       :      0.17s CPU      0.17s WALL (       1 calls)

     Called by electrons:
     c_bands      :      2.87s CPU      2.99s WALL (       7 calls)
     sum_band     :      0.54s CPU      0.57s WALL (       7 calls)
     v_of_rho     :      0.04s CPU      0.04s WALL (       7 calls)
     newd         :      0.05s CPU      0.05s WALL (       7 calls)
     mix_rho      :      0.00s CPU      0.00s WALL (       7 calls)

     Called by c_bands:
     init_us_2    :      0.10s CPU      0.10s WALL (     799 calls)
     cegterg      :      2.74s CPU      2.85s WALL (     329 calls)

     Called by sum_band:
     sum_band:bec :      0.00s CPU      0.00s WALL (     329 calls)
     addusdens    :      0.05s CPU      0.06s WALL (       7 calls)

     Called by *egterg:
     h_psi        :      2.23s CPU      2.33s WALL (    1237 calls)
     s_psi        :      0.07s CPU      0.07s WALL (    1237 calls)
     g_psi        :      0.01s CPU      0.01s WALL (     861 calls)
     cdiaghg      :      0.23s CPU      0.24s WALL (    1143 calls)

     Called by h_psi:
     h_psi:pot    :      2.22s CPU      2.32s WALL (    1237 calls)
     h_psi:calbec :      0.10s CPU      0.10s WALL (    1237 calls)
     vloc_psi     :      2.04s CPU      2.13s WALL (    1237 calls)
     add_vuspsi   :      0.07s CPU      0.07s WALL (    1237 calls)

     General routines
     calbec       :      0.16s CPU      0.16s WALL (    1801 calls)
     fft          :      0.03s CPU      0.03s WALL (     104 calls)
     ffts         :      0.00s CPU      0.00s WALL (       7 calls)
     fftw         :      2.27s CPU      2.37s WALL (   20624 calls)

     Parallel routines
     fft_scatt_xy :      0.19s CPU      0.20s WALL (   20735 calls)
     fft_scatt_yz :      0.57s CPU      0.60s WALL (   20735 calls)

     PWSCF        :     4.85s CPU         5.07s WALL


   This run was terminated on:   0:27:43  27Mar2024            

=------------------------------------------------------------------------------=
   JOB DONE.
=------------------------------------------------------------------------------=
