
     Program PWSCF v.6.3MaX starts on 27Mar2024 at  0:22:27 

     This program is part of the open-source Quantum ESPRESSO suite
     for quantum simulation of materials; please cite
         "P. Giannozzi et al., J. Phys.:Condens. Matter 21 395502 (2009);
         "P. Giannozzi et al., J. Phys.:Condens. Matter 29 465901 (2017);
          URL http://www.quantum-espresso.org", 
     in publications or presentations arising from this work. More details at
     http://www.quantum-espresso.org/quote

     Parallel version (MPI), running on     5 processors

     MPI processes distributed on     1 nodes
     R & G space division:  proc/nbgrp/npool/nimage =       5
     Waiting for input...
     Reading input from standard input

     Current dimensions of program PWSCF are:
     Max number of different atomic species (ntypx) = 10
     Max number of k-points (npk) =  40000
     Max angular momentum in pseudopotentials (lmaxx) =  3
               file Ag.pbesol-n-kjpaw_psl.1.0.0.UPF: wavefunction(s)  5S 5P renormalized

     Subspace diagonalization in iterative solution of the eigenvalue problem:
     a serial algorithm will be used


     Parallelization info
     --------------------
     sticks:   dense  smooth     PW     G-vecs:    dense   smooth      PW
     Min          84      84     27                 1115     1115     207
     Max          85      85     28                 1117     1117     208
     Sum         421     421    139                 5577     5577    1037



     bravais-lattice index     =            2
     lattice parameter (alat)  =       7.7200  a.u.
     unit-cell volume          =     115.0249 (a.u.)^3
     number of atoms/cell      =            1
     number of atomic types    =            1
     number of electrons       =        11.00
     number of Kohn-Sham states=           10
     kinetic-energy cutoff     =      50.0000  Ry
     charge density cutoff     =     200.0000  Ry
     convergence threshold     =      1.0E-08
     mixing beta               =       0.7000
     number of iterations used =            8  plain     mixing
     Exchange-correlation      = SLA PW PSX PSC ( 1  4 10  8 0 0)

     celldm(1)=   7.720000  celldm(2)=   0.000000  celldm(3)=   0.000000
     celldm(4)=   0.000000  celldm(5)=   0.000000  celldm(6)=   0.000000

     crystal axes: (cart. coord. in units of alat)
               a(1) = (  -0.500000   0.000000   0.500000 )  
               a(2) = (   0.000000   0.500000   0.500000 )  
               a(3) = (  -0.500000   0.500000   0.000000 )  

     reciprocal axes: (cart. coord. in units 2 pi/alat)
               b(1) = ( -1.000000 -1.000000  1.000000 )  
               b(2) = (  1.000000  1.000000  1.000000 )  
               b(3) = ( -1.000000  1.000000 -1.000000 )  


     PseudoPot. # 1 for Ag read from file:
     /home/lorenzo/pseudos/Ag/Ag.pbesol-n-kjpaw_psl.1.0.0.UPF
     MD5 check sum: 3b245e14fa22881b2ac493bfd23f605f
     Pseudo is Projector augmented-wave + core cor, Zval = 11.0
     Generated using "atomic" code by A. Dal Corso v.6.2.2
     Shape of augmentation charge: PSQ
     Using radial grid of 1237 points,  6 beta functions with: 
                l(1) =   0
                l(2) =   0
                l(3) =   1
                l(4) =   1
                l(5) =   2
                l(6) =   2
     Q(r) pseudized with 0 coefficients 


     atomic species   valence    mass     pseudopotential
        Ag            11.00   107.86820     Ag( 1.00)

     48 Sym. Ops., with inversion, found



   Cartesian axes

     site n.     atom                  positions (alat units)
         1           Ag  tau(   1) = (   0.0000000   0.0000000   0.0000000  )

     number of k points=    35  gaussian smearing, width (Ry)=  0.0100
                       cart. coord. in units 2pi/alat
        k(    1) = (   0.0000000   0.0000000   0.0000000), wk =   0.0027435
        k(    2) = (  -0.1111111   0.1111111  -0.1111111), wk =   0.0219479
        k(    3) = (  -0.2222222   0.2222222  -0.2222222), wk =   0.0219479
        k(    4) = (  -0.3333333   0.3333333  -0.3333333), wk =   0.0219479
        k(    5) = (  -0.4444444   0.4444444  -0.4444444), wk =   0.0219479
        k(    6) = (   0.0000000   0.2222222   0.0000000), wk =   0.0164609
        k(    7) = (  -0.1111111   0.3333333  -0.1111111), wk =   0.0658436
        k(    8) = (  -0.2222222   0.4444444  -0.2222222), wk =   0.0658436
        k(    9) = (  -0.3333333   0.5555556  -0.3333333), wk =   0.0658436
        k(   10) = (   0.5555556  -0.3333333   0.5555556), wk =   0.0658436
        k(   11) = (   0.4444444  -0.2222222   0.4444444), wk =   0.0658436
        k(   12) = (   0.3333333  -0.1111111   0.3333333), wk =   0.0658436
        k(   13) = (   0.2222222  -0.0000000   0.2222222), wk =   0.0329218
        k(   14) = (   0.0000000   0.4444444   0.0000000), wk =   0.0164609
        k(   15) = (  -0.1111111   0.5555556  -0.1111111), wk =   0.0658436
        k(   16) = (  -0.2222222   0.6666667  -0.2222222), wk =   0.0658436
        k(   17) = (   0.6666667  -0.2222222   0.6666667), wk =   0.0658436
        k(   18) = (   0.5555556  -0.1111111   0.5555556), wk =   0.0658436
        k(   19) = (   0.4444444   0.0000000   0.4444444), wk =   0.0329218
        k(   20) = (   0.0000000   0.6666667   0.0000000), wk =   0.0164609
        k(   21) = (  -0.1111111   0.7777778  -0.1111111), wk =   0.0658436
        k(   22) = (   0.7777778  -0.1111111   0.7777778), wk =   0.0658436
        k(   23) = (   0.6666667  -0.0000000   0.6666667), wk =   0.0329218
        k(   24) = (   0.0000000   0.8888889   0.0000000), wk =   0.0164609
        k(   25) = (   0.8888889   0.0000000   0.8888889), wk =   0.0329218
        k(   26) = (  -0.2222222   0.4444444   0.0000000), wk =   0.0658436
        k(   27) = (  -0.3333333   0.5555556  -0.1111111), wk =   0.1316872
        k(   28) = (   0.5555556  -0.3333333   0.7777778), wk =   0.1316872
        k(   29) = (  -0.2222222   0.6666667   0.0000000), wk =   0.0658436
        k(   30) = (   0.6666667  -0.2222222   0.8888889), wk =   0.1316872
        k(   31) = (   0.5555556  -0.1111111   0.7777778), wk =   0.1316872
        k(   32) = (   0.4444444   0.0000000   0.6666667), wk =   0.0658436
        k(   33) = (   0.7777778  -0.1111111   1.0000000), wk =   0.0658436
        k(   34) = (   0.6666667  -0.0000000   0.8888889), wk =   0.0658436
        k(   35) = (   0.5555556  -0.1111111   1.0000000), wk =   0.0658436

     Dense  grid:     5577 G-vectors     FFT dimensions: (  25,  25,  25)

     Estimated max dynamical RAM per process >       6.29 MB

     Estimated total dynamical RAM >      31.45 MB

     Initial potential from superposition of free atoms

     starting charge   10.99964, renormalised to   11.00000
     Starting wfcs are    9 randomized atomic wfcs +    1 random wfcs
     Checking if some PAW data can be deallocated... 

     total cpu time spent up to now is        1.2 secs

     Self-consistent Calculation

     iteration #  1     ecut=    50.00 Ry     beta= 0.70
     Davidson diagonalization with overlap
     ethr =  1.00E-02,  avg # of iterations =  4.4

     Threshold (ethr) on eigenvalues was too large:
     Diagonalizing with lowered threshold

     Davidson diagonalization with overlap
     ethr =  4.81E-05,  avg # of iterations =  2.5

     total cpu time spent up to now is        1.9 secs

     total energy              =    -350.23465899 Ry
     Harris-Foulkes estimate   =    -350.23836252 Ry
     estimated scf accuracy    <       0.00569558 Ry

     iteration #  2     ecut=    50.00 Ry     beta= 0.70
     Davidson diagonalization with overlap
     ethr =  5.18E-05,  avg # of iterations =  2.0

     total cpu time spent up to now is        2.3 secs

     total energy              =    -350.23625475 Ry
     Harris-Foulkes estimate   =    -350.23831252 Ry
     estimated scf accuracy    <       0.00424981 Ry

     iteration #  3     ecut=    50.00 Ry     beta= 0.70
     Davidson diagonalization with overlap
     ethr =  3.86E-05,  avg # of iterations =  1.7

     total cpu time spent up to now is        2.7 secs

     total energy              =    -350.23708003 Ry
     Harris-Foulkes estimate   =    -350.23706153 Ry
     estimated scf accuracy    <       0.00001554 Ry

     iteration #  4     ecut=    50.00 Ry     beta= 0.70
     Davidson diagonalization with overlap
     ethr =  1.41E-07,  avg # of iterations =  2.9

     total cpu time spent up to now is        3.2 secs

     total energy              =    -350.23708878 Ry
     Harris-Foulkes estimate   =    -350.23708857 Ry
     estimated scf accuracy    <       0.00000046 Ry

     iteration #  5     ecut=    50.00 Ry     beta= 0.70
     Davidson diagonalization with overlap
     ethr =  4.22E-09,  avg # of iterations =  1.1

     total cpu time spent up to now is        3.6 secs

     End of self-consistent calculation

          k = 0.0000 0.0000 0.0000 (   701 PWs)   bands (ev):

     4.8062   7.9180   7.9180   7.9180   8.9695   8.9695  29.5468  32.8298
    32.8298  32.8298

          k =-0.1111 0.1111-0.1111 (   685 PWs)   bands (ev):

     5.1829   7.8413   8.0177   8.0177   8.9388   8.9388  28.9625  30.5751
    32.7985  32.7985

          k =-0.2222 0.2222-0.2222 (   679 PWs)   bands (ev):

     6.0554   7.9266   8.1315   8.1315   9.0231   9.0231  24.9394  30.1187
    32.5129  32.5129

          k =-0.3333 0.3333-0.3333 (   685 PWs)   bands (ev):

     6.3836   8.0326   8.0326   9.2997   9.3958   9.3958  20.6243  29.3151
    31.7190  31.7190

          k =-0.4444 0.4444-0.4444 (   682 PWs)   bands (ev):

     6.2989   7.9146   7.9146   9.7254   9.7254  11.5877  17.0175  28.6791
    30.9460  30.9460

          k = 0.0000 0.2222 0.0000 (   681 PWs)   bands (ev):

     5.3096   7.7213   8.1071   8.1071   8.7832   9.0564  29.5628  31.2193
    31.2193  31.2246

          k =-0.1111 0.3333-0.1111 (   681 PWs)   bands (ev):

     6.0588   7.5634   8.2304   8.2877   8.8222   9.1779  26.6641  29.8378
    30.0305  32.5618

          k =-0.2222 0.4444-0.2222 (   690 PWs)   bands (ev):

     6.5997   7.9940   8.0160   8.2701   9.4893   9.7527  22.2579  29.1842
    29.2584  31.3993

          k =-0.3333 0.5556-0.3333 (   692 PWs)   bands (ev):

     6.5291   7.8149   8.1367   8.8200   9.7645  11.7181  18.2494  28.2315
    29.1046  29.9277

          k = 0.5556-0.3333 0.5556 (   684 PWs)   bands (ev):

     6.4959   7.7730   8.0694   9.1606   9.7092  13.0729  16.4378  27.4066
    29.4804  29.8829

          k = 0.4444-0.2222 0.4444 (   681 PWs)   bands (ev):

     6.6006   7.8864   8.1346   8.8038   9.3109  11.1093  19.5301  27.1212
    30.0898  31.7146

          k = 0.3333-0.1111 0.3333 (   677 PWs)   bands (ev):

     6.5661   7.7688   8.1769   8.2810   8.8224   9.7429  23.7299  27.4162
    31.5897  34.2323

          k = 0.2222-0.0000 0.2222 (   682 PWs)   bands (ev):

     5.7613   7.6837   8.1699   8.1726   8.7527   9.1427  28.0889  28.0904
    32.1474  34.4179

          k = 0.0000 0.4444 0.0000 (   685 PWs)   bands (ev):

     6.4594   7.2475   8.6328   8.6328   8.6674   9.2799  28.1466  28.1466
    29.2283  29.6148

          k =-0.1111 0.5556-0.1111 (   684 PWs)   bands (ev):

     6.8139   7.1280   8.4248   8.7847   9.5340   9.9443  24.2997  26.9724
    27.5836  29.9088

          k =-0.2222 0.6667-0.2222 (   690 PWs)   bands (ev):

     6.7744   7.4073   8.2987   8.6757   9.8056  12.1660  20.1256  25.5509
    26.6952  29.5803

          k = 0.6667-0.2222 0.6667 (   688 PWs)   bands (ev):

     6.8422   7.5299   8.3605   8.5486   9.7322  14.8452  16.7685  23.9899
    27.4887  29.4520

          k = 0.5556-0.1111 0.5556 (   687 PWs)   bands (ev):

     7.0701   7.6223   8.2092   8.5094   9.3079  13.2577  19.0352  23.1347
    29.3044  29.7998

          k = 0.4444 0.0000 0.4444 (   676 PWs)   bands (ev):

     7.2731   7.5089   8.0139   8.5530   8.7992  11.1624  23.0102  23.1744
    30.7429  31.8220

          k = 0.0000 0.6667 0.0000 (   693 PWs)   bands (ev):

     6.6257   6.7474   9.3420   9.3420   9.5417  10.4387  24.9409  25.3537
    25.3537  29.6863

          k =-0.1111 0.7778-0.1111 (   687 PWs)   bands (ev):

     6.5521   6.7043   9.2149   9.3379   9.8284  12.5478  22.2205  22.8157
    24.7246  29.7093

          k = 0.7778-0.1111 0.7778 (   693 PWs)   bands (ev):

     6.6491   7.0223   8.7393   9.1712   9.8019  15.4290  18.8188  20.9396
    25.2953  29.6045

          k = 0.6667-0.0000 0.6667 (   680 PWs)   bands (ev):

     6.9398   7.5164   8.1409   8.9253   9.4928  15.7961  18.4625  20.1926
    26.9543  29.6080

          k = 0.0000 0.8889 0.0000 (   684 PWs)   bands (ev):

     6.3015   6.4403   9.7185   9.8990   9.8990  13.4282  20.3621  23.6764
    23.6764  29.7374

          k = 0.8889 0.0000 0.8889 (   696 PWs)   bands (ev):

     6.3694   6.5369   9.5766   9.6096   9.9251  14.8891  19.4074  21.7256
    23.8861  29.7348

          k =-0.2222 0.4444 0.0000 (   686 PWs)   bands (ev):

     6.7824   7.3518   8.0864   8.6325   8.8901   9.7809  25.5237  25.8269
    30.2482  32.2003

          k =-0.3333 0.5556-0.1111 (   685 PWs)   bands (ev):

     6.9687   7.7316   7.8388   8.6249   9.3294  11.2829  21.3462  25.2308
    28.1983  32.1682

          k = 0.5556-0.3333 0.7778 (   688 PWs)   bands (ev):

     6.8557   7.5665   8.3321   8.5172   9.6652  13.6292  17.5480  25.4958
    26.5414  31.3566

          k =-0.2222 0.6667 0.0000 (   680 PWs)   bands (ev):

     6.9271   6.9420   8.4000   9.3343   9.4028  11.5886  23.4421  23.6149
    25.2667  31.7269

          k = 0.6667-0.2222 0.8889 (   685 PWs)   bands (ev):

     6.9081   7.2031   8.1955   9.0842   9.7324  14.0946  19.6198  23.1621
    23.7817  31.8656

          k = 0.5556-0.1111 0.7778 (   691 PWs)   bands (ev):

     7.0974   7.4098   7.9865   8.8568   9.6830  16.1055  17.4035  21.8480
    24.6723  32.0677

          k = 0.4444 0.0000 0.6667 (   690 PWs)   bands (ev):

     7.4385   7.4789   7.5991   8.9123   9.3403  13.4264  20.9128  21.3498
    26.2705  32.8470

          k = 0.7778-0.1111 1.0000 (   686 PWs)   bands (ev):

     6.5670   6.6820   9.0315   9.5181   9.8974  14.5635  20.5032  22.1833
    22.3887  31.4722

          k = 0.6667-0.0000 0.8889 (   692 PWs)   bands (ev):

     6.7686   7.0455   8.4876   9.1858   9.8911  16.8449  18.9035  19.8206
    23.1172  31.8603

          k = 0.5556-0.1111 1.0000 (   694 PWs)   bands (ev):

     7.0399   7.3912   7.8477   9.0202   9.8935  16.6664  19.4959  20.3660
    21.7452  35.0375

     the Fermi energy is    12.9251 ev

!    total energy              =    -350.23708880 Ry
     Harris-Foulkes estimate   =    -350.23708880 Ry
     estimated scf accuracy    <          2.7E-09 Ry

     total all-electron energy =    -10627.247498 Ry

     The total energy is the sum of the following terms:

     one-electron contribution =       1.61328751 Ry
     hartree contribution      =      14.56476037 Ry
     xc contribution           =     -22.14176657 Ry
     ewald contribution        =     -71.86118022 Ry
     one-center paw contrib.   =    -272.41213223 Ry
     smearing contrib. (-TS)   =      -0.00005765 Ry

     convergence has been achieved in   5 iterations

     Forces acting on atoms (cartesian axes, Ry/au):

     atom    1 type  1   force =     0.00000000    0.00000000    0.00000000

     Total force =     0.000000     Total SCF correction =     0.000000


     Computing stress (Cartesian axis) and pressure

          total   stress  (Ry/bohr**3)                   (kbar)     P=  -42.74
  -0.00029057   0.00000000   0.00000000        -42.74      0.00      0.00
   0.00000000  -0.00029057  -0.00000000          0.00    -42.74     -0.00
   0.00000000  -0.00000000  -0.00029057          0.00     -0.00    -42.74


     Writing output data file Ag.save/

     init_run     :      0.33s CPU      0.35s WALL (       1 calls)
     electrons    :      2.22s CPU      2.42s WALL (       1 calls)
     forces       :      0.04s CPU      0.04s WALL (       1 calls)
     stress       :      0.12s CPU      0.12s WALL (       1 calls)

     Called by init_run:
     wfcinit      :      0.07s CPU      0.08s WALL (       1 calls)
     potinit      :      0.10s CPU      0.11s WALL (       1 calls)
     hinit0       :      0.14s CPU      0.14s WALL (       1 calls)

     Called by electrons:
     c_bands      :      1.38s CPU      1.48s WALL (       6 calls)
     sum_band     :      0.27s CPU      0.29s WALL (       6 calls)
     v_of_rho     :      0.02s CPU      0.02s WALL (       6 calls)
     newd         :      0.04s CPU      0.04s WALL (       6 calls)
     PAW_pot      :      0.60s CPU      0.68s WALL (       6 calls)
     mix_rho      :      0.00s CPU      0.00s WALL (       6 calls)

     Called by c_bands:
     init_us_2    :      0.04s CPU      0.05s WALL (     525 calls)
     cegterg      :      1.32s CPU      1.42s WALL (     210 calls)

     Called by sum_band:
     sum_band:bec :      0.00s CPU      0.00s WALL (     210 calls)
     addusdens    :      0.03s CPU      0.03s WALL (       6 calls)

     Called by *egterg:
     h_psi        :      1.05s CPU      1.13s WALL (     755 calls)
     s_psi        :      0.03s CPU      0.03s WALL (     755 calls)
     g_psi        :      0.00s CPU      0.00s WALL (     510 calls)
     cdiaghg      :      0.13s CPU      0.14s WALL (     685 calls)

     Called by h_psi:
     h_psi:pot    :      1.05s CPU      1.12s WALL (     755 calls)
     h_psi:calbec :      0.05s CPU      0.05s WALL (     755 calls)
     vloc_psi     :      0.97s CPU      1.03s WALL (     755 calls)
     add_vuspsi   :      0.03s CPU      0.03s WALL (     755 calls)

     General routines
     calbec       :      0.08s CPU      0.08s WALL (    1140 calls)
     fft          :      0.02s CPU      0.02s WALL (      93 calls)
     ffts         :      0.00s CPU      0.00s WALL (       6 calls)
     fftw         :      1.09s CPU      1.16s WALL (   13002 calls)

     Parallel routines
     fft_scatt_xy :      0.08s CPU      0.09s WALL (   13101 calls)
     fft_scatt_yz :      0.33s CPU      0.35s WALL (   13101 calls)

     PWSCF        :     3.55s CPU         3.83s WALL


   This run was terminated on:   0:22:31  27Mar2024            

=------------------------------------------------------------------------------=
   JOB DONE.
=------------------------------------------------------------------------------=
