
     Program PWSCF v.6.3MaX starts on 27Mar2024 at  0: 6:33 

     This program is part of the open-source Quantum ESPRESSO suite
     for quantum simulation of materials; please cite
         "P. Giannozzi et al., J. Phys.:Condens. Matter 21 395502 (2009);
         "P. Giannozzi et al., J. Phys.:Condens. Matter 29 465901 (2017);
          URL http://www.quantum-espresso.org", 
     in publications or presentations arising from this work. More details at
     http://www.quantum-espresso.org/quote

     Parallel version (MPI), running on     5 processors

     MPI processes distributed on     1 nodes
     R & G space division:  proc/nbgrp/npool/nimage =       5
     Waiting for input...
     Reading input from standard input

     Current dimensions of program PWSCF are:
     Max number of different atomic species (ntypx) = 10
     Max number of k-points (npk) =  40000
     Max angular momentum in pseudopotentials (lmaxx) =  3
               file Ag.pbe-n-kjpaw_psl.1.0.0.UPF: wavefunction(s)  5S 5P renormalized

     Subspace diagonalization in iterative solution of the eigenvalue problem:
     a serial algorithm will be used


     Parallelization info
     --------------------
     sticks:   dense  smooth     PW     G-vecs:    dense   smooth      PW
     Min          24      24      8                  178      178      36
     Max          25      25      9                  181      181      37
     Sum         121     121     43                  893      893     181



     bravais-lattice index     =            2
     lattice parameter (alat)  =       7.7200  a.u.
     unit-cell volume          =     115.0249 (a.u.)^3
     number of atoms/cell      =            1
     number of atomic types    =            1
     number of electrons       =        11.00
     number of Kohn-Sham states=           10
     kinetic-energy cutoff     =      15.0000  Ry
     charge density cutoff     =      60.0000  Ry
     convergence threshold     =      1.0E-08
     mixing beta               =       0.7000
     number of iterations used =            8  plain     mixing
     Exchange-correlation      = SLA PW PBX PBC ( 1  4  3  4 0 0)

     celldm(1)=   7.720000  celldm(2)=   0.000000  celldm(3)=   0.000000
     celldm(4)=   0.000000  celldm(5)=   0.000000  celldm(6)=   0.000000

     crystal axes: (cart. coord. in units of alat)
               a(1) = (  -0.500000   0.000000   0.500000 )  
               a(2) = (   0.000000   0.500000   0.500000 )  
               a(3) = (  -0.500000   0.500000   0.000000 )  

     reciprocal axes: (cart. coord. in units 2 pi/alat)
               b(1) = ( -1.000000 -1.000000  1.000000 )  
               b(2) = (  1.000000  1.000000  1.000000 )  
               b(3) = ( -1.000000  1.000000 -1.000000 )  


     PseudoPot. # 1 for Ag read from file:
     /home/lorenzo/pseudos/Ag/Ag.pbe-n-kjpaw_psl.1.0.0.UPF
     MD5 check sum: 51099775af2a3182a6a1caffb86952a3
     Pseudo is Projector augmented-wave + core cor, Zval = 11.0
     Generated using "atomic" code by A. Dal Corso v.6.2.2
     Shape of augmentation charge: PSQ
     Using radial grid of 1237 points,  6 beta functions with: 
                l(1) =   0
                l(2) =   0
                l(3) =   1
                l(4) =   1
                l(5) =   2
                l(6) =   2
     Q(r) pseudized with 0 coefficients 


     atomic species   valence    mass     pseudopotential
        Ag            11.00   107.86820     Ag( 1.00)

     48 Sym. Ops., with inversion, found



   Cartesian axes

     site n.     atom                  positions (alat units)
         1           Ag  tau(   1) = (   0.0000000   0.0000000   0.0000000  )

     number of k points=     3  gaussian smearing, width (Ry)=  0.0100
                       cart. coord. in units 2pi/alat
        k(    1) = (   0.0000000   0.0000000   0.0000000), wk =   0.2500000
        k(    2) = (   0.5000000  -0.5000000   0.5000000), wk =   1.0000000
        k(    3) = (   0.0000000  -1.0000000   0.0000000), wk =   0.7500000

     Dense  grid:      893 G-vectors     FFT dimensions: (  15,  15,  15)

     Estimated max dynamical RAM per process >       1.46 MB

     Estimated total dynamical RAM >       7.31 MB

     Check: negative/imaginary core charge=   -0.000001    0.000000

     Initial potential from superposition of free atoms

     starting charge   10.99960, renormalised to   11.00000
     Starting wfcs are    9 randomized atomic wfcs +    1 random wfcs
     Checking if some PAW data can be deallocated... 

     total cpu time spent up to now is        1.0 secs

     Self-consistent Calculation

     iteration #  1     ecut=    15.00 Ry     beta= 0.70
     Davidson diagonalization with overlap
     ethr =  1.00E-02,  avg # of iterations =  5.0

     total cpu time spent up to now is        1.1 secs

     total energy              =    -348.48054696 Ry
     Harris-Foulkes estimate   =    -351.16369244 Ry
     estimated scf accuracy    <       3.40343993 Ry

     iteration #  2     ecut=    15.00 Ry     beta= 0.70
     Davidson diagonalization with overlap
     ethr =  1.00E-02,  avg # of iterations =  2.3

     total cpu time spent up to now is        1.3 secs

     total energy              =    -349.56426704 Ry
     Harris-Foulkes estimate   =    -349.89153790 Ry
     estimated scf accuracy    <       0.69208030 Ry

     iteration #  3     ecut=    15.00 Ry     beta= 0.70
     Davidson diagonalization with overlap
     ethr =  6.29E-03,  avg # of iterations =  1.3

     total cpu time spent up to now is        1.4 secs

     total energy              =    -349.60203927 Ry
     Harris-Foulkes estimate   =    -349.62535759 Ry
     estimated scf accuracy    <       0.05027943 Ry

     iteration #  4     ecut=    15.00 Ry     beta= 0.70
     Davidson diagonalization with overlap
     ethr =  4.57E-04,  avg # of iterations =  2.3

     total cpu time spent up to now is        1.5 secs

     total energy              =    -349.60839871 Ry
     Harris-Foulkes estimate   =    -349.61433537 Ry
     estimated scf accuracy    <       0.01187528 Ry

     iteration #  5     ecut=    15.00 Ry     beta= 0.70
     Davidson diagonalization with overlap
     ethr =  1.08E-04,  avg # of iterations =  2.0

     total cpu time spent up to now is        1.6 secs

     total energy              =    -349.61146459 Ry
     Harris-Foulkes estimate   =    -349.61154063 Ry
     estimated scf accuracy    <       0.00011742 Ry

     iteration #  6     ecut=    15.00 Ry     beta= 0.70
     Davidson diagonalization with overlap
     ethr =  1.07E-06,  avg # of iterations =  2.7

     total cpu time spent up to now is        1.8 secs

     total energy              =    -349.61151257 Ry
     Harris-Foulkes estimate   =    -349.61152088 Ry
     estimated scf accuracy    <       0.00001986 Ry

     iteration #  7     ecut=    15.00 Ry     beta= 0.70
     Davidson diagonalization with overlap
     ethr =  1.81E-07,  avg # of iterations =  1.3

     total cpu time spent up to now is        1.9 secs

     total energy              =    -349.61151353 Ry
     Harris-Foulkes estimate   =    -349.61151406 Ry
     estimated scf accuracy    <       0.00000147 Ry

     iteration #  8     ecut=    15.00 Ry     beta= 0.70
     Davidson diagonalization with overlap
     ethr =  1.34E-08,  avg # of iterations =  2.0

     total cpu time spent up to now is        2.0 secs

     total energy              =    -349.61151362 Ry
     Harris-Foulkes estimate   =    -349.61151372 Ry
     estimated scf accuracy    <       0.00000022 Ry

     iteration #  9     ecut=    15.00 Ry     beta= 0.70
     Davidson diagonalization with overlap
     ethr =  1.98E-09,  avg # of iterations =  1.3

     total cpu time spent up to now is        2.1 secs

     total energy              =    -349.61151363 Ry
     Harris-Foulkes estimate   =    -349.61151364 Ry
     estimated scf accuracy    <       0.00000002 Ry

     iteration # 10     ecut=    15.00 Ry     beta= 0.70
     Davidson diagonalization with overlap
     ethr =  1.92E-10,  avg # of iterations =  2.0

     total cpu time spent up to now is        2.2 secs

     End of self-consistent calculation

          k = 0.0000 0.0000 0.0000 (   113 PWs)   bands (ev):

     5.0638   9.0711   9.0711   9.0711  10.0398  10.0398  31.0812  32.7714
    32.7714  32.7714

          k = 0.5000-0.5000 0.5000 (   108 PWs)   bands (ev):

     7.1008   9.5735   9.5735  12.1731  12.1731  12.6105  16.5141  30.0576
    30.0675  30.0675

          k = 0.0000-1.0000 0.0000 (   116 PWs)   bands (ev):

     4.6131   6.6311  11.1298  11.6162  11.6162  14.4348  18.8835  23.2968
    23.2968  30.7642

     the Fermi energy is    12.6754 ev

!    total energy              =    -349.61151363 Ry
     Harris-Foulkes estimate   =    -349.61151363 Ry
     estimated scf accuracy    <          2.6E-11 Ry

     total all-electron energy =    -10626.577567 Ry

     The total energy is the sum of the following terms:

     one-electron contribution =       8.88759626 Ry
     hartree contribution      =       9.85144390 Ry
     xc contribution           =     -21.13761996 Ry
     ewald contribution        =     -71.86118021 Ry
     one-center paw contrib.   =    -275.34950660 Ry
     smearing contrib. (-TS)   =      -0.00224703 Ry

     convergence has been achieved in  10 iterations

     Forces acting on atoms (cartesian axes, Ry/au):

     atom    1 type  1   force =     0.00000000    0.00000000    0.00000000

     Total force =     0.000000     Total SCF correction =     0.000000


     Computing stress (Cartesian axis) and pressure

          total   stress  (Ry/bohr**3)                   (kbar)     P=********
  -0.09648099   0.00000000   0.00000000     -14192.84      0.00      0.00
   0.00000000  -0.09648099  -0.00000000          0.00 -14192.84     -0.00
   0.00000000  -0.00000000  -0.09648099          0.00     -0.00 -14192.84


     Writing output data file Ag.save/

     init_run     :      0.20s CPU      0.22s WALL (       1 calls)
     electrons    :      1.10s CPU      1.25s WALL (       1 calls)
     forces       :      0.00s CPU      0.00s WALL (       1 calls)
     stress       :      0.01s CPU      0.01s WALL (       1 calls)

     Called by init_run:
     wfcinit      :      0.00s CPU      0.00s WALL (       1 calls)
     potinit      :      0.11s CPU      0.12s WALL (       1 calls)
     hinit0       :      0.08s CPU      0.08s WALL (       1 calls)

     Called by electrons:
     c_bands      :      0.07s CPU      0.08s WALL (      10 calls)
     sum_band     :      0.02s CPU      0.03s WALL (      10 calls)
     v_of_rho     :      0.01s CPU      0.01s WALL (      11 calls)
     newd         :      0.01s CPU      0.01s WALL (      11 calls)
     PAW_pot      :      1.09s CPU      1.22s WALL (      11 calls)
     mix_rho      :      0.00s CPU      0.00s WALL (      10 calls)

     Called by c_bands:
     init_us_2    :      0.00s CPU      0.00s WALL (      69 calls)
     cegterg      :      0.07s CPU      0.08s WALL (      30 calls)

     Called by sum_band:
     sum_band:bec :      0.00s CPU      0.00s WALL (      30 calls)
     addusdens    :      0.01s CPU      0.01s WALL (      10 calls)

     Called by *egterg:
     h_psi        :      0.04s CPU      0.05s WALL (     100 calls)
     s_psi        :      0.00s CPU      0.00s WALL (     100 calls)
     g_psi        :      0.00s CPU      0.00s WALL (      67 calls)
     cdiaghg      :      0.02s CPU      0.02s WALL (      97 calls)

     Called by h_psi:
     h_psi:pot    :      0.04s CPU      0.05s WALL (     100 calls)
     h_psi:calbec :      0.00s CPU      0.00s WALL (     100 calls)
     vloc_psi     :      0.04s CPU      0.04s WALL (     100 calls)
     add_vuspsi   :      0.00s CPU      0.00s WALL (     100 calls)

     General routines
     calbec       :      0.00s CPU      0.00s WALL (     145 calls)
     fft          :      0.01s CPU      0.01s WALL (     147 calls)
     ffts         :      0.00s CPU      0.00s WALL (      10 calls)
     fftw         :      0.04s CPU      0.05s WALL (    1824 calls)

     Parallel routines
     fft_scatt_xy :      0.00s CPU      0.01s WALL (    1981 calls)
     fft_scatt_yz :      0.02s CPU      0.03s WALL (    1981 calls)

     PWSCF        :     2.12s CPU         2.32s WALL


   This run was terminated on:   0: 6:35  27Mar2024            

=------------------------------------------------------------------------------=
   JOB DONE.
=------------------------------------------------------------------------------=
