
     Program PWSCF v.6.3MaX starts on 27Mar2024 at  0: 5:20 

     This program is part of the open-source Quantum ESPRESSO suite
     for quantum simulation of materials; please cite
         "P. Giannozzi et al., J. Phys.:Condens. Matter 21 395502 (2009);
         "P. Giannozzi et al., J. Phys.:Condens. Matter 29 465901 (2017);
          URL http://www.quantum-espresso.org", 
     in publications or presentations arising from this work. More details at
     http://www.quantum-espresso.org/quote

     Parallel version (MPI), running on     5 processors

     MPI processes distributed on     1 nodes
     R & G space division:  proc/nbgrp/npool/nimage =       5
     Waiting for input...
     Reading input from standard input

     Current dimensions of program PWSCF are:
     Max number of different atomic species (ntypx) = 10
     Max number of k-points (npk) =  40000
     Max angular momentum in pseudopotentials (lmaxx) =  3

     Subspace diagonalization in iterative solution of the eigenvalue problem:
     a serial algorithm will be used


     Parallelization info
     --------------------
     sticks:   dense  smooth     PW     G-vecs:    dense   smooth      PW
     Min          17      17      7                  106      106      27
     Max          17      17      8                  107      107      28
     Sum          85      85     37                  531      531     137



     bravais-lattice index     =            2
     lattice parameter (alat)  =       7.7200  a.u.
     unit-cell volume          =     115.0249 (a.u.)^3
     number of atoms/cell      =            1
     number of atomic types    =            1
     number of electrons       =        11.00
     number of Kohn-Sham states=           10
     kinetic-energy cutoff     =      10.0000  Ry
     charge density cutoff     =      40.0000  Ry
     convergence threshold     =      1.0E-08
     mixing beta               =       0.7000
     number of iterations used =            8  plain     mixing
     Exchange-correlation      = PBE ( 1  4  3  4 0 0)

     celldm(1)=   7.720000  celldm(2)=   0.000000  celldm(3)=   0.000000
     celldm(4)=   0.000000  celldm(5)=   0.000000  celldm(6)=   0.000000

     crystal axes: (cart. coord. in units of alat)
               a(1) = (  -0.500000   0.000000   0.500000 )  
               a(2) = (   0.000000   0.500000   0.500000 )  
               a(3) = (  -0.500000   0.500000   0.000000 )  

     reciprocal axes: (cart. coord. in units 2 pi/alat)
               b(1) = ( -1.000000 -1.000000  1.000000 )  
               b(2) = (  1.000000  1.000000  1.000000 )  
               b(3) = ( -1.000000  1.000000 -1.000000 )  


     PseudoPot. # 1 for Ag read from file:
     /home/lorenzo/pseudos/Ag/Ag.pbe-n-rrkjus_psl.1.0.0.UPF
     MD5 check sum: d841cbfac2b0861aec33b46768a516bf
     Pseudo is Ultrasoft + core correction, Zval = 11.0
     Generated using "atomic" code by A. Dal Corso v.6.2.2
     Using radial grid of 1237 points,  6 beta functions with: 
                l(1) =   0
                l(2) =   0
                l(3) =   1
                l(4) =   1
                l(5) =   2
                l(6) =   2
     Q(r) pseudized with 0 coefficients 


     atomic species   valence    mass     pseudopotential
        Ag            11.00   107.86820     Ag( 1.00)

     48 Sym. Ops., with inversion, found



   Cartesian axes

     site n.     atom                  positions (alat units)
         1           Ag  tau(   1) = (   0.0000000   0.0000000   0.0000000  )

     number of k points=    16  gaussian smearing, width (Ry)=  0.0100
                       cart. coord. in units 2pi/alat
        k(    1) = (   0.0000000   0.0000000   0.0000000), wk =   0.0092593
        k(    2) = (  -0.1666667   0.1666667  -0.1666667), wk =   0.0740741
        k(    3) = (  -0.3333333   0.3333333  -0.3333333), wk =   0.0740741
        k(    4) = (   0.5000000  -0.5000000   0.5000000), wk =   0.0370370
        k(    5) = (   0.0000000   0.3333333   0.0000000), wk =   0.0555556
        k(    6) = (  -0.1666667   0.5000000  -0.1666667), wk =   0.2222222
        k(    7) = (   0.6666667  -0.3333333   0.6666667), wk =   0.2222222
        k(    8) = (   0.5000000  -0.1666667   0.5000000), wk =   0.2222222
        k(    9) = (   0.3333333   0.0000000   0.3333333), wk =   0.1111111
        k(   10) = (   0.0000000   0.6666667   0.0000000), wk =   0.0555556
        k(   11) = (   0.8333333  -0.1666667   0.8333333), wk =   0.2222222
        k(   12) = (   0.6666667  -0.0000000   0.6666667), wk =   0.1111111
        k(   13) = (   0.0000000  -1.0000000   0.0000000), wk =   0.0277778
        k(   14) = (   0.6666667  -0.3333333   1.0000000), wk =   0.2222222
        k(   15) = (   0.5000000  -0.1666667   0.8333333), wk =   0.2222222
        k(   16) = (  -0.3333333  -1.0000000   0.0000000), wk =   0.1111111

     Dense  grid:      531 G-vectors     FFT dimensions: (  12,  12,  12)

     Estimated max dynamical RAM per process >       1.06 MB

     Estimated total dynamical RAM >       5.31 MB

     Initial potential from superposition of free atoms
     Check: negative starting charge=   -0.000240

     starting charge   10.99960, renormalised to   11.00000

     negative rho (up, down):  2.404E-04 0.000E+00
     Starting wfcs are    9 randomized atomic wfcs +    1 random wfcs

     total cpu time spent up to now is        0.8 secs

     Self-consistent Calculation

     iteration #  1     ecut=    10.00 Ry     beta= 0.70
     Davidson diagonalization with overlap
     ethr =  1.00E-02,  avg # of iterations =  4.2

     total cpu time spent up to now is        0.9 secs

     total energy              =     -69.37604512 Ry
     Harris-Foulkes estimate   =     -77.32964036 Ry
     estimated scf accuracy    <      10.24947119 Ry

     iteration #  2     ecut=    10.00 Ry     beta= 0.70
     Davidson diagonalization with overlap
     ethr =  1.00E-02,  avg # of iterations =  3.1

     total cpu time spent up to now is        0.9 secs

     total energy              =     -71.75093615 Ry
     Harris-Foulkes estimate   =     -71.82735300 Ry
     estimated scf accuracy    <       0.46475792 Ry

     iteration #  3     ecut=    10.00 Ry     beta= 0.70
     Davidson diagonalization with overlap
     ethr =  4.23E-03,  avg # of iterations =  1.0

     total cpu time spent up to now is        1.0 secs

     total energy              =     -71.76868242 Ry
     Harris-Foulkes estimate   =     -71.76590093 Ry
     estimated scf accuracy    <       0.03805460 Ry

     iteration #  4     ecut=    10.00 Ry     beta= 0.70
     Davidson diagonalization with overlap
     ethr =  3.46E-04,  avg # of iterations =  1.0

     total cpu time spent up to now is        1.0 secs

     total energy              =     -71.76940694 Ry
     Harris-Foulkes estimate   =     -71.76943494 Ry
     estimated scf accuracy    <       0.00005655 Ry

     iteration #  5     ecut=    10.00 Ry     beta= 0.70
     Davidson diagonalization with overlap
     ethr =  5.14E-07,  avg # of iterations =  3.9

     total cpu time spent up to now is        1.0 secs

     total energy              =     -71.76967985 Ry
     Harris-Foulkes estimate   =     -71.76968209 Ry
     estimated scf accuracy    <       0.00000400 Ry

     iteration #  6     ecut=    10.00 Ry     beta= 0.70
     Davidson diagonalization with overlap
     ethr =  3.64E-08,  avg # of iterations =  1.9

     total cpu time spent up to now is        1.1 secs

     total energy              =     -71.76968027 Ry
     Harris-Foulkes estimate   =     -71.76968032 Ry
     estimated scf accuracy    <       0.00000021 Ry

     iteration #  7     ecut=    10.00 Ry     beta= 0.70
     Davidson diagonalization with overlap
     ethr =  1.90E-09,  avg # of iterations =  2.6

     total cpu time spent up to now is        1.1 secs

     total energy              =     -71.76968031 Ry
     Harris-Foulkes estimate   =     -71.76968032 Ry
     estimated scf accuracy    <       0.00000002 Ry

     iteration #  8     ecut=    10.00 Ry     beta= 0.70
     Davidson diagonalization with overlap
     ethr =  1.85E-10,  avg # of iterations =  2.6

     total cpu time spent up to now is        1.2 secs

     End of self-consistent calculation

          k = 0.0000 0.0000 0.0000 (    59 PWs)   bands (ev):

     2.6193  10.8740  10.8740  10.8740  14.5963  14.5963  28.3113  28.3113
    28.3113  33.2778

          k =-0.1667 0.1667-0.1667 (    62 PWs)   bands (ev):

     3.3950  10.6118  11.0762  11.0762  12.1853  12.1853  25.1090  27.9848
    27.9848  34.4172

          k =-0.3333 0.3333-0.3333 (    64 PWs)   bands (ev):

     5.2816  10.0004  10.8550  10.8550  12.8550  12.8550  18.7715  26.8088
    26.8088  33.3252

          k = 0.5000-0.5000 0.5000 (    70 PWs)   bands (ev):

     6.7214   8.1952   8.1952   9.6943   9.6943  11.5688  15.8234  25.3214
    25.3214  32.4189

          k = 0.0000 0.3333 0.0000 (    60 PWs)   bands (ev):

     3.6756  10.4868  11.6128  11.6128  11.9814  15.1588  25.7989  26.9720
    26.9720  35.0047

          k =-0.1667 0.5000-0.1667 (    63 PWs)   bands (ev):

     5.3016  10.4134  10.6657  11.5399  12.6647  13.2067  20.6542  25.5774
    26.3450  34.4762

          k = 0.6667-0.3333 0.6667 (    61 PWs)   bands (ev):

     7.3045  10.6935  11.0896  12.1488  15.0412  15.6777  16.1440  24.5168
    24.6335  33.7494

          k = 0.5000-0.1667 0.5000 (    61 PWs)   bands (ev):

     6.6775  10.2942  11.8714  11.9307  13.5673  15.4747  17.8384  23.9556
    26.3329  34.1573

          k = 0.3333 0.0000 0.3333 (    61 PWs)   bands (ev):

     4.6422  10.4101  11.3846  11.4441  12.1775  14.7568  22.4325  25.7837
    28.0522  35.5558

          k = 0.0000 0.6667 0.0000 (    52 PWs)   bands (ev):

     6.5801  11.0252  14.1498  16.6597  17.0479  17.0479  20.6705  24.7201
    24.7201  37.3364

          k = 0.8333-0.1667 0.8333 (    61 PWs)   bands (ev):

     8.4697  10.0935  10.8924  13.5180  14.9033  15.6557  16.2566  21.8697
    22.3975  36.8355

          k = 0.6667-0.0000 0.6667 (    63 PWs)   bands (ev):

     8.6271  10.0599  10.1966  11.9005  13.4547  14.2113  19.2600  19.6005
    24.3087  35.6063

          k = 0.0000-1.0000 0.0000 (    64 PWs)   bands (ev):

     8.7286   9.3270  12.5558  12.5558  12.8830  13.9626  15.3450  20.4527
    20.4527  37.2611

          k = 0.6667-0.3333 1.0000 (    62 PWs)   bands (ev):

     7.1846  10.2892  10.6444  12.7004  13.5910  14.7041  18.2270  22.3120
    25.3538  35.3804

          k = 0.5000-0.1667 0.8333 (    62 PWs)   bands (ev):

     8.8795  10.5008  11.4712  11.8209  11.9500  14.8591  17.9216  21.0234
    24.1565  36.6068

          k =-0.3333-1.0000 0.0000 (    62 PWs)   bands (ev):

     9.6946  10.3088  11.4315  11.9600  13.2428  14.2679  17.4352  20.1146
    22.7746  38.0626

     the Fermi energy is    15.0530 ev

!    total energy              =     -71.76968031 Ry
     Harris-Foulkes estimate   =     -71.76968031 Ry
     estimated scf accuracy    <          1.5E-09 Ry

     The total energy is the sum of the following terms:

     one-electron contribution =      14.99191878 Ry
     hartree contribution      =       4.35403847 Ry
     xc contribution           =     -19.25347588 Ry
     ewald contribution        =     -71.86118018 Ry
     smearing contrib. (-TS)   =      -0.00098149 Ry

     convergence has been achieved in   8 iterations

     Forces acting on atoms (cartesian axes, Ry/au):

     atom    1 type  1   force =     0.00000000    0.00000000    0.00000000

     Total force =     0.000000     Total SCF correction =     0.000000


     Computing stress (Cartesian axis) and pressure

          total   stress  (Ry/bohr**3)                   (kbar)     P=********
  -0.10787684  -0.00000000   0.00000000     -15869.23     -0.00      0.00
  -0.00000000  -0.10787684  -0.00000000         -0.00 -15869.23     -0.00
   0.00000000  -0.00000000  -0.10787684          0.00     -0.00 -15869.23


     Writing output data file Ag.save/

     init_run     :      0.07s CPU      0.07s WALL (       1 calls)
     electrons    :      0.31s CPU      0.37s WALL (       1 calls)
     forces       :      0.01s CPU      0.01s WALL (       1 calls)
     stress       :      0.02s CPU      0.02s WALL (       1 calls)

     Called by init_run:
     wfcinit      :      0.01s CPU      0.01s WALL (       1 calls)
     potinit      :      0.00s CPU      0.00s WALL (       1 calls)
     hinit0       :      0.06s CPU      0.06s WALL (       1 calls)

     Called by electrons:
     c_bands      :      0.27s CPU      0.31s WALL (       8 calls)
     sum_band     :      0.03s CPU      0.04s WALL (       8 calls)
     v_of_rho     :      0.00s CPU      0.00s WALL (       9 calls)
     newd         :      0.01s CPU      0.01s WALL (       9 calls)
     mix_rho      :      0.00s CPU      0.00s WALL (       8 calls)

     Called by c_bands:
     init_us_2    :      0.00s CPU      0.00s WALL (     304 calls)
     cegterg      :      0.26s CPU      0.30s WALL (     128 calls)

     Called by sum_band:
     sum_band:bec :      0.00s CPU      0.00s WALL (     128 calls)
     addusdens    :      0.00s CPU      0.00s WALL (       8 calls)

     Called by *egterg:
     h_psi        :      0.14s CPU      0.17s WALL (     468 calls)
     s_psi        :      0.00s CPU      0.01s WALL (     468 calls)
     g_psi        :      0.00s CPU      0.00s WALL (     324 calls)
     cdiaghg      :      0.09s CPU      0.10s WALL (     452 calls)

     Called by h_psi:
     h_psi:pot    :      0.14s CPU      0.16s WALL (     468 calls)
     h_psi:calbec :      0.01s CPU      0.01s WALL (     468 calls)
     vloc_psi     :      0.13s CPU      0.14s WALL (     468 calls)
     add_vuspsi   :      0.00s CPU      0.01s WALL (     468 calls)

     General routines
     calbec       :      0.01s CPU      0.02s WALL (     676 calls)
     fft          :      0.00s CPU      0.00s WALL (     125 calls)
     ffts         :      0.00s CPU      0.00s WALL (       8 calls)
     fftw         :      0.13s CPU      0.15s WALL (    8236 calls)

     Parallel routines
     fft_scatt_xy :      0.02s CPU      0.02s WALL (    8369 calls)
     fft_scatt_yz :      0.06s CPU      0.07s WALL (    8369 calls)

     PWSCF        :     1.14s CPU         1.24s WALL


   This run was terminated on:   0: 5:22  27Mar2024            

=------------------------------------------------------------------------------=
   JOB DONE.
=------------------------------------------------------------------------------=
