
     Program PWSCF v.6.3MaX starts on 27Mar2024 at  0: 7:20 

     This program is part of the open-source Quantum ESPRESSO suite
     for quantum simulation of materials; please cite
         "P. Giannozzi et al., J. Phys.:Condens. Matter 21 395502 (2009);
         "P. Giannozzi et al., J. Phys.:Condens. Matter 29 465901 (2017);
          URL http://www.quantum-espresso.org", 
     in publications or presentations arising from this work. More details at
     http://www.quantum-espresso.org/quote

     Parallel version (MPI), running on     5 processors

     MPI processes distributed on     1 nodes
     R & G space division:  proc/nbgrp/npool/nimage =       5
     Waiting for input...
     Reading input from standard input

     Current dimensions of program PWSCF are:
     Max number of different atomic species (ntypx) = 10
     Max number of k-points (npk) =  40000
     Max angular momentum in pseudopotentials (lmaxx) =  3
               file Ag.pbesol-n-kjpaw_psl.1.0.0.UPF: wavefunction(s)  5S 5P renormalized

     Subspace diagonalization in iterative solution of the eigenvalue problem:
     a serial algorithm will be used


     Parallelization info
     --------------------
     sticks:   dense  smooth     PW     G-vecs:    dense   smooth      PW
     Min          24      24     11                  178      178      45
     Max          25      25     11                  181      181      46
     Sum         121     121     55                  893      893     229



     bravais-lattice index     =            2
     lattice parameter (alat)  =       7.7200  a.u.
     unit-cell volume          =     115.0249 (a.u.)^3
     number of atoms/cell      =            1
     number of atomic types    =            1
     number of electrons       =        11.00
     number of Kohn-Sham states=           10
     kinetic-energy cutoff     =      15.0000  Ry
     charge density cutoff     =      60.0000  Ry
     convergence threshold     =      1.0E-08
     mixing beta               =       0.7000
     number of iterations used =            8  plain     mixing
     Exchange-correlation      = SLA PW PSX PSC ( 1  4 10  8 0 0)

     celldm(1)=   7.720000  celldm(2)=   0.000000  celldm(3)=   0.000000
     celldm(4)=   0.000000  celldm(5)=   0.000000  celldm(6)=   0.000000

     crystal axes: (cart. coord. in units of alat)
               a(1) = (  -0.500000   0.000000   0.500000 )  
               a(2) = (   0.000000   0.500000   0.500000 )  
               a(3) = (  -0.500000   0.500000   0.000000 )  

     reciprocal axes: (cart. coord. in units 2 pi/alat)
               b(1) = ( -1.000000 -1.000000  1.000000 )  
               b(2) = (  1.000000  1.000000  1.000000 )  
               b(3) = ( -1.000000  1.000000 -1.000000 )  


     PseudoPot. # 1 for Ag read from file:
     /home/lorenzo/pseudos/Ag/Ag.pbesol-n-kjpaw_psl.1.0.0.UPF
     MD5 check sum: 3b245e14fa22881b2ac493bfd23f605f
     Pseudo is Projector augmented-wave + core cor, Zval = 11.0
     Generated using "atomic" code by A. Dal Corso v.6.2.2
     Shape of augmentation charge: PSQ
     Using radial grid of 1237 points,  6 beta functions with: 
                l(1) =   0
                l(2) =   0
                l(3) =   1
                l(4) =   1
                l(5) =   2
                l(6) =   2
     Q(r) pseudized with 0 coefficients 


     atomic species   valence    mass     pseudopotential
        Ag            11.00   107.86820     Ag( 1.00)

     48 Sym. Ops., with inversion, found



   Cartesian axes

     site n.     atom                  positions (alat units)
         1           Ag  tau(   1) = (   0.0000000   0.0000000   0.0000000  )

     number of k points=    20  gaussian smearing, width (Ry)=  0.0100
                       cart. coord. in units 2pi/alat
        k(    1) = (   0.0000000   0.0000000   0.0000000), wk =   0.0058309
        k(    2) = (  -0.1428571   0.1428571  -0.1428571), wk =   0.0466472
        k(    3) = (  -0.2857143   0.2857143  -0.2857143), wk =   0.0466472
        k(    4) = (  -0.4285714   0.4285714  -0.4285714), wk =   0.0466472
        k(    5) = (   0.0000000   0.2857143   0.0000000), wk =   0.0349854
        k(    6) = (  -0.1428571   0.4285714  -0.1428571), wk =   0.1399417
        k(    7) = (  -0.2857143   0.5714286  -0.2857143), wk =   0.1399417
        k(    8) = (   0.5714286  -0.2857143   0.5714286), wk =   0.1399417
        k(    9) = (   0.4285714  -0.1428571   0.4285714), wk =   0.1399417
        k(   10) = (   0.2857143  -0.0000000   0.2857143), wk =   0.0699708
        k(   11) = (   0.0000000   0.5714286   0.0000000), wk =   0.0349854
        k(   12) = (  -0.1428571   0.7142857  -0.1428571), wk =   0.1399417
        k(   13) = (   0.7142857  -0.1428571   0.7142857), wk =   0.1399417
        k(   14) = (   0.5714286   0.0000000   0.5714286), wk =   0.0699708
        k(   15) = (   0.0000000   0.8571429   0.0000000), wk =   0.0349854
        k(   16) = (   0.8571429  -0.0000000   0.8571429), wk =   0.0699708
        k(   17) = (  -0.2857143   0.5714286   0.0000000), wk =   0.1399417
        k(   18) = (   0.5714286  -0.2857143   0.8571429), wk =   0.2798834
        k(   19) = (   0.7142857  -0.1428571   1.0000000), wk =   0.1399417
        k(   20) = (   0.5714286   0.0000000   0.8571429), wk =   0.1399417

     Dense  grid:      893 G-vectors     FFT dimensions: (  15,  15,  15)

     Estimated max dynamical RAM per process >       1.52 MB

     Estimated total dynamical RAM >       7.59 MB

     Check: negative/imaginary core charge=   -0.000001    0.000000

     Initial potential from superposition of free atoms

     starting charge   10.99964, renormalised to   11.00000
     Starting wfcs are    9 randomized atomic wfcs +    1 random wfcs
     Checking if some PAW data can be deallocated... 

     total cpu time spent up to now is        1.0 secs

     Self-consistent Calculation

     iteration #  1     ecut=    15.00 Ry     beta= 0.70
     Davidson diagonalization with overlap
     ethr =  1.00E-02,  avg # of iterations =  4.6

     total cpu time spent up to now is        1.2 secs

     total energy              =    -343.68841563 Ry
     Harris-Foulkes estimate   =    -346.42004993 Ry
     estimated scf accuracy    <       3.43556380 Ry

     iteration #  2     ecut=    15.00 Ry     beta= 0.70
     Davidson diagonalization with overlap
     ethr =  1.00E-02,  avg # of iterations =  2.1

     total cpu time spent up to now is        1.4 secs

     total energy              =    -344.78977110 Ry
     Harris-Foulkes estimate   =    -345.14860433 Ry
     estimated scf accuracy    <       0.73349149 Ry

     iteration #  3     ecut=    15.00 Ry     beta= 0.70
     Davidson diagonalization with overlap
     ethr =  6.67E-03,  avg # of iterations =  1.1

     total cpu time spent up to now is        1.6 secs

     total energy              =    -344.86436844 Ry
     Harris-Foulkes estimate   =    -344.87573172 Ry
     estimated scf accuracy    <       0.02650197 Ry

     iteration #  4     ecut=    15.00 Ry     beta= 0.70
     Davidson diagonalization with overlap
     ethr =  2.41E-04,  avg # of iterations =  2.5

     total cpu time spent up to now is        1.7 secs

     total energy              =    -344.86995856 Ry
     Harris-Foulkes estimate   =    -344.87087925 Ry
     estimated scf accuracy    <       0.00271635 Ry

     iteration #  5     ecut=    15.00 Ry     beta= 0.70
     Davidson diagonalization with overlap
     ethr =  2.47E-05,  avg # of iterations =  1.1

     total cpu time spent up to now is        1.9 secs

     total energy              =    -344.86991283 Ry
     Harris-Foulkes estimate   =    -344.87011451 Ry
     estimated scf accuracy    <       0.00043964 Ry

     iteration #  6     ecut=    15.00 Ry     beta= 0.70
     Davidson diagonalization with overlap
     ethr =  4.00E-06,  avg # of iterations =  1.8

     total cpu time spent up to now is        2.1 secs

     total energy              =    -344.86998825 Ry
     Harris-Foulkes estimate   =    -344.86998869 Ry
     estimated scf accuracy    <       0.00000186 Ry

     iteration #  7     ecut=    15.00 Ry     beta= 0.70
     Davidson diagonalization with overlap
     ethr =  1.69E-08,  avg # of iterations =  2.5

     total cpu time spent up to now is        2.2 secs

     total energy              =    -344.86998997 Ry
     Harris-Foulkes estimate   =    -344.86999014 Ry
     estimated scf accuracy    <       0.00000040 Ry

     iteration #  8     ecut=    15.00 Ry     beta= 0.70
     Davidson diagonalization with overlap
     ethr =  3.59E-09,  avg # of iterations =  1.2

     total cpu time spent up to now is        2.4 secs

     total energy              =    -344.86999002 Ry
     Harris-Foulkes estimate   =    -344.86999004 Ry
     estimated scf accuracy    <       0.00000002 Ry

     iteration #  9     ecut=    15.00 Ry     beta= 0.70
     Davidson diagonalization with overlap
     ethr =  2.14E-10,  avg # of iterations =  2.2

     total cpu time spent up to now is        2.6 secs

     End of self-consistent calculation

          k = 0.0000 0.0000 0.0000 (   113 PWs)   bands (ev):

     4.7646   8.6903   8.6903   8.6903   9.6284   9.6284  30.8519  32.4415
    32.4415  32.4415

          k =-0.1429 0.1429-0.1429 (   116 PWs)   bands (ev):

     5.3326   7.2981   8.8892   8.8892   9.3374   9.3374  28.1741  31.4754
    32.4227  32.4227

          k =-0.2857 0.2857-0.2857 (   114 PWs)   bands (ev):

     6.5234   8.0785   8.0785   8.9402  10.5972  10.5972  22.4094  31.1101
    31.2727  31.2727

          k =-0.4286 0.4286-0.4286 (   114 PWs)   bands (ev):

     6.6304   7.9623   7.9623  10.9273  10.9273  11.3893  17.2091  29.9100
    29.9100  30.0100

          k = 0.0000 0.2857 0.0000 (   117 PWs)   bands (ev):

     5.5499   8.1041   8.1041   8.2289   8.9112   9.8709  30.2020  30.2020
    30.7967  31.4002

          k =-0.1429 0.4286-0.1429 (   114 PWs)   bands (ev):

     6.6384   7.2596   8.9219   9.0367  10.4041  10.5356  24.6635  28.6019
    30.7978  31.3889

          k =-0.2857 0.5714-0.2857 (   112 PWs)   bands (ev):

     6.9001   8.0895   8.9116   9.0781  11.6086  12.1634  19.0823  27.8827
    28.1758  30.4736

          k = 0.5714-0.2857 0.5714 (   116 PWs)   bands (ev):

     6.6206   7.1614   8.2506   9.5386  10.7379  13.8053  16.2435  26.1478
    28.7489  30.3060

          k = 0.4286-0.1429 0.4286 (   114 PWs)   bands (ev):

     7.0719   7.6255   8.7063   9.0686  10.0080  12.0104  20.9319  25.9604
    31.3317  31.3736

          k = 0.2857-0.0000 0.2857 (   117 PWs)   bands (ev):

     6.2361   6.5837   8.5194   9.0939   9.2471  10.3005  26.1956  27.1076
    33.4654  33.7805

          k = 0.0000 0.5714 0.0000 (   117 PWs)   bands (ev):

     5.9312   6.4789   9.1080   9.6273  10.4216  10.4216  26.2128  26.2128
    26.5830  30.2863

          k =-0.1429 0.7143-0.1429 (   113 PWs)   bands (ev):

     6.0626   7.0511   9.8056   9.9656  11.5772  12.5699  21.2927  24.2182
    25.1220  30.7866

          k = 0.7143-0.1429 0.7143 (   110 PWs)   bands (ev):

     6.5894   8.3814   9.5108   9.9556  11.6375  16.2113  16.9872  22.0866
    25.9618  30.9790

          k = 0.5714 0.0000 0.5714 (   111 PWs)   bands (ev):

     7.6590   8.7184   8.8389   9.7109   9.9732  13.9822  20.6310  20.8878
    28.5682  31.3266

          k = 0.0000 0.8571 0.0000 (   116 PWs)   bands (ev):

     4.2897   6.3864  10.7139  11.1041  11.1041  12.8542  20.1390  23.3561
    23.3561  30.4644

          k = 0.8571-0.0000 0.8571 (   110 PWs)   bands (ev):

     5.5667   7.5583  11.1475  11.2273  11.2278  15.6570  18.3466  21.3346
    23.7326  30.8917

          k =-0.2857 0.5714 0.0000 (   114 PWs)   bands (ev):

     6.9869   7.0429   7.7615  10.2382  10.6179  12.2147  22.8140  23.8363
    27.8736  33.1853

          k = 0.5714-0.2857 0.8571 (   114 PWs)   bands (ev):

     6.8320   7.5423   8.5058   9.2857  10.8895  14.4282  18.3379  23.2946
    25.4895  32.7354

          k = 0.7143-0.1429 1.0000 (   109 PWs)   bands (ev):

     6.9277   7.2094   9.7639  11.3716  11.7475  15.0232  19.9291  21.5528
    22.8647  33.7557

          k = 0.5714 0.0000 0.8571 (   110 PWs)   bands (ev):

     7.1082   8.1953   8.9333   9.7048  11.8103  17.0936  18.4409  19.7864
    23.3631  34.1189

     the Fermi energy is    12.8367 ev

!    total energy              =    -344.86999003 Ry
     Harris-Foulkes estimate   =    -344.86999003 Ry
     estimated scf accuracy    <          8.6E-10 Ry

     total all-electron energy =    -10621.880399 Ry

     The total energy is the sum of the following terms:

     one-electron contribution =       8.73696650 Ry
     hartree contribution      =       9.56114138 Ry
     xc contribution           =     -20.85282786 Ry
     ewald contribution        =     -71.86118021 Ry
     one-center paw contrib.   =    -270.45398433 Ry
     smearing contrib. (-TS)   =      -0.00010551 Ry

     convergence has been achieved in   9 iterations

     Forces acting on atoms (cartesian axes, Ry/au):

     atom    1 type  1   force =     0.00000000    0.00000000    0.00000000

     Total force =     0.000000     Total SCF correction =     0.000000


     Computing stress (Cartesian axis) and pressure

          total   stress  (Ry/bohr**3)                   (kbar)     P=********
  -0.09714336  -0.00000000   0.00000000     -14290.28     -0.00      0.00
  -0.00000000  -0.09714336  -0.00000000         -0.00 -14290.28     -0.00
   0.00000000  -0.00000000  -0.09714336          0.00     -0.00 -14290.28


     Writing output data file Ag.save/

     init_run     :      0.20s CPU      0.22s WALL (       1 calls)
     electrons    :      1.43s CPU      1.61s WALL (       1 calls)
     forces       :      0.01s CPU      0.01s WALL (       1 calls)
     stress       :      0.02s CPU      0.02s WALL (       1 calls)

     Called by init_run:
     wfcinit      :      0.01s CPU      0.02s WALL (       1 calls)
     potinit      :      0.09s CPU      0.11s WALL (       1 calls)
     hinit0       :      0.08s CPU      0.08s WALL (       1 calls)

     Called by electrons:
     c_bands      :      0.42s CPU      0.47s WALL (       9 calls)
     sum_band     :      0.07s CPU      0.08s WALL (       9 calls)
     v_of_rho     :      0.01s CPU      0.01s WALL (      10 calls)
     newd         :      0.01s CPU      0.01s WALL (      10 calls)
     PAW_pot      :      1.00s CPU      1.12s WALL (      10 calls)
     mix_rho      :      0.00s CPU      0.00s WALL (       9 calls)

     Called by c_bands:
     init_us_2    :      0.01s CPU      0.01s WALL (     420 calls)
     cegterg      :      0.41s CPU      0.46s WALL (     180 calls)

     Called by sum_band:
     sum_band:bec :      0.00s CPU      0.00s WALL (     180 calls)
     addusdens    :      0.01s CPU      0.01s WALL (       9 calls)

     Called by *egterg:
     h_psi        :      0.25s CPU      0.29s WALL (     582 calls)
     s_psi        :      0.01s CPU      0.01s WALL (     582 calls)
     g_psi        :      0.00s CPU      0.00s WALL (     382 calls)
     cdiaghg      :      0.10s CPU      0.11s WALL (     562 calls)

     Called by h_psi:
     h_psi:pot    :      0.25s CPU      0.29s WALL (     582 calls)
     h_psi:calbec :      0.01s CPU      0.02s WALL (     582 calls)
     vloc_psi     :      0.23s CPU      0.26s WALL (     582 calls)
     add_vuspsi   :      0.01s CPU      0.01s WALL (     582 calls)

     General routines
     calbec       :      0.02s CPU      0.02s WALL (     862 calls)
     fft          :      0.01s CPU      0.01s WALL (     136 calls)
     ffts         :      0.00s CPU      0.00s WALL (       9 calls)
     fftw         :      0.25s CPU      0.28s WALL (   10928 calls)

     Parallel routines
     fft_scatt_xy :      0.03s CPU      0.03s WALL (   11073 calls)
     fft_scatt_yz :      0.11s CPU      0.12s WALL (   11073 calls)

     PWSCF        :     2.45s CPU         2.72s WALL


   This run was terminated on:   0: 7:23  27Mar2024            

=------------------------------------------------------------------------------=
   JOB DONE.
=------------------------------------------------------------------------------=
