
     Program PWSCF v.6.3MaX starts on 27Mar2024 at  0: 3: 1 

     This program is part of the open-source Quantum ESPRESSO suite
     for quantum simulation of materials; please cite
         "P. Giannozzi et al., J. Phys.:Condens. Matter 21 395502 (2009);
         "P. Giannozzi et al., J. Phys.:Condens. Matter 29 465901 (2017);
          URL http://www.quantum-espresso.org", 
     in publications or presentations arising from this work. More details at
     http://www.quantum-espresso.org/quote

     Parallel version (MPI), running on     5 processors

     MPI processes distributed on     1 nodes
     R & G space division:  proc/nbgrp/npool/nimage =       5
     Waiting for input...
     Reading input from standard input

     Current dimensions of program PWSCF are:
     Max number of different atomic species (ntypx) = 10
     Max number of k-points (npk) =  40000
     Max angular momentum in pseudopotentials (lmaxx) =  3
               file Ag.pbe-n-kjpaw_psl.1.0.0.UPF: wavefunction(s)  5S 5P renormalized

     Subspace diagonalization in iterative solution of the eigenvalue problem:
     a serial algorithm will be used


     Parallelization info
     --------------------
     sticks:   dense  smooth     PW     G-vecs:    dense   smooth      PW
     Min         164     164     50                 3117     3117     527
     Max         165     165     51                 3120     3120     528
     Sum         823     823    253                15593    15593    2637



     bravais-lattice index     =            2
     lattice parameter (alat)  =       7.7200  a.u.
     unit-cell volume          =     115.0249 (a.u.)^3
     number of atoms/cell      =            1
     number of atomic types    =            1
     number of electrons       =        11.00
     number of Kohn-Sham states=           10
     kinetic-energy cutoff     =     100.0000  Ry
     charge density cutoff     =     400.0000  Ry
     convergence threshold     =      1.0E-08
     mixing beta               =       0.7000
     number of iterations used =            8  plain     mixing
     Exchange-correlation      = SLA PW PBX PBC ( 1  4  3  4 0 0)

     celldm(1)=   7.720000  celldm(2)=   0.000000  celldm(3)=   0.000000
     celldm(4)=   0.000000  celldm(5)=   0.000000  celldm(6)=   0.000000

     crystal axes: (cart. coord. in units of alat)
               a(1) = (  -0.500000   0.000000   0.500000 )  
               a(2) = (   0.000000   0.500000   0.500000 )  
               a(3) = (  -0.500000   0.500000   0.000000 )  

     reciprocal axes: (cart. coord. in units 2 pi/alat)
               b(1) = ( -1.000000 -1.000000  1.000000 )  
               b(2) = (  1.000000  1.000000  1.000000 )  
               b(3) = ( -1.000000  1.000000 -1.000000 )  


     PseudoPot. # 1 for Ag read from file:
     /home/lorenzo/pseudos/Ag/Ag.pbe-n-kjpaw_psl.1.0.0.UPF
     MD5 check sum: 51099775af2a3182a6a1caffb86952a3
     Pseudo is Projector augmented-wave + core cor, Zval = 11.0
     Generated using "atomic" code by A. Dal Corso v.6.2.2
     Shape of augmentation charge: PSQ
     Using radial grid of 1237 points,  6 beta functions with: 
                l(1) =   0
                l(2) =   0
                l(3) =   1
                l(4) =   1
                l(5) =   2
                l(6) =   2
     Q(r) pseudized with 0 coefficients 


     atomic species   valence    mass     pseudopotential
        Ag            11.00   107.86820     Ag( 1.00)

     48 Sym. Ops., with inversion, found



   Cartesian axes

     site n.     atom                  positions (alat units)
         1           Ag  tau(   1) = (   0.0000000   0.0000000   0.0000000  )

     number of k points=    20  gaussian smearing, width (Ry)=  0.0100
                       cart. coord. in units 2pi/alat
        k(    1) = (   0.0000000   0.0000000   0.0000000), wk =   0.0058309
        k(    2) = (  -0.1428571   0.1428571  -0.1428571), wk =   0.0466472
        k(    3) = (  -0.2857143   0.2857143  -0.2857143), wk =   0.0466472
        k(    4) = (  -0.4285714   0.4285714  -0.4285714), wk =   0.0466472
        k(    5) = (   0.0000000   0.2857143   0.0000000), wk =   0.0349854
        k(    6) = (  -0.1428571   0.4285714  -0.1428571), wk =   0.1399417
        k(    7) = (  -0.2857143   0.5714286  -0.2857143), wk =   0.1399417
        k(    8) = (   0.5714286  -0.2857143   0.5714286), wk =   0.1399417
        k(    9) = (   0.4285714  -0.1428571   0.4285714), wk =   0.1399417
        k(   10) = (   0.2857143  -0.0000000   0.2857143), wk =   0.0699708
        k(   11) = (   0.0000000   0.5714286   0.0000000), wk =   0.0349854
        k(   12) = (  -0.1428571   0.7142857  -0.1428571), wk =   0.1399417
        k(   13) = (   0.7142857  -0.1428571   0.7142857), wk =   0.1399417
        k(   14) = (   0.5714286   0.0000000   0.5714286), wk =   0.0699708
        k(   15) = (   0.0000000   0.8571429   0.0000000), wk =   0.0349854
        k(   16) = (   0.8571429  -0.0000000   0.8571429), wk =   0.0699708
        k(   17) = (  -0.2857143   0.5714286   0.0000000), wk =   0.1399417
        k(   18) = (   0.5714286  -0.2857143   0.8571429), wk =   0.2798834
        k(   19) = (   0.7142857  -0.1428571   1.0000000), wk =   0.1399417
        k(   20) = (   0.5714286   0.0000000   0.8571429), wk =   0.1399417

     Dense  grid:    15593 G-vectors     FFT dimensions: (  36,  36,  36)

     Estimated max dynamical RAM per process >      14.90 MB

     Estimated total dynamical RAM >      74.50 MB

     Initial potential from superposition of free atoms

     starting charge   10.99960, renormalised to   11.00000
     Starting wfcs are    9 randomized atomic wfcs +    1 random wfcs
     Checking if some PAW data can be deallocated... 

     total cpu time spent up to now is        1.3 secs

     Self-consistent Calculation

     iteration #  1     ecut=   100.00 Ry     beta= 0.70
     Davidson diagonalization with overlap
     ethr =  1.00E-02,  avg # of iterations =  4.7

     Threshold (ethr) on eigenvalues was too large:
     Diagonalizing with lowered threshold

     Davidson diagonalization with overlap
     ethr =  2.64E-05,  avg # of iterations =  2.7

     total cpu time spent up to now is        2.3 secs

     total energy              =    -355.30924713 Ry
     Harris-Foulkes estimate   =    -355.31107212 Ry
     estimated scf accuracy    <       0.00322474 Ry

     iteration #  2     ecut=   100.00 Ry     beta= 0.70
     Davidson diagonalization with overlap
     ethr =  2.93E-05,  avg # of iterations =  2.0

     total cpu time spent up to now is        2.7 secs

     total energy              =    -355.31017565 Ry
     Harris-Foulkes estimate   =    -355.31126381 Ry
     estimated scf accuracy    <       0.00233807 Ry

     iteration #  3     ecut=   100.00 Ry     beta= 0.70
     Davidson diagonalization with overlap
     ethr =  2.13E-05,  avg # of iterations =  1.6

     total cpu time spent up to now is        3.2 secs

     total energy              =    -355.31062830 Ry
     Harris-Foulkes estimate   =    -355.31060702 Ry
     estimated scf accuracy    <       0.00001505 Ry

     iteration #  4     ecut=   100.00 Ry     beta= 0.70
     Davidson diagonalization with overlap
     ethr =  1.37E-07,  avg # of iterations =  2.9

     total cpu time spent up to now is        3.7 secs

     total energy              =    -355.31063434 Ry
     Harris-Foulkes estimate   =    -355.31063412 Ry
     estimated scf accuracy    <       0.00000033 Ry

     iteration #  5     ecut=   100.00 Ry     beta= 0.70
     Davidson diagonalization with overlap
     ethr =  3.01E-09,  avg # of iterations =  1.3

     total cpu time spent up to now is        4.2 secs

     End of self-consistent calculation

          k = 0.0000 0.0000 0.0000 (  1917 PWs)   bands (ev):

     5.0657   8.0814   8.0814   8.0814   9.1198   9.1198  29.8002  33.0877
    33.0877  33.0877

          k =-0.1429 0.1429-0.1429 (  1940 PWs)   bands (ev):

     5.6697   7.9807   8.2272   8.2272   9.0856   9.0856  28.2383  30.6141
    33.0132  33.0132

          k =-0.2857 0.2857-0.2857 (  1934 PWs)   bands (ev):

     6.5667   8.2519   8.2519   8.7267   9.3669   9.3669  22.6737  29.9401
    32.3677  32.3677

          k =-0.4286 0.4286-0.4286 (  1937 PWs)   bands (ev):

     6.5044   8.0864   8.0864   9.8408   9.8408  11.5253  17.6599  28.9852
    31.2887  31.2887

          k = 0.0000 0.2857 0.0000 (  1953 PWs)   bands (ev):

     5.8741   7.7700   8.3878   8.3878   8.8454   9.2583  29.8174  30.6370
    30.6370  30.8973

          k =-0.1429 0.4286-0.1429 (  1948 PWs)   bands (ev):

     6.8041   7.6594   8.3156   8.5784   9.4309   9.5084  24.9396  29.1103
    29.6436  31.5801

          k =-0.2857 0.5714-0.2857 (  1939 PWs)   bands (ev):

     6.8422   7.9482   8.4420   8.5921   9.9010  11.7328  19.5015  28.0788
    28.6322  30.0201

          k = 0.5714-0.2857 0.5714 (  1948 PWs)   bands (ev):

     6.8107   7.8695   8.3345   9.0713   9.8172  13.7181  16.8115  26.6128
    29.6926  29.6932

          k = 0.4286-0.1429 0.4286 (  1941 PWs)   bands (ev):

     6.9960   8.0199   8.4365   8.5194   9.2190  11.0710  21.2851  26.2470
    30.7804  32.4109

          k = 0.2857-0.0000 0.2857 (  1945 PWs)   bands (ev):

     6.5282   7.7553   8.3587   8.4823   8.8132   9.5884  26.7428  27.0139
    33.0181  33.3880

          k = 0.0000 0.5714 0.0000 (  1960 PWs)   bands (ev):

     6.9220   7.1207   9.1878   9.1878   9.5791   9.6145  26.7117  26.7117
    27.3323  29.8840

          k =-0.1429 0.7143-0.1429 (  1938 PWs)   bands (ev):

     6.8611   7.1050   8.9766   9.2305   9.9408  12.2184  22.2087  24.3767
    25.7396  29.9096

          k = 0.7143-0.1429 0.7143 (  1941 PWs)   bands (ev):

     6.9879   7.5183   8.5407   9.0371   9.8724  15.9853  17.5846  22.1620
    26.6181  29.7734

          k = 0.5714 0.0000 0.5714 (  1939 PWs)   bands (ev):

     7.3901   7.9184   8.0221   8.8422   9.3632  13.7881  20.6272  21.3040
    29.1422  30.0771

          k = 0.0000 0.8571 0.0000 (  1948 PWs)   bands (ev):

     6.5162   6.6424   9.8466   9.9935   9.9935  13.2775  21.1278  24.0867
    24.0867  29.9532

          k = 0.8571-0.0000 0.8571 (  1948 PWs)   bands (ev):

     6.6111   6.8120   9.5272   9.6764  10.0346  15.5226  19.6514  21.1782
    24.4268  29.9325

          k =-0.2857 0.5714 0.0000 (  1937 PWs)   bands (ev):

     7.3798   7.4224   8.0848   9.1808   9.2489  11.2515  23.7738  23.9730
    27.8638  33.1617

          k = 0.5714-0.2857 0.8571 (  1945 PWs)   bands (ev):

     7.2760   7.5952   8.1853   8.9221   9.7731  14.2684  18.7322  23.9863
    25.4935  32.5942

          k = 0.7143-0.1429 1.0000 (  1938 PWs)   bands (ev):

     6.9304   7.0331   8.7773   9.5262   9.9897  14.9160  21.3038  21.8249
    22.3667  32.6428

          k = 0.5714 0.0000 0.8571 (  1929 PWs)   bands (ev):

     7.1749   7.5422   8.1478   9.1525   9.9834  17.6799  18.3157  20.2628
    23.2876  33.2732

     the Fermi energy is    13.2573 ev

!    total energy              =    -355.31063435 Ry
     Harris-Foulkes estimate   =    -355.31063436 Ry
     estimated scf accuracy    <          7.6E-09 Ry

     total all-electron energy =    -10632.276688 Ry

     The total energy is the sum of the following terms:

     one-electron contribution =       1.55363346 Ry
     hartree contribution      =      14.66816019 Ry
     xc contribution           =     -22.35417443 Ry
     ewald contribution        =     -71.86118018 Ry
     one-center paw contrib.   =    -277.31697686 Ry
     smearing contrib. (-TS)   =      -0.00009654 Ry

     convergence has been achieved in   5 iterations

     Forces acting on atoms (cartesian axes, Ry/au):

     atom    1 type  1   force =     0.00000000    0.00000000    0.00000000

     Total force =     0.000000     Total SCF correction =     0.000000


     Computing stress (Cartesian axis) and pressure

          total   stress  (Ry/bohr**3)                   (kbar)     P=   48.04
   0.00032660  -0.00000000  -0.00000000         48.04     -0.00     -0.00
  -0.00000000   0.00032660   0.00000000         -0.00     48.04      0.00
  -0.00000000   0.00000000   0.00032660         -0.00      0.00     48.04


     Writing output data file Ag.save/

     init_run     :      0.46s CPU      0.49s WALL (       1 calls)
     electrons    :      2.73s CPU      2.88s WALL (       1 calls)
     forces       :      0.06s CPU      0.06s WALL (       1 calls)
     stress       :      0.22s CPU      0.22s WALL (       1 calls)

     Called by init_run:
     wfcinit      :      0.11s CPU      0.11s WALL (       1 calls)
     potinit      :      0.11s CPU      0.12s WALL (       1 calls)
     hinit0       :      0.21s CPU      0.21s WALL (       1 calls)

     Called by electrons:
     c_bands      :      1.71s CPU      1.82s WALL (       6 calls)
     sum_band     :      0.43s CPU      0.45s WALL (       6 calls)
     v_of_rho     :      0.06s CPU      0.06s WALL (       6 calls)
     newd         :      0.09s CPU      0.09s WALL (       6 calls)
     PAW_pot      :      0.55s CPU      0.58s WALL (       6 calls)
     mix_rho      :      0.00s CPU      0.00s WALL (       6 calls)

     Called by c_bands:
     init_us_2    :      0.07s CPU      0.07s WALL (     300 calls)
     cegterg      :      1.62s CPU      1.74s WALL (     120 calls)

     Called by sum_band:
     sum_band:bec :      0.00s CPU      0.00s WALL (     120 calls)
     addusdens    :      0.08s CPU      0.09s WALL (       6 calls)

     Called by *egterg:
     h_psi        :      1.37s CPU      1.48s WALL (     444 calls)
     s_psi        :      0.04s CPU      0.05s WALL (     444 calls)
     g_psi        :      0.00s CPU      0.00s WALL (     304 calls)
     cdiaghg      :      0.09s CPU      0.09s WALL (     404 calls)

     Called by h_psi:
     h_psi:pot    :      1.36s CPU      1.47s WALL (     444 calls)
     h_psi:calbec :      0.06s CPU      0.07s WALL (     444 calls)
     vloc_psi     :      1.25s CPU      1.35s WALL (     444 calls)
     add_vuspsi   :      0.05s CPU      0.05s WALL (     444 calls)

     General routines
     calbec       :      0.11s CPU      0.11s WALL (     664 calls)
     fft          :      0.04s CPU      0.04s WALL (      93 calls)
     ffts         :      0.00s CPU      0.00s WALL (       6 calls)
     fftw         :      1.42s CPU      1.52s WALL (    7506 calls)

     Parallel routines
     fft_scatt_xy :      0.12s CPU      0.13s WALL (    7605 calls)
     fft_scatt_yz :      0.33s CPU      0.35s WALL (    7605 calls)

     PWSCF        :     4.29s CPU         4.52s WALL


   This run was terminated on:   0: 3: 6  27Mar2024            

=------------------------------------------------------------------------------=
   JOB DONE.
=------------------------------------------------------------------------------=
