
     Program PWSCF v.6.3MaX starts on 27Mar2024 at  0:30:45 

     This program is part of the open-source Quantum ESPRESSO suite
     for quantum simulation of materials; please cite
         "P. Giannozzi et al., J. Phys.:Condens. Matter 21 395502 (2009);
         "P. Giannozzi et al., J. Phys.:Condens. Matter 29 465901 (2017);
          URL http://www.quantum-espresso.org", 
     in publications or presentations arising from this work. More details at
     http://www.quantum-espresso.org/quote

     Parallel version (MPI), running on     5 processors

     MPI processes distributed on     1 nodes
     R & G space division:  proc/nbgrp/npool/nimage =       5
     Waiting for input...
     Reading input from standard input

     Current dimensions of program PWSCF are:
     Max number of different atomic species (ntypx) = 10
     Max number of k-points (npk) =  40000
     Max angular momentum in pseudopotentials (lmaxx) =  3

     Subspace diagonalization in iterative solution of the eigenvalue problem:
     a serial algorithm will be used


     Parallelization info
     --------------------
     sticks:   dense  smooth     PW     G-vecs:    dense   smooth      PW
     Min         116     116     37                 1836     1836     327
     Max         117     117     38                 1838     1838     329
     Sum         583     583    187                 9185     9185    1639



     bravais-lattice index     =            2
     lattice parameter (alat)  =       7.7200  a.u.
     unit-cell volume          =     115.0249 (a.u.)^3
     number of atoms/cell      =            1
     number of atomic types    =            1
     number of electrons       =        11.00
     number of Kohn-Sham states=           10
     kinetic-energy cutoff     =      70.0000  Ry
     charge density cutoff     =     280.0000  Ry
     convergence threshold     =      1.0E-08
     mixing beta               =       0.7000
     number of iterations used =            8  plain     mixing
     Exchange-correlation      = PBE ( 1  4  3  4 0 0)

     celldm(1)=   7.720000  celldm(2)=   0.000000  celldm(3)=   0.000000
     celldm(4)=   0.000000  celldm(5)=   0.000000  celldm(6)=   0.000000

     crystal axes: (cart. coord. in units of alat)
               a(1) = (  -0.500000   0.000000   0.500000 )  
               a(2) = (   0.000000   0.500000   0.500000 )  
               a(3) = (  -0.500000   0.500000   0.000000 )  

     reciprocal axes: (cart. coord. in units 2 pi/alat)
               b(1) = ( -1.000000 -1.000000  1.000000 )  
               b(2) = (  1.000000  1.000000  1.000000 )  
               b(3) = ( -1.000000  1.000000 -1.000000 )  


     PseudoPot. # 1 for Ag read from file:
     /home/lorenzo/pseudos/Ag/Ag.pbe-n-rrkjus_psl.1.0.0.UPF
     MD5 check sum: d841cbfac2b0861aec33b46768a516bf
     Pseudo is Ultrasoft + core correction, Zval = 11.0
     Generated using "atomic" code by A. Dal Corso v.6.2.2
     Using radial grid of 1237 points,  6 beta functions with: 
                l(1) =   0
                l(2) =   0
                l(3) =   1
                l(4) =   1
                l(5) =   2
                l(6) =   2
     Q(r) pseudized with 0 coefficients 


     atomic species   valence    mass     pseudopotential
        Ag            11.00   107.86820     Ag( 1.00)

     48 Sym. Ops., with inversion, found



   Cartesian axes

     site n.     atom                  positions (alat units)
         1           Ag  tau(   1) = (   0.0000000   0.0000000   0.0000000  )

     number of k points=    56  gaussian smearing, width (Ry)=  0.0100
                       cart. coord. in units 2pi/alat
        k(    1) = (   0.0000000   0.0000000   0.0000000), wk =   0.0015026
        k(    2) = (  -0.0909091   0.0909091  -0.0909091), wk =   0.0120210
        k(    3) = (  -0.1818182   0.1818182  -0.1818182), wk =   0.0120210
        k(    4) = (  -0.2727273   0.2727273  -0.2727273), wk =   0.0120210
        k(    5) = (  -0.3636364   0.3636364  -0.3636364), wk =   0.0120210
        k(    6) = (  -0.4545455   0.4545455  -0.4545455), wk =   0.0120210
        k(    7) = (   0.0000000   0.1818182   0.0000000), wk =   0.0090158
        k(    8) = (  -0.0909091   0.2727273  -0.0909091), wk =   0.0360631
        k(    9) = (  -0.1818182   0.3636364  -0.1818182), wk =   0.0360631
        k(   10) = (  -0.2727273   0.4545455  -0.2727273), wk =   0.0360631
        k(   11) = (  -0.3636364   0.5454545  -0.3636364), wk =   0.0360631
        k(   12) = (   0.5454545  -0.3636364   0.5454545), wk =   0.0360631
        k(   13) = (   0.4545455  -0.2727273   0.4545455), wk =   0.0360631
        k(   14) = (   0.3636364  -0.1818182   0.3636364), wk =   0.0360631
        k(   15) = (   0.2727273  -0.0909091   0.2727273), wk =   0.0360631
        k(   16) = (   0.1818182  -0.0000000   0.1818182), wk =   0.0180316
        k(   17) = (   0.0000000   0.3636364   0.0000000), wk =   0.0090158
        k(   18) = (  -0.0909091   0.4545455  -0.0909091), wk =   0.0360631
        k(   19) = (  -0.1818182   0.5454545  -0.1818182), wk =   0.0360631
        k(   20) = (  -0.2727273   0.6363636  -0.2727273), wk =   0.0360631
        k(   21) = (   0.6363636  -0.2727273   0.6363636), wk =   0.0360631
        k(   22) = (   0.5454545  -0.1818182   0.5454545), wk =   0.0360631
        k(   23) = (   0.4545455  -0.0909091   0.4545455), wk =   0.0360631
        k(   24) = (   0.3636364   0.0000000   0.3636364), wk =   0.0180316
        k(   25) = (   0.0000000   0.5454545   0.0000000), wk =   0.0090158
        k(   26) = (  -0.0909091   0.6363636  -0.0909091), wk =   0.0360631
        k(   27) = (  -0.1818182   0.7272727  -0.1818182), wk =   0.0360631
        k(   28) = (   0.7272727  -0.1818182   0.7272727), wk =   0.0360631
        k(   29) = (   0.6363636  -0.0909091   0.6363636), wk =   0.0360631
        k(   30) = (   0.5454545   0.0000000   0.5454545), wk =   0.0180316
        k(   31) = (   0.0000000   0.7272727   0.0000000), wk =   0.0090158
        k(   32) = (  -0.0909091   0.8181818  -0.0909091), wk =   0.0360631
        k(   33) = (   0.8181818  -0.0909091   0.8181818), wk =   0.0360631
        k(   34) = (   0.7272727   0.0000000   0.7272727), wk =   0.0180316
        k(   35) = (   0.0000000   0.9090909   0.0000000), wk =   0.0090158
        k(   36) = (   0.9090909  -0.0000000   0.9090909), wk =   0.0180316
        k(   37) = (  -0.1818182   0.3636364   0.0000000), wk =   0.0360631
        k(   38) = (  -0.2727273   0.4545455  -0.0909091), wk =   0.0721262
        k(   39) = (  -0.3636364   0.5454545  -0.1818182), wk =   0.0721262
        k(   40) = (   0.5454545  -0.3636364   0.7272727), wk =   0.0721262
        k(   41) = (  -0.1818182   0.5454545   0.0000000), wk =   0.0360631
        k(   42) = (  -0.2727273   0.6363636  -0.0909091), wk =   0.0721262
        k(   43) = (   0.6363636  -0.2727273   0.8181818), wk =   0.0721262
        k(   44) = (   0.5454545  -0.1818182   0.7272727), wk =   0.0721262
        k(   45) = (   0.4545455  -0.0909091   0.6363636), wk =   0.0721262
        k(   46) = (   0.3636364   0.0000000   0.5454545), wk =   0.0360631
        k(   47) = (  -0.1818182   0.7272727   0.0000000), wk =   0.0360631
        k(   48) = (   0.7272727  -0.1818182   0.9090909), wk =   0.0721262
        k(   49) = (   0.6363636  -0.0909091   0.8181818), wk =   0.0721262
        k(   50) = (   0.5454545   0.0000000   0.7272727), wk =   0.0360631
        k(   51) = (   0.8181818  -0.0909091   1.0000000), wk =   0.0360631
        k(   52) = (   0.7272727   0.0000000   0.9090909), wk =   0.0360631
        k(   53) = (   0.6363636  -0.2727273   1.0000000), wk =   0.0360631
        k(   54) = (   0.5454545  -0.1818182   0.9090909), wk =   0.0721262
        k(   55) = (   0.6363636  -0.0909091   1.0000000), wk =   0.0360631
        k(   56) = (   0.5454545   0.0000000   0.9090909), wk =   0.0360631

     Dense  grid:     9185 G-vectors     FFT dimensions: (  30,  30,  30)

     Estimated max dynamical RAM per process >      10.46 MB

     Estimated total dynamical RAM >      52.29 MB

     Initial potential from superposition of free atoms

     starting charge   10.99960, renormalised to   11.00000
     Starting wfcs are    9 randomized atomic wfcs +    1 random wfcs

     total cpu time spent up to now is        1.2 secs

     Self-consistent Calculation

     iteration #  1     ecut=    70.00 Ry     beta= 0.70
     Davidson diagonalization with overlap
     ethr =  1.00E-02,  avg # of iterations =  4.6

     Threshold (ethr) on eigenvalues was too large:
     Diagonalizing with lowered threshold

     Davidson diagonalization with overlap
     ethr =  2.58E-05,  avg # of iterations =  2.6

     total cpu time spent up to now is        2.7 secs

     total energy              =     -84.27247009 Ry
     Harris-Foulkes estimate   =     -84.27422249 Ry
     estimated scf accuracy    <       0.00312982 Ry

     iteration #  2     ecut=    70.00 Ry     beta= 0.70
     Davidson diagonalization with overlap
     ethr =  2.85E-05,  avg # of iterations =  2.0

     total cpu time spent up to now is        3.4 secs

     total energy              =     -84.27313032 Ry
     Harris-Foulkes estimate   =     -84.27419586 Ry
     estimated scf accuracy    <       0.00196400 Ry

     iteration #  3     ecut=    70.00 Ry     beta= 0.70
     Davidson diagonalization with overlap
     ethr =  1.79E-05,  avg # of iterations =  2.0

     total cpu time spent up to now is        4.1 secs

     total energy              =     -84.27358939 Ry
     Harris-Foulkes estimate   =     -84.27358953 Ry
     estimated scf accuracy    <       0.00002998 Ry

     iteration #  4     ecut=    70.00 Ry     beta= 0.70
     Davidson diagonalization with overlap
     ethr =  2.73E-07,  avg # of iterations =  2.3

     total cpu time spent up to now is        4.7 secs

     total energy              =     -84.27359571 Ry
     Harris-Foulkes estimate   =     -84.27359560 Ry
     estimated scf accuracy    <       0.00000021 Ry

     iteration #  5     ecut=    70.00 Ry     beta= 0.70
     Davidson diagonalization with overlap
     ethr =  1.91E-09,  avg # of iterations =  2.5

     total cpu time spent up to now is        5.4 secs

     total energy              =     -84.27359581 Ry
     Harris-Foulkes estimate   =     -84.27359583 Ry
     estimated scf accuracy    <       0.00000005 Ry

     iteration #  6     ecut=    70.00 Ry     beta= 0.70
     Davidson diagonalization with overlap
     ethr =  4.82E-10,  avg # of iterations =  2.0

     total cpu time spent up to now is        6.0 secs

     End of self-consistent calculation

          k = 0.0000 0.0000 0.0000 (  1139 PWs)   bands (ev):

     5.0679   8.0826   8.0826   8.0826   9.1189   9.1189  29.8005  33.0912
    33.0912  37.3848

          k =-0.0909 0.0909-0.0909 (  1143 PWs)   bands (ev):

     5.3230   8.0276   8.1518   8.1518   9.0951   9.0951  29.5744  31.1830
    33.0724  33.0725

          k =-0.1818 0.1818-0.1818 (  1149 PWs)   bands (ev):

     5.9896   7.9903   8.2751   8.2751   9.1061   9.1061  26.7794  30.5202
    32.9278  32.9278

          k =-0.2727 0.2727-0.2727 (  1140 PWs)   bands (ev):

     6.5408   8.2657   8.2657   8.5552   9.3211   9.3211  23.1851  30.0409
    32.4680  32.4680

          k =-0.3636 0.3636-0.3636 (  1143 PWs)   bands (ev):

     6.5673   8.1540   8.1540   9.6548   9.6548  10.1393  19.7626  29.3429
    31.7340  31.7340

          k =-0.4545 0.4545-0.4545 (  1149 PWs)   bands (ev):

     6.4877   8.0697   8.0697   9.8878   9.8878  12.0210  17.0132  28.9008
    31.1814  31.1814

          k = 0.0000 0.1818 0.0000 (  1147 PWs)   bands (ev):

     5.4086   7.9494   8.2088   8.2088   8.9896   9.1770  29.8070  31.8575
    31.9566  31.9566

          k =-0.0909 0.2727-0.0909 (  1153 PWs)   bands (ev):

     5.9510   7.8207   8.3490   8.3547   8.9229   9.2427  28.1292  30.2717
    31.0413  33.0087

          k =-0.1818 0.3636-0.1818 (  1131 PWs)   bands (ev):

     6.6107   7.9322   8.3081   8.4102   9.2792   9.4285  24.5463  29.9073
    30.3236  33.1733

          k =-0.2727 0.4545-0.2727 (  1134 PWs)   bands (ev):

     6.7371   8.1237   8.3265   8.6551   9.7189  10.3171  21.0157  29.2735
    29.8605  31.5957

          k =-0.3636 0.5455-0.3636 (  1138 PWs)   bands (ev):

     6.6480   7.9975   8.2198   9.2531   9.9150  12.0700  17.9030  28.6435
    29.8265  30.3673

          k = 0.5455-0.3636 0.5455 (  1149 PWs)   bands (ev):

     6.6201   7.9736   8.1736   9.4844   9.8770  13.0704  16.5960  28.1872
    29.8718  30.4191

          k = 0.4545-0.2727 0.4545 (  1138 PWs)   bands (ev):

     6.6923   8.0517   8.2181   9.2809   9.6004  11.5101  18.8761  28.0228
    30.1779  31.7222

          k = 0.3636-0.1818 0.3636 (  1130 PWs)   bands (ev):

     6.7709   8.1517   8.3335   8.5775   9.2044  10.1423  22.1793  28.2016
    31.1405  33.6641

          k = 0.2727-0.0909 0.2727 (  1143 PWs)   bands (ev):

     6.4368   7.8672   8.3536   8.3966   8.9196   9.4803  25.7611  28.6253
    32.2936  34.3824

          k = 0.1818-0.0000 0.1818 (  1159 PWs)   bands (ev):

     5.7260   7.9149   8.2521   8.2837   8.9638   9.1985  29.0224  29.3848
    32.2143  34.2763

          k = 0.0000 0.3636 0.0000 (  1146 PWs)   bands (ev):

     6.3013   7.6053   8.5701   8.5701   8.7709   9.3351  29.5479  29.5479
    29.8328  30.2332

          k =-0.0909 0.4545-0.0909 (  1136 PWs)   bands (ev):

     6.8345   7.4554   8.4686   8.7345   9.3072   9.4931  26.1869  28.4672
    29.4869  30.7938

          k =-0.1818 0.5455-0.1818 (  1137 PWs)   bands (ev):

     6.9920   7.6864   8.2973   8.7077   9.7649  10.5859  22.5998  27.8610
    28.2000  30.2045

          k =-0.2727 0.6364-0.2727 (  1133 PWs)   bands (ev):

     6.9254   7.8144   8.4767   8.5971   9.9483  12.4712  19.2707  26.7522
    27.8438  29.7853

          k = 0.6364-0.2727 0.6364 (  1139 PWs)   bands (ev):

     6.9346   7.7763   8.5084   8.7473   9.8894  14.4390  16.7863  25.6073
    28.5201  29.6528

          k = 0.5455-0.1818 0.5455 (  1134 PWs)   bands (ev):

     7.0442   7.8298   8.4939   8.7063   9.5846  13.2920  18.3742  24.9329
    29.8925  29.9426

          k = 0.4545-0.0909 0.4545 (  1135 PWs)   bands (ev):

     7.2206   7.9042   8.3247   8.5701   9.1436  11.5112  21.5672  24.7841
    30.7480  31.8330

          k = 0.3636 0.0000 0.3636 (  1133 PWs)   bands (ev):

     7.1160   7.6794   8.2926   8.7034   8.7296  10.2602  24.9223  25.2574
    32.0404  34.0866

          k = 0.0000 0.5455 0.0000 (  1130 PWs)   bands (ev):

     6.9223   7.1806   9.1053   9.1053   9.3876   9.5472  27.0444  27.0444
    27.8762  29.8794

          k =-0.0909 0.6364-0.0909 (  1132 PWs)   bands (ev):

     6.9305   7.0797   9.0087   9.2130   9.7718  10.7919  24.3276  25.9770
    26.1763  30.0095

          k =-0.1818 0.7273-0.1818 (  1129 PWs)   bands (ev):

     6.8876   7.2507   8.7959   9.1190   9.9769  12.7983  21.0277  24.2505
    25.9946  29.8565

          k = 0.7273-0.1818 0.7273 (  1140 PWs)   bands (ev):

     6.9676   7.5032   8.5674   8.9967   9.9276  15.2119  18.0593  22.8565
    26.5787  29.7602

          k = 0.6364-0.0909 0.6364 (  1139 PWs)   bands (ev):

     7.1830   7.7550   8.2867   8.8961   9.6380  15.3181  18.2151  21.8983
    27.8784  29.8488

          k = 0.5455 0.0000 0.5455 (  1129 PWs)   bands (ev):

     7.4514   7.8448   8.0745   8.7961   9.2829  13.2333  21.1838  21.6328
    29.7171  30.2019

          k = 0.0000 0.7273 0.0000 (  1134 PWs)   bands (ev):

     6.7125   6.8130   9.6805   9.6805   9.7475  11.4728  23.8038  25.0215
    25.0215  29.9305

          k =-0.0909 0.8182-0.0909 (  1133 PWs)   bands (ev):

     6.6470   6.7745   9.6128   9.6312   9.9981  13.1699  21.9062  23.0163
    24.5873  29.9627

          k = 0.8182-0.0909 0.8182 (  1140 PWs)   bands (ev):

     6.7230   6.9974   9.2017   9.4920   9.9960  15.3934  19.9902  20.7877
    24.9834  29.8867

          k = 0.7273 0.0000 0.7273 (  1135 PWs)   bands (ev):

     6.9337   7.4049   8.6553   9.2665   9.7975  17.5720  17.5787  20.1061
    26.1493  29.8310

          k = 0.0000 0.9091 0.0000 (  1138 PWs)   bands (ev):

     6.4655   6.6036   9.8692  10.0746  10.0746  13.9198  20.2962  23.8708
    23.8708  29.9635

          k = 0.9091-0.0000 0.9091 (  1134 PWs)   bands (ev):

     6.5142   6.6660   9.7960   9.8525  10.0923  14.9374  19.6278  22.4636
    24.0120  29.9798

          k =-0.1818 0.3636 0.0000 (  1140 PWs)   bands (ev):

     6.5480   7.6522   8.3599   8.5717   8.9241   9.5042  27.1932  27.4075
    31.9610  32.0637

          k =-0.2727 0.4545-0.0909 (  1134 PWs)   bands (ev):

     7.0379   7.7773   8.1677   8.6501   9.2147  10.2499  23.6771  26.7569
    30.3456  32.6018

          k =-0.3636 0.5455-0.1818 (  1136 PWs)   bands (ev):

     6.9735   7.9543   8.3431   8.6107   9.6263  11.6538  20.2338  26.5606
    28.8381  31.8002

          k = 0.5455-0.3636 0.7273 (  1134 PWs)   bands (ev):

     6.8818   7.8239   8.4150   8.8832   9.8443  13.5653  17.3156  26.8262
    27.6533  31.1388

          k =-0.1818 0.5455 0.0000 (  1134 PWs)   bands (ev):

     7.1429   7.2826   8.4131   9.0991   9.3790  10.3267  25.2841  25.5143
    28.1544  31.6220

          k =-0.2727 0.6364-0.0909 (  1135 PWs)   bands (ev):

     7.1152   7.4838   8.2748   9.0867   9.6822  11.8990  21.9288  25.0576
    26.3897  31.7353

          k = 0.6364-0.2727 0.8182 (  1134 PWs)   bands (ev):

     7.1017   7.6163   8.3030   8.9198   9.8769  14.0147  18.7503  24.8735
    25.3181  31.5200

          k = 0.5455-0.1818 0.7273 (  1140 PWs)   bands (ev):

     7.2092   7.6091   8.3812   8.7914   9.8110  15.4692  17.1137  23.8167
    26.0795  31.6670

          k = 0.4545-0.0909 0.6364 (  1140 PWs)   bands (ev):

     7.3829   7.6902   8.1017   8.8756   9.5278  13.3992  19.8859  23.2402
    27.2977  32.3933

          k = 0.3636 0.0000 0.5455 (  1137 PWs)   bands (ev):

     7.5506   7.6011   7.9278   9.0123   9.1176  11.5933  23.1572  23.2791
    28.7862  33.6597

          k =-0.1818 0.7273 0.0000 (  1139 PWs)   bands (ev):

     6.9070   6.9549   8.9659   9.6757   9.6958  12.2717  23.5560  23.8184
    24.1743  31.3213

          k = 0.7273-0.1818 0.9091 (  1137 PWs)   bands (ev):

     6.9154   7.1314   8.7417   9.4373   9.9472  14.3696  20.6503  22.4095
    23.8949  31.4923

          k = 0.6364-0.0909 0.8182 (  1135 PWs)   bands (ev):

     7.0554   7.4432   8.4207   9.1845   9.9114  16.8660  17.8998  21.1687
    24.6132  31.5922

          k = 0.5455 0.0000 0.7273 (  1136 PWs)   bands (ev):

     7.3147   7.7546   7.9951   9.0390   9.6820  15.4564  19.4611  20.7114
    25.8296  31.9655

          k = 0.8182-0.0909 1.0000 (  1139 PWs)   bands (ev):

     6.6459   6.7666   9.4483   9.7445  10.0741  14.7283  20.3898  22.8016
    22.8984  31.1903

          k = 0.7273 0.0000 0.9091 (  1134 PWs)   bands (ev):

     6.8010   7.0204   9.0067   9.4843  10.0691  16.3691  19.6671  20.4330
    23.4464  31.4547

          k = 0.6364-0.2727 1.0000 (  1137 PWs)   bands (ev):

     7.3618   7.3680   8.0931   9.3094   9.6676  13.7273  21.6515  21.8862
    24.7340  34.1226

          k = 0.5455-0.1818 0.9091 (  1143 PWs)   bands (ev):

     7.3376   7.5499   8.0085   9.1065   9.8986  15.9814  18.7038  22.1861
    23.4221  33.8810

          k = 0.6364-0.0909 1.0000 (  1138 PWs)   bands (ev):

     7.0564   7.2498   8.4530   9.3193  10.0725  16.3958  20.5962  20.6878
    21.7135  33.8492

          k = 0.5455 0.0000 0.9091 (  1139 PWs)   bands (ev):

     7.1892   7.6038   8.0268   9.1434  10.0700  18.2552  18.4267  20.2415
    22.1317  34.4902

     the Fermi energy is    13.1115 ev

!    total energy              =     -84.27359582 Ry
     Harris-Foulkes estimate   =     -84.27359582 Ry
     estimated scf accuracy    <          3.7E-10 Ry

     The total energy is the sum of the following terms:

     one-electron contribution =      -4.71237275 Ry
     hartree contribution      =      14.64966505 Ry
     xc contribution           =     -22.34948733 Ry
     ewald contribution        =     -71.86118018 Ry
     smearing contrib. (-TS)   =      -0.00022061 Ry

     convergence has been achieved in   6 iterations

     Forces acting on atoms (cartesian axes, Ry/au):

     atom    1 type  1   force =     0.00000000    0.00000000    0.00000000

     Total force =     0.000000     Total SCF correction =     0.000000


     Computing stress (Cartesian axis) and pressure

          total   stress  (Ry/bohr**3)                   (kbar)     P=   50.20
   0.00034124   0.00000000   0.00000000         50.20      0.00      0.00
   0.00000000   0.00034124  -0.00000000          0.00     50.20     -0.00
   0.00000000  -0.00000000   0.00034124          0.00     -0.00     50.20


     Writing output data file Ag.save/

     init_run     :      0.40s CPU      0.41s WALL (       1 calls)
     electrons    :      4.60s CPU      4.79s WALL (       1 calls)
     forces       :      0.06s CPU      0.06s WALL (       1 calls)
     stress       :      0.23s CPU      0.23s WALL (       1 calls)

     Called by init_run:
     wfcinit      :      0.19s CPU      0.20s WALL (       1 calls)
     potinit      :      0.01s CPU      0.01s WALL (       1 calls)
     hinit0       :      0.18s CPU      0.18s WALL (       1 calls)

     Called by electrons:
     c_bands      :      3.80s CPU      3.95s WALL (       7 calls)
     sum_band     :      0.71s CPU      0.74s WALL (       7 calls)
     v_of_rho     :      0.04s CPU      0.04s WALL (       7 calls)
     newd         :      0.06s CPU      0.06s WALL (       7 calls)
     mix_rho      :      0.00s CPU      0.00s WALL (       7 calls)

     Called by c_bands:
     init_us_2    :      0.13s CPU      0.13s WALL (     952 calls)
     cegterg      :      3.62s CPU      3.77s WALL (     392 calls)

     Called by sum_band:
     sum_band:bec :      0.00s CPU      0.00s WALL (     392 calls)
     addusdens    :      0.06s CPU      0.06s WALL (       7 calls)

     Called by *egterg:
     h_psi        :      2.93s CPU      3.05s WALL (    1455 calls)
     s_psi        :      0.09s CPU      0.10s WALL (    1455 calls)
     g_psi        :      0.01s CPU      0.01s WALL (    1007 calls)
     cdiaghg      :      0.29s CPU      0.30s WALL (    1343 calls)

     Called by h_psi:
     h_psi:pot    :      2.92s CPU      3.03s WALL (    1455 calls)
     h_psi:calbec :      0.14s CPU      0.14s WALL (    1455 calls)
     vloc_psi     :      2.67s CPU      2.78s WALL (    1455 calls)
     add_vuspsi   :      0.09s CPU      0.10s WALL (    1455 calls)

     General routines
     calbec       :      0.22s CPU      0.23s WALL (    2127 calls)
     fft          :      0.03s CPU      0.03s WALL (     104 calls)
     ffts         :      0.00s CPU      0.00s WALL (       7 calls)
     fftw         :      3.00s CPU      3.12s WALL (   24504 calls)

     Parallel routines
     fft_scatt_xy :      0.25s CPU      0.26s WALL (   24615 calls)
     fft_scatt_yz :      0.83s CPU      0.86s WALL (   24615 calls)

     PWSCF        :     6.14s CPU         6.42s WALL


   This run was terminated on:   0:30:52  27Mar2024            

=------------------------------------------------------------------------------=
   JOB DONE.
=------------------------------------------------------------------------------=
