
     Program PWSCF v.6.3MaX starts on 27Mar2024 at  0:22:31 

     This program is part of the open-source Quantum ESPRESSO suite
     for quantum simulation of materials; please cite
         "P. Giannozzi et al., J. Phys.:Condens. Matter 21 395502 (2009);
         "P. Giannozzi et al., J. Phys.:Condens. Matter 29 465901 (2017);
          URL http://www.quantum-espresso.org", 
     in publications or presentations arising from this work. More details at
     http://www.quantum-espresso.org/quote

     Parallel version (MPI), running on     5 processors

     MPI processes distributed on     1 nodes
     R & G space division:  proc/nbgrp/npool/nimage =       5
     Waiting for input...
     Reading input from standard input

     Current dimensions of program PWSCF are:
     Max number of different atomic species (ntypx) = 10
     Max number of k-points (npk) =  40000
     Max angular momentum in pseudopotentials (lmaxx) =  3

     Subspace diagonalization in iterative solution of the eigenvalue problem:
     a serial algorithm will be used


     Parallelization info
     --------------------
     sticks:   dense  smooth     PW     G-vecs:    dense   smooth      PW
     Min          84      84     27                 1115     1115     207
     Max          85      85     28                 1117     1117     208
     Sum         421     421    139                 5577     5577    1037



     bravais-lattice index     =            2
     lattice parameter (alat)  =       7.7200  a.u.
     unit-cell volume          =     115.0249 (a.u.)^3
     number of atoms/cell      =            1
     number of atomic types    =            1
     number of electrons       =        11.00
     number of Kohn-Sham states=           10
     kinetic-energy cutoff     =      50.0000  Ry
     charge density cutoff     =     200.0000  Ry
     convergence threshold     =      1.0E-08
     mixing beta               =       0.7000
     number of iterations used =            8  plain     mixing
     Exchange-correlation      = PBESOL ( 1  4 10  8 0 0)

     celldm(1)=   7.720000  celldm(2)=   0.000000  celldm(3)=   0.000000
     celldm(4)=   0.000000  celldm(5)=   0.000000  celldm(6)=   0.000000

     crystal axes: (cart. coord. in units of alat)
               a(1) = (  -0.500000   0.000000   0.500000 )  
               a(2) = (   0.000000   0.500000   0.500000 )  
               a(3) = (  -0.500000   0.500000   0.000000 )  

     reciprocal axes: (cart. coord. in units 2 pi/alat)
               b(1) = ( -1.000000 -1.000000  1.000000 )  
               b(2) = (  1.000000  1.000000  1.000000 )  
               b(3) = ( -1.000000  1.000000 -1.000000 )  


     PseudoPot. # 1 for Ag read from file:
     /home/lorenzo/pseudos/Ag/Ag.pbesol-n-rrkjus_psl.1.0.0.UPF
     MD5 check sum: 3b43e8aa747a56f565f44d11355b8b45
     Pseudo is Ultrasoft + core correction, Zval = 11.0
     Generated using "atomic" code by A. Dal Corso v.6.2.2
     Using radial grid of 1237 points,  6 beta functions with: 
                l(1) =   0
                l(2) =   0
                l(3) =   1
                l(4) =   1
                l(5) =   2
                l(6) =   2
     Q(r) pseudized with 0 coefficients 


     atomic species   valence    mass     pseudopotential
        Ag            11.00   107.86820     Ag( 1.00)

     48 Sym. Ops., with inversion, found



   Cartesian axes

     site n.     atom                  positions (alat units)
         1           Ag  tau(   1) = (   0.0000000   0.0000000   0.0000000  )

     number of k points=    35  gaussian smearing, width (Ry)=  0.0100
                       cart. coord. in units 2pi/alat
        k(    1) = (   0.0000000   0.0000000   0.0000000), wk =   0.0027435
        k(    2) = (  -0.1111111   0.1111111  -0.1111111), wk =   0.0219479
        k(    3) = (  -0.2222222   0.2222222  -0.2222222), wk =   0.0219479
        k(    4) = (  -0.3333333   0.3333333  -0.3333333), wk =   0.0219479
        k(    5) = (  -0.4444444   0.4444444  -0.4444444), wk =   0.0219479
        k(    6) = (   0.0000000   0.2222222   0.0000000), wk =   0.0164609
        k(    7) = (  -0.1111111   0.3333333  -0.1111111), wk =   0.0658436
        k(    8) = (  -0.2222222   0.4444444  -0.2222222), wk =   0.0658436
        k(    9) = (  -0.3333333   0.5555556  -0.3333333), wk =   0.0658436
        k(   10) = (   0.5555556  -0.3333333   0.5555556), wk =   0.0658436
        k(   11) = (   0.4444444  -0.2222222   0.4444444), wk =   0.0658436
        k(   12) = (   0.3333333  -0.1111111   0.3333333), wk =   0.0658436
        k(   13) = (   0.2222222  -0.0000000   0.2222222), wk =   0.0329218
        k(   14) = (   0.0000000   0.4444444   0.0000000), wk =   0.0164609
        k(   15) = (  -0.1111111   0.5555556  -0.1111111), wk =   0.0658436
        k(   16) = (  -0.2222222   0.6666667  -0.2222222), wk =   0.0658436
        k(   17) = (   0.6666667  -0.2222222   0.6666667), wk =   0.0658436
        k(   18) = (   0.5555556  -0.1111111   0.5555556), wk =   0.0658436
        k(   19) = (   0.4444444   0.0000000   0.4444444), wk =   0.0329218
        k(   20) = (   0.0000000   0.6666667   0.0000000), wk =   0.0164609
        k(   21) = (  -0.1111111   0.7777778  -0.1111111), wk =   0.0658436
        k(   22) = (   0.7777778  -0.1111111   0.7777778), wk =   0.0658436
        k(   23) = (   0.6666667  -0.0000000   0.6666667), wk =   0.0329218
        k(   24) = (   0.0000000   0.8888889   0.0000000), wk =   0.0164609
        k(   25) = (   0.8888889   0.0000000   0.8888889), wk =   0.0329218
        k(   26) = (  -0.2222222   0.4444444   0.0000000), wk =   0.0658436
        k(   27) = (  -0.3333333   0.5555556  -0.1111111), wk =   0.1316872
        k(   28) = (   0.5555556  -0.3333333   0.7777778), wk =   0.1316872
        k(   29) = (  -0.2222222   0.6666667   0.0000000), wk =   0.0658436
        k(   30) = (   0.6666667  -0.2222222   0.8888889), wk =   0.1316872
        k(   31) = (   0.5555556  -0.1111111   0.7777778), wk =   0.1316872
        k(   32) = (   0.4444444   0.0000000   0.6666667), wk =   0.0658436
        k(   33) = (   0.7777778  -0.1111111   1.0000000), wk =   0.0658436
        k(   34) = (   0.6666667  -0.0000000   0.8888889), wk =   0.0658436
        k(   35) = (   0.5555556  -0.1111111   1.0000000), wk =   0.0658436

     Dense  grid:     5577 G-vectors     FFT dimensions: (  25,  25,  25)

     Estimated max dynamical RAM per process >       6.29 MB

     Estimated total dynamical RAM >      31.45 MB

     Initial potential from superposition of free atoms

     starting charge   10.99964, renormalised to   11.00000
     Starting wfcs are    9 randomized atomic wfcs +    1 random wfcs

     total cpu time spent up to now is        1.0 secs

     Self-consistent Calculation

     iteration #  1     ecut=    50.00 Ry     beta= 0.70
     Davidson diagonalization with overlap
     ethr =  1.00E-02,  avg # of iterations =  4.6

     Threshold (ethr) on eigenvalues was too large:
     Diagonalizing with lowered threshold

     Davidson diagonalization with overlap
     ethr =  4.36E-05,  avg # of iterations =  2.2

     total cpu time spent up to now is        1.6 secs

     total energy              =     -84.17677081 Ry
     Harris-Foulkes estimate   =     -84.18006767 Ry
     estimated scf accuracy    <       0.00520226 Ry

     iteration #  2     ecut=    50.00 Ry     beta= 0.70
     Davidson diagonalization with overlap
     ethr =  4.73E-05,  avg # of iterations =  2.0

     total cpu time spent up to now is        1.9 secs

     total energy              =     -84.17797623 Ry
     Harris-Foulkes estimate   =     -84.17990666 Ry
     estimated scf accuracy    <       0.00359111 Ry

     iteration #  3     ecut=    50.00 Ry     beta= 0.70
     Davidson diagonalization with overlap
     ethr =  3.26E-05,  avg # of iterations =  2.0

     total cpu time spent up to now is        2.2 secs

     total energy              =     -84.17877686 Ry
     Harris-Foulkes estimate   =     -84.17877673 Ry
     estimated scf accuracy    <       0.00002737 Ry

     iteration #  4     ecut=    50.00 Ry     beta= 0.70
     Davidson diagonalization with overlap
     ethr =  2.49E-07,  avg # of iterations =  2.6

     total cpu time spent up to now is        2.5 secs

     total energy              =     -84.17878575 Ry
     Harris-Foulkes estimate   =     -84.17878568 Ry
     estimated scf accuracy    <       0.00000045 Ry

     iteration #  5     ecut=    50.00 Ry     beta= 0.70
     Davidson diagonalization with overlap
     ethr =  4.13E-09,  avg # of iterations =  2.1

     total cpu time spent up to now is        2.7 secs

     total energy              =     -84.17878586 Ry
     Harris-Foulkes estimate   =     -84.17878588 Ry
     estimated scf accuracy    <       0.00000003 Ry

     iteration #  6     ecut=    50.00 Ry     beta= 0.70
     Davidson diagonalization with overlap
     ethr =  3.06E-10,  avg # of iterations =  2.3

     total cpu time spent up to now is        3.0 secs

     End of self-consistent calculation

          k = 0.0000 0.0000 0.0000 (   701 PWs)   bands (ev):

     4.8089   7.9249   7.9249   7.9249   8.9740   8.9740  29.5477  32.8325
    32.8325  32.8325

          k =-0.1111 0.1111-0.1111 (   685 PWs)   bands (ev):

     5.1856   7.8480   8.0246   8.0246   8.9433   8.9433  28.9653  30.5771
    32.8019  32.8019

          k =-0.2222 0.2222-0.2222 (   679 PWs)   bands (ev):

     6.0587   7.9327   8.1379   8.1379   9.0282   9.0282  24.9441  30.1202
    32.5174  32.5174

          k =-0.3333 0.3333-0.3333 (   685 PWs)   bands (ev):

     6.3884   8.0381   8.0381   9.3041   9.4020   9.4020  20.6295  29.3165
    31.7236  31.7236

          k =-0.4444 0.4444-0.4444 (   682 PWs)   bands (ev):

     6.3041   7.9198   7.9198   9.7320   9.7320  11.5913  17.0231  28.6804
    30.9501  30.9501

          k = 0.0000 0.2222 0.0000 (   681 PWs)   bands (ev):

     5.3123   7.7280   8.1141   8.1141   8.7875   9.0609  29.5646  31.2233
    31.2233  31.2271

          k =-0.1111 0.3333-0.1111 (   681 PWs)   bands (ev):

     6.0617   7.5699   8.2365   8.2945   8.8273   9.1828  26.6685  29.8401
    30.0350  32.5643

          k =-0.2222 0.4444-0.2222 (   690 PWs)   bands (ev):

     6.6043   7.9994   8.0212   8.2760   9.4952   9.7582  22.2628  29.1864
    29.2628  31.4037

          k =-0.3333 0.5556-0.3333 (   692 PWs)   bands (ev):

     6.5343   7.8199   8.1421   8.8260   9.7711  11.7227  18.2546  28.2339
    29.1088  29.9317

          k = 0.5556-0.3333 0.5556 (   684 PWs)   bands (ev):

     6.5012   7.7780   8.0745   9.1667   9.7159  13.0769  16.4435  27.4098
    29.4834  29.8869

          k = 0.4444-0.2222 0.4444 (   681 PWs)   bands (ev):

     6.6058   7.8917   8.1398   8.8090   9.3174  11.1145  19.5352  27.1251
    30.0922  31.7188

          k = 0.3333-0.1111 0.3333 (   677 PWs)   bands (ev):

     6.5700   7.7749   8.1820   8.2869   8.8279   9.7487  23.7347  27.4203
    31.5922  34.2346

          k = 0.2222-0.0000 0.2222 (   682 PWs)   bands (ev):

     5.7641   7.6903   8.1768   8.1790   8.7570   9.1476  28.0927  28.0944
    32.1496  34.4209

          k = 0.0000 0.4444 0.0000 (   685 PWs)   bands (ev):

     6.4624   7.2538   8.6401   8.6401   8.6714   9.2844  28.1510  28.1510
    29.2307  29.6183

          k =-0.1111 0.5556-0.1111 (   684 PWs)   bands (ev):

     6.8179   7.1335   8.4307   8.7912   9.5395   9.9495  24.3042  26.9767
    27.5870  29.9132

          k =-0.2222 0.6667-0.2222 (   690 PWs)   bands (ev):

     6.7796   7.4117   8.3050   8.6813   9.8121  12.1709  20.1304  25.5548
    26.6993  29.5842

          k = 0.6667-0.2222 0.6667 (   688 PWs)   bands (ev):

     6.8477   7.5343   8.3668   8.5537   9.7391  14.8497  16.7738  23.9941
    27.4927  29.4553

          k = 0.5556-0.1111 0.5556 (   687 PWs)   bands (ev):

     7.0757   7.6273   8.2146   8.5142   9.3150  13.2627  19.0402  23.1392
    29.3085  29.8027

          k = 0.4444 0.0000 0.4444 (   676 PWs)   bands (ev):

     7.2781   7.5152   8.0180   8.5573   8.8065  11.1681  23.0144  23.1796
    30.7454  31.8263

          k = 0.0000 0.6667 0.0000 (   693 PWs)   bands (ev):

     6.6292   6.7534   9.3496   9.3496   9.5463  10.4423  24.9450  25.3577
    25.3577  29.6911

          k =-0.1111 0.7778-0.1111 (   687 PWs)   bands (ev):

     6.5562   6.7097   9.2220   9.3437   9.8352  12.5520  22.2249  22.8200
    24.7284  29.7140

          k = 0.7778-0.1111 0.7778 (   693 PWs)   bands (ev):

     6.6538   7.0272   8.7461   9.1762   9.8094  15.4337  18.8232  20.9441
    25.2991  29.6088

          k = 0.6667-0.0000 0.6667 (   680 PWs)   bands (ev):

     6.9449   7.5210   8.1474   8.9297   9.5006  15.8008  18.4676  20.1969
    26.9583  29.6116

          k = 0.0000 0.8889 0.0000 (   684 PWs)   bands (ev):

     6.3049   6.4462   9.7232   9.9070   9.9070  13.4317  20.3666  23.6800
    23.6800  29.7429

          k = 0.8889 0.0000 0.8889 (   696 PWs)   bands (ev):

     6.3732   6.5426   9.5841   9.6143   9.9332  14.8930  19.4120  21.7296
    23.8897  29.7397

          k =-0.2222 0.4444 0.0000 (   686 PWs)   bands (ev):

     6.7857   7.3582   8.0917   8.6397   8.8945   9.7866  25.5278  25.8318
    30.2512  32.2030

          k =-0.3333 0.5556-0.1111 (   685 PWs)   bands (ev):

     6.9740   7.7360   7.8448   8.6306   9.3355  11.2883  21.3511  25.2352
    28.2018  32.1717

          k = 0.5556-0.3333 0.7778 (   688 PWs)   bands (ev):

     6.8612   7.5711   8.3376   8.5229   9.6721  13.6340  17.5531  25.5000
    26.5453  31.3595

          k =-0.2222 0.6667 0.0000 (   680 PWs)   bands (ev):

     6.9306   6.9481   8.4061   9.3420   9.4075  11.5935  23.4463  23.6197
    25.2707  31.7306

          k = 0.6667-0.2222 0.8889 (   685 PWs)   bands (ev):

     6.9130   7.2079   8.2018   9.0894   9.7398  14.0994  19.6244  23.1665
    23.7858  31.8693

          k = 0.5556-0.1111 0.7778 (   691 PWs)   bands (ev):

     7.1023   7.4148   7.9928   8.8615   9.6906  16.1101  17.4084  21.8523
    24.6764  32.0709

          k = 0.4444 0.0000 0.6667 (   690 PWs)   bands (ev):

     7.4432   7.4852   7.6040   8.9168   9.3480  13.4315  20.9179  21.3540
    26.2745  32.8501

          k = 0.7778-0.1111 1.0000 (   686 PWs)   bands (ev):

     6.5706   6.6880   9.0383   9.5230   9.9055  14.5678  20.5076  22.1877
    22.3925  31.4766

          k = 0.6667-0.0000 0.8889 (   692 PWs)   bands (ev):

     6.7728   7.0509   8.4944   9.1903   9.8992  16.8496  18.9079  19.8250
    23.1213  31.8642

          k = 0.5556-0.1111 1.0000 (   694 PWs)   bands (ev):

     7.0436   7.3975   7.8540   9.0247   9.9016  16.6711  19.5007  20.3701
    21.7494  35.0405

     the Fermi energy is    12.9292 ev

!    total energy              =     -84.17878587 Ry
     Harris-Foulkes estimate   =     -84.17878587 Ry
     estimated scf accuracy    <          8.8E-10 Ry

     The total energy is the sum of the following terms:

     one-electron contribution =      -4.73514278 Ry
     hartree contribution      =      14.55748706 Ry
     xc contribution           =     -22.13989229 Ry
     ewald contribution        =     -71.86118022 Ry
     smearing contrib. (-TS)   =      -0.00005764 Ry

     convergence has been achieved in   6 iterations

     Forces acting on atoms (cartesian axes, Ry/au):

     atom    1 type  1   force =     0.00000000    0.00000000    0.00000000

     Total force =     0.000000     Total SCF correction =     0.000000


     Computing stress (Cartesian axis) and pressure

          total   stress  (Ry/bohr**3)                   (kbar)     P=  -42.51
  -0.00028900  -0.00000000  -0.00000000        -42.51     -0.00     -0.00
  -0.00000000  -0.00028900   0.00000000         -0.00    -42.51      0.00
  -0.00000000   0.00000000  -0.00028900         -0.00      0.00    -42.51


     Writing output data file Ag.save/

     init_run     :      0.23s CPU      0.24s WALL (       1 calls)
     electrons    :      1.89s CPU      2.00s WALL (       1 calls)
     forces       :      0.05s CPU      0.05s WALL (       1 calls)
     stress       :      0.16s CPU      0.16s WALL (       1 calls)

     Called by init_run:
     wfcinit      :      0.08s CPU      0.08s WALL (       1 calls)
     potinit      :      0.01s CPU      0.01s WALL (       1 calls)
     hinit0       :      0.14s CPU      0.14s WALL (       1 calls)

     Called by electrons:
     c_bands      :      1.54s CPU      1.63s WALL (       7 calls)
     sum_band     :      0.29s CPU      0.31s WALL (       7 calls)
     v_of_rho     :      0.02s CPU      0.02s WALL (       7 calls)
     newd         :      0.04s CPU      0.04s WALL (       7 calls)
     mix_rho      :      0.00s CPU      0.00s WALL (       7 calls)

     Called by c_bands:
     init_us_2    :      0.05s CPU      0.05s WALL (     595 calls)
     cegterg      :      1.48s CPU      1.56s WALL (     245 calls)

     Called by sum_band:
     sum_band:bec :      0.00s CPU      0.00s WALL (     245 calls)
     addusdens    :      0.03s CPU      0.04s WALL (       7 calls)

     Called by *egterg:
     h_psi        :      1.15s CPU      1.23s WALL (     902 calls)
     s_psi        :      0.04s CPU      0.04s WALL (     902 calls)
     g_psi        :      0.00s CPU      0.00s WALL (     622 calls)
     cdiaghg      :      0.16s CPU      0.17s WALL (     832 calls)

     Called by h_psi:
     h_psi:pot    :      1.15s CPU      1.22s WALL (     902 calls)
     h_psi:calbec :      0.05s CPU      0.06s WALL (     902 calls)
     vloc_psi     :      1.05s CPU      1.12s WALL (     902 calls)
     add_vuspsi   :      0.04s CPU      0.04s WALL (     902 calls)

     General routines
     calbec       :      0.09s CPU      0.10s WALL (    1322 calls)
     fft          :      0.02s CPU      0.02s WALL (     104 calls)
     ffts         :      0.00s CPU      0.00s WALL (       7 calls)
     fftw         :      1.18s CPU      1.25s WALL (   15162 calls)

     Parallel routines
     fft_scatt_xy :      0.10s CPU      0.11s WALL (   15273 calls)
     fft_scatt_yz :      0.29s CPU      0.31s WALL (   15273 calls)

     PWSCF        :     3.14s CPU         3.31s WALL


   This run was terminated on:   0:22:34  27Mar2024            

=------------------------------------------------------------------------------=
   JOB DONE.
=------------------------------------------------------------------------------=
