
     Program PWSCF v.6.3MaX starts on 27Mar2024 at  0:24:39 

     This program is part of the open-source Quantum ESPRESSO suite
     for quantum simulation of materials; please cite
         "P. Giannozzi et al., J. Phys.:Condens. Matter 21 395502 (2009);
         "P. Giannozzi et al., J. Phys.:Condens. Matter 29 465901 (2017);
          URL http://www.quantum-espresso.org", 
     in publications or presentations arising from this work. More details at
     http://www.quantum-espresso.org/quote

     Parallel version (MPI), running on     5 processors

     MPI processes distributed on     1 nodes
     R & G space division:  proc/nbgrp/npool/nimage =       5
     Waiting for input...
     Reading input from standard input

     Current dimensions of program PWSCF are:
     Max number of different atomic species (ntypx) = 10
     Max number of k-points (npk) =  40000
     Max angular momentum in pseudopotentials (lmaxx) =  3

     Subspace diagonalization in iterative solution of the eigenvalue problem:
     a serial algorithm will be used


     Parallelization info
     --------------------
     sticks:   dense  smooth     PW     G-vecs:    dense   smooth      PW
     Min          90      90     30                 1274     1274     241
     Max          91      91     31                 1276     1276     244
     Sum         451     451    151                 6375     6375    1211



     bravais-lattice index     =            2
     lattice parameter (alat)  =       7.7200  a.u.
     unit-cell volume          =     115.0249 (a.u.)^3
     number of atoms/cell      =            1
     number of atomic types    =            1
     number of electrons       =        11.00
     number of Kohn-Sham states=           10
     kinetic-energy cutoff     =      55.0000  Ry
     charge density cutoff     =     220.0000  Ry
     convergence threshold     =      1.0E-08
     mixing beta               =       0.7000
     number of iterations used =            8  plain     mixing
     Exchange-correlation      = PBESOL ( 1  4 10  8 0 0)

     celldm(1)=   7.720000  celldm(2)=   0.000000  celldm(3)=   0.000000
     celldm(4)=   0.000000  celldm(5)=   0.000000  celldm(6)=   0.000000

     crystal axes: (cart. coord. in units of alat)
               a(1) = (  -0.500000   0.000000   0.500000 )  
               a(2) = (   0.000000   0.500000   0.500000 )  
               a(3) = (  -0.500000   0.500000   0.000000 )  

     reciprocal axes: (cart. coord. in units 2 pi/alat)
               b(1) = ( -1.000000 -1.000000  1.000000 )  
               b(2) = (  1.000000  1.000000  1.000000 )  
               b(3) = ( -1.000000  1.000000 -1.000000 )  


     PseudoPot. # 1 for Ag read from file:
     /home/lorenzo/pseudos/Ag/Ag.pbesol-n-rrkjus_psl.1.0.0.UPF
     MD5 check sum: 3b43e8aa747a56f565f44d11355b8b45
     Pseudo is Ultrasoft + core correction, Zval = 11.0
     Generated using "atomic" code by A. Dal Corso v.6.2.2
     Using radial grid of 1237 points,  6 beta functions with: 
                l(1) =   0
                l(2) =   0
                l(3) =   1
                l(4) =   1
                l(5) =   2
                l(6) =   2
     Q(r) pseudized with 0 coefficients 


     atomic species   valence    mass     pseudopotential
        Ag            11.00   107.86820     Ag( 1.00)

     48 Sym. Ops., with inversion, found



   Cartesian axes

     site n.     atom                  positions (alat units)
         1           Ag  tau(   1) = (   0.0000000   0.0000000   0.0000000  )

     number of k points=    29  gaussian smearing, width (Ry)=  0.0100
                       cart. coord. in units 2pi/alat
        k(    1) = (   0.0000000   0.0000000   0.0000000), wk =   0.0039062
        k(    2) = (  -0.1250000   0.1250000  -0.1250000), wk =   0.0312500
        k(    3) = (  -0.2500000   0.2500000  -0.2500000), wk =   0.0312500
        k(    4) = (  -0.3750000   0.3750000  -0.3750000), wk =   0.0312500
        k(    5) = (   0.5000000  -0.5000000   0.5000000), wk =   0.0156250
        k(    6) = (   0.0000000   0.2500000   0.0000000), wk =   0.0234375
        k(    7) = (  -0.1250000   0.3750000  -0.1250000), wk =   0.0937500
        k(    8) = (  -0.2500000   0.5000000  -0.2500000), wk =   0.0937500
        k(    9) = (   0.6250000  -0.3750000   0.6250000), wk =   0.0937500
        k(   10) = (   0.5000000  -0.2500000   0.5000000), wk =   0.0937500
        k(   11) = (   0.3750000  -0.1250000   0.3750000), wk =   0.0937500
        k(   12) = (   0.2500000   0.0000000   0.2500000), wk =   0.0468750
        k(   13) = (   0.0000000   0.5000000   0.0000000), wk =   0.0234375
        k(   14) = (  -0.1250000   0.6250000  -0.1250000), wk =   0.0937500
        k(   15) = (   0.7500000  -0.2500000   0.7500000), wk =   0.0937500
        k(   16) = (   0.6250000  -0.1250000   0.6250000), wk =   0.0937500
        k(   17) = (   0.5000000   0.0000000   0.5000000), wk =   0.0468750
        k(   18) = (   0.0000000   0.7500000   0.0000000), wk =   0.0234375
        k(   19) = (   0.8750000  -0.1250000   0.8750000), wk =   0.0937500
        k(   20) = (   0.7500000   0.0000000   0.7500000), wk =   0.0468750
        k(   21) = (   0.0000000  -1.0000000   0.0000000), wk =   0.0117188
        k(   22) = (  -0.2500000   0.5000000   0.0000000), wk =   0.0937500
        k(   23) = (   0.6250000  -0.3750000   0.8750000), wk =   0.1875000
        k(   24) = (   0.5000000  -0.2500000   0.7500000), wk =   0.0937500
        k(   25) = (   0.7500000  -0.2500000   1.0000000), wk =   0.0937500
        k(   26) = (   0.6250000  -0.1250000   0.8750000), wk =   0.1875000
        k(   27) = (   0.5000000   0.0000000   0.7500000), wk =   0.0937500
        k(   28) = (  -0.2500000  -1.0000000   0.0000000), wk =   0.0468750
        k(   29) = (  -0.5000000  -1.0000000   0.0000000), wk =   0.0234375

     Dense  grid:     6375 G-vectors     FFT dimensions: (  25,  25,  25)

     Estimated max dynamical RAM per process >       6.89 MB

     Estimated total dynamical RAM >      34.44 MB

     Initial potential from superposition of free atoms

     starting charge   10.99964, renormalised to   11.00000
     Starting wfcs are    9 randomized atomic wfcs +    1 random wfcs

     total cpu time spent up to now is        1.1 secs

     Self-consistent Calculation

     iteration #  1     ecut=    55.00 Ry     beta= 0.70
     Davidson diagonalization with overlap
     ethr =  1.00E-02,  avg # of iterations =  4.6

     Threshold (ethr) on eigenvalues was too large:
     Diagonalizing with lowered threshold

     Davidson diagonalization with overlap
     ethr =  4.02E-05,  avg # of iterations =  2.6

     total cpu time spent up to now is        1.7 secs

     total energy              =     -84.17575649 Ry
     Harris-Foulkes estimate   =     -84.17882658 Ry
     estimated scf accuracy    <       0.00479522 Ry

     iteration #  2     ecut=    55.00 Ry     beta= 0.70
     Davidson diagonalization with overlap
     ethr =  4.36E-05,  avg # of iterations =  2.0

     total cpu time spent up to now is        2.0 secs

     total energy              =     -84.17686489 Ry
     Harris-Foulkes estimate   =     -84.17865242 Ry
     estimated scf accuracy    <       0.00332592 Ry

     iteration #  3     ecut=    55.00 Ry     beta= 0.70
     Davidson diagonalization with overlap
     ethr =  3.02E-05,  avg # of iterations =  2.0

     total cpu time spent up to now is        2.2 secs

     total energy              =     -84.17760431 Ry
     Harris-Foulkes estimate   =     -84.17760553 Ry
     estimated scf accuracy    <       0.00002474 Ry

     iteration #  4     ecut=    55.00 Ry     beta= 0.70
     Davidson diagonalization with overlap
     ethr =  2.25E-07,  avg # of iterations =  2.7

     total cpu time spent up to now is        2.4 secs

     total energy              =     -84.17761274 Ry
     Harris-Foulkes estimate   =     -84.17761270 Ry
     estimated scf accuracy    <       0.00000047 Ry

     iteration #  5     ecut=    55.00 Ry     beta= 0.70
     Davidson diagonalization with overlap
     ethr =  4.31E-09,  avg # of iterations =  2.1

     total cpu time spent up to now is        2.7 secs

     total energy              =     -84.17761285 Ry
     Harris-Foulkes estimate   =     -84.17761287 Ry
     estimated scf accuracy    <       0.00000004 Ry

     iteration #  6     ecut=    55.00 Ry     beta= 0.70
     Davidson diagonalization with overlap
     ethr =  3.77E-10,  avg # of iterations =  1.9

     total cpu time spent up to now is        3.0 secs

     End of self-consistent calculation

          k = 0.0000 0.0000 0.0000 (   821 PWs)   bands (ev):

     4.8090   7.9309   7.9309   7.9309   8.9821   8.9821  29.5459  32.8336
    32.8336  32.8336

          k =-0.1250 0.1250-0.1250 (   797 PWs)   bands (ev):

     5.2808   7.8402   8.0517   8.0517   8.9484   8.9484  28.5879  30.4469
    32.7894  32.7894

          k =-0.2500 0.2500-0.2500 (   797 PWs)   bands (ev):

     6.2302   8.1212   8.1353   8.1353   9.1101   9.1101  23.8448  29.9553
    32.3665  32.3665

          k =-0.3750 0.3750-0.3750 (   790 PWs)   bands (ev):

     6.3663   7.9912   7.9912   9.5598   9.5598  10.1440  19.1369  29.0177
    31.3808  31.3808

          k = 0.5000-0.5000 0.5000 (   796 PWs)   bands (ev):

     6.2900   7.9083   7.9083   9.7890   9.7890  12.1940  16.2632  28.5916
    30.8339  30.8339

          k = 0.0000 0.2500 0.0000 (   797 PWs)   bands (ev):

     5.4398   7.6851   8.1690   8.1690   8.7543   9.0912  29.5689  30.8699
    30.8699  30.9722

          k =-0.1250 0.3750-0.1250 (   800 PWs)   bands (ev):

     6.3100   7.5254   8.2232   8.3617   8.9701   9.2641  25.8101  29.5156
    29.6855  32.1554

          k =-0.2500 0.5000-0.2500 (   788 PWs)   bands (ev):

     6.6490   7.9221   8.2098   8.2877   9.6402  10.4334  20.9131  28.7270
    28.8052  30.5074

          k = 0.6250-0.3750 0.6250 (   795 PWs)   bands (ev):

     6.5531   7.7546   8.1490   8.9467   9.8049  12.9345  16.8704  27.4593
    29.0757  29.4930

          k = 0.5000-0.2500 0.5000 (   790 PWs)   bands (ev):

     6.6112   7.8090   8.1442   8.9504   9.5002  12.1625  18.0512  26.7006
    29.7092  30.6488

          k = 0.3750-0.1250 0.3750 (   796 PWs)   bands (ev):

     6.7214   7.8650   8.2045   8.2954   8.9262  10.1742  22.5386  26.7786
    31.1122  33.4258

          k = 0.2500 0.0000 0.2500 (   799 PWs)   bands (ev):

     5.9861   7.6514   8.2047   8.2465   8.7229   9.2584  27.3883  27.5450
    32.3808  33.8448

          k = 0.0000 0.5000 0.0000 (   817 PWs)   bands (ev):

     6.6500   7.1258   8.8157   8.8157   8.8846   9.3595  27.3896  27.3896
    28.4755  29.6378

          k =-0.1250 0.6250-0.1250 (   796 PWs)   bands (ev):

     6.7882   7.0504   8.6017   8.9321   9.6769  10.7505  23.2372  26.0849
    26.2445  29.7656

          k = 0.7500-0.2500 0.7500 (   788 PWs)   bands (ev):

     6.7789   7.3515   8.3978   8.7800   9.8474  13.6613  18.7823  23.9030
    26.3828  29.5217

          k = 0.6250-0.1250 0.6250 (   789 PWs)   bands (ev):

     7.0070   7.5779   8.2037   8.6553   9.5278  14.8345  17.6553  22.4579
    27.9128  29.5916

          k = 0.5000 0.0000 0.5000 (   792 PWs)   bands (ev):

     7.3406   7.5848   7.9621   8.5965   8.9950  12.1300  21.9418  22.0532
    30.2457  30.5024

          k = 0.0000 0.7500 0.0000 (   789 PWs)   bands (ev):

     6.4975   6.6110   9.6090   9.6090   9.6383  11.5451  23.0676  24.5624
    24.5624  29.7182

          k = 0.8750-0.1250 0.8750 (   782 PWs)   bands (ev):

     6.4662   6.6409   9.3816   9.4888   9.9097  14.0332  20.6428  21.6855
    24.2716  29.7160

          k = 0.7500 0.0000 0.7500 (   786 PWs)   bands (ev):

     6.7034   7.1244   8.6419   9.2055   9.7145  16.9356  17.9282  19.8029
    25.5298  29.6112

          k = 0.0000-1.0000 0.0000 (   790 PWs)   bands (ev):

     6.2581   6.4088   9.7568   9.9997   9.9997  14.2166  19.3852  23.4535
    23.4535  29.7537

          k =-0.2500 0.5000 0.0000 (   800 PWs)   bands (ev):

     7.0430   7.2880   8.0078   8.8135   8.9978  10.2578  24.6143  24.9070
    29.1170  32.5081

          k = 0.6250-0.3750 0.8750 (   791 PWs)   bands (ev):

     7.0214   7.6152   7.9398   8.7171   9.4956  12.3944  20.0324  24.4968
    26.8822  32.1538

          k = 0.5000-0.2500 0.7500 (   802 PWs)   bands (ev):

     6.9653   7.4695   8.3483   8.5415   9.7132  14.9306  16.6112  25.1320
    25.3478  31.6170

          k = 0.7500-0.2500 1.0000 (   793 PWs)   bands (ev):

     6.8482   6.8858   8.5260   9.4529   9.6012  12.8713  22.4764  22.6292
    23.6125  32.0055

          k = 0.6250-0.1250 0.8750 (   786 PWs)   bands (ev):

     6.9347   7.2311   8.1893   9.0814   9.8312  15.9952  18.5025  21.4661
    23.2694  32.3230

          k = 0.5000 0.0000 0.7500 (   788 PWs)   bands (ev):

     7.2416   7.5909   7.6613   8.9362   9.5987  15.0946  19.5869  20.6180
    24.7964  32.8133

          k =-0.2500-1.0000 0.0000 (   778 PWs)   bands (ev):

     6.5829   6.7228   9.0239   9.4323  10.0007  15.7221  19.4749  21.6800
    21.9890  31.8250

          k =-0.5000-1.0000 0.0000 (   772 PWs)   bands (ev):

     7.0209   7.6419   7.6419   8.9896  10.0012  18.6090  18.6090  19.6862
    20.8568  36.0188

     the Fermi energy is    12.4960 ev

!    total energy              =     -84.17761286 Ry
     Harris-Foulkes estimate   =     -84.17761286 Ry
     estimated scf accuracy    <          5.7E-10 Ry

     The total energy is the sum of the following terms:

     one-electron contribution =      -4.73892511 Ry
     hartree contribution      =      14.56497883 Ry
     xc contribution           =     -22.14218203 Ry
     ewald contribution        =     -71.86118025 Ry
     smearing contrib. (-TS)   =      -0.00030428 Ry

     convergence has been achieved in   6 iterations

     Forces acting on atoms (cartesian axes, Ry/au):

     atom    1 type  1   force =     0.00000000    0.00000000    0.00000000

     Total force =     0.000000     Total SCF correction =     0.000000


     Computing stress (Cartesian axis) and pressure

          total   stress  (Ry/bohr**3)                   (kbar)     P=  -33.52
  -0.00022787   0.00000000   0.00000000        -33.52      0.00      0.00
   0.00000000  -0.00022787   0.00000000          0.00    -33.52      0.00
   0.00000000   0.00000000  -0.00022787          0.00      0.00    -33.52


     Writing output data file Ag.save/

     init_run     :      0.23s CPU      0.24s WALL (       1 calls)
     electrons    :      1.74s CPU      1.85s WALL (       1 calls)
     forces       :      0.03s CPU      0.03s WALL (       1 calls)
     stress       :      0.11s CPU      0.11s WALL (       1 calls)

     Called by init_run:
     wfcinit      :      0.07s CPU      0.07s WALL (       1 calls)
     potinit      :      0.01s CPU      0.01s WALL (       1 calls)
     hinit0       :      0.15s CPU      0.15s WALL (       1 calls)

     Called by electrons:
     c_bands      :      1.40s CPU      1.49s WALL (       7 calls)
     sum_band     :      0.29s CPU      0.30s WALL (       7 calls)
     v_of_rho     :      0.02s CPU      0.02s WALL (       7 calls)
     newd         :      0.04s CPU      0.04s WALL (       7 calls)
     mix_rho      :      0.00s CPU      0.00s WALL (       7 calls)

     Called by c_bands:
     init_us_2    :      0.05s CPU      0.06s WALL (     493 calls)
     cegterg      :      1.32s CPU      1.42s WALL (     203 calls)

     Called by sum_band:
     sum_band:bec :      0.00s CPU      0.00s WALL (     203 calls)
     addusdens    :      0.04s CPU      0.05s WALL (       7 calls)

     Called by *egterg:
     h_psi        :      1.03s CPU      1.10s WALL (     746 calls)
     s_psi        :      0.04s CPU      0.04s WALL (     746 calls)
     g_psi        :      0.00s CPU      0.00s WALL (     514 calls)
     cdiaghg      :      0.14s CPU      0.15s WALL (     688 calls)

     Called by h_psi:
     h_psi:pot    :      1.03s CPU      1.09s WALL (     746 calls)
     h_psi:calbec :      0.05s CPU      0.06s WALL (     746 calls)
     vloc_psi     :      0.93s CPU      0.99s WALL (     746 calls)
     add_vuspsi   :      0.04s CPU      0.04s WALL (     746 calls)

     General routines
     calbec       :      0.08s CPU      0.09s WALL (    1094 calls)
     fft          :      0.02s CPU      0.02s WALL (     104 calls)
     ffts         :      0.00s CPU      0.00s WALL (       7 calls)
     fftw         :      1.05s CPU      1.11s WALL (   12508 calls)

     Parallel routines
     fft_scatt_xy :      0.09s CPU      0.09s WALL (   12619 calls)
     fft_scatt_yz :      0.26s CPU      0.27s WALL (   12619 calls)

     PWSCF        :     3.03s CPU         3.21s WALL


   This run was terminated on:   0:24:42  27Mar2024            

=------------------------------------------------------------------------------=
   JOB DONE.
=------------------------------------------------------------------------------=
