
     Program PWSCF v.6.3MaX starts on 27Mar2024 at  0:44:51 

     This program is part of the open-source Quantum ESPRESSO suite
     for quantum simulation of materials; please cite
         "P. Giannozzi et al., J. Phys.:Condens. Matter 21 395502 (2009);
         "P. Giannozzi et al., J. Phys.:Condens. Matter 29 465901 (2017);
          URL http://www.quantum-espresso.org", 
     in publications or presentations arising from this work. More details at
     http://www.quantum-espresso.org/quote

     Parallel version (MPI), running on     5 processors

     MPI processes distributed on     1 nodes
     R & G space division:  proc/nbgrp/npool/nimage =       5
     Waiting for input...
     Reading input from standard input

     Current dimensions of program PWSCF are:
     Max number of different atomic species (ntypx) = 10
     Max number of k-points (npk) =  40000
     Max angular momentum in pseudopotentials (lmaxx) =  3

     Subspace diagonalization in iterative solution of the eigenvalue problem:
     a serial algorithm will be used


     Parallelization info
     --------------------
     sticks:   dense  smooth     PW     G-vecs:    dense   smooth      PW
     Min         149     149     43                 2664     2664     445
     Max         149     149     45                 2665     2665     446
     Sum         745     745    223                13323    13323    2229



     bravais-lattice index     =            2
     lattice parameter (alat)  =       7.7200  a.u.
     unit-cell volume          =     115.0249 (a.u.)^3
     number of atoms/cell      =            1
     number of atomic types    =            1
     number of electrons       =        11.00
     number of Kohn-Sham states=           10
     kinetic-energy cutoff     =      90.0000  Ry
     charge density cutoff     =     360.0000  Ry
     convergence threshold     =      1.0E-08
     mixing beta               =       0.7000
     number of iterations used =            8  plain     mixing
     Exchange-correlation      = PBESOL ( 1  4 10  8 0 0)

     celldm(1)=   7.720000  celldm(2)=   0.000000  celldm(3)=   0.000000
     celldm(4)=   0.000000  celldm(5)=   0.000000  celldm(6)=   0.000000

     crystal axes: (cart. coord. in units of alat)
               a(1) = (  -0.500000   0.000000   0.500000 )  
               a(2) = (   0.000000   0.500000   0.500000 )  
               a(3) = (  -0.500000   0.500000   0.000000 )  

     reciprocal axes: (cart. coord. in units 2 pi/alat)
               b(1) = ( -1.000000 -1.000000  1.000000 )  
               b(2) = (  1.000000  1.000000  1.000000 )  
               b(3) = ( -1.000000  1.000000 -1.000000 )  


     PseudoPot. # 1 for Ag read from file:
     /home/lorenzo/pseudos/Ag/Ag.pbesol-n-rrkjus_psl.1.0.0.UPF
     MD5 check sum: 3b43e8aa747a56f565f44d11355b8b45
     Pseudo is Ultrasoft + core correction, Zval = 11.0
     Generated using "atomic" code by A. Dal Corso v.6.2.2
     Using radial grid of 1237 points,  6 beta functions with: 
                l(1) =   0
                l(2) =   0
                l(3) =   1
                l(4) =   1
                l(5) =   2
                l(6) =   2
     Q(r) pseudized with 0 coefficients 


     atomic species   valence    mass     pseudopotential
        Ag            11.00   107.86820     Ag( 1.00)

     48 Sym. Ops., with inversion, found



   Cartesian axes

     site n.     atom                  positions (alat units)
         1           Ag  tau(   1) = (   0.0000000   0.0000000   0.0000000  )

     number of k points=    20  gaussian smearing, width (Ry)=  0.0100
                       cart. coord. in units 2pi/alat
        k(    1) = (   0.0000000   0.0000000   0.0000000), wk =   0.0058309
        k(    2) = (  -0.1428571   0.1428571  -0.1428571), wk =   0.0466472
        k(    3) = (  -0.2857143   0.2857143  -0.2857143), wk =   0.0466472
        k(    4) = (  -0.4285714   0.4285714  -0.4285714), wk =   0.0466472
        k(    5) = (   0.0000000   0.2857143   0.0000000), wk =   0.0349854
        k(    6) = (  -0.1428571   0.4285714  -0.1428571), wk =   0.1399417
        k(    7) = (  -0.2857143   0.5714286  -0.2857143), wk =   0.1399417
        k(    8) = (   0.5714286  -0.2857143   0.5714286), wk =   0.1399417
        k(    9) = (   0.4285714  -0.1428571   0.4285714), wk =   0.1399417
        k(   10) = (   0.2857143  -0.0000000   0.2857143), wk =   0.0699708
        k(   11) = (   0.0000000   0.5714286   0.0000000), wk =   0.0349854
        k(   12) = (  -0.1428571   0.7142857  -0.1428571), wk =   0.1399417
        k(   13) = (   0.7142857  -0.1428571   0.7142857), wk =   0.1399417
        k(   14) = (   0.5714286   0.0000000   0.5714286), wk =   0.0699708
        k(   15) = (   0.0000000   0.8571429   0.0000000), wk =   0.0349854
        k(   16) = (   0.8571429  -0.0000000   0.8571429), wk =   0.0699708
        k(   17) = (  -0.2857143   0.5714286   0.0000000), wk =   0.1399417
        k(   18) = (   0.5714286  -0.2857143   0.8571429), wk =   0.2798834
        k(   19) = (   0.7142857  -0.1428571   1.0000000), wk =   0.1399417
        k(   20) = (   0.5714286   0.0000000   0.8571429), wk =   0.1399417

     Dense  grid:    13323 G-vectors     FFT dimensions: (  36,  36,  36)

     Estimated max dynamical RAM per process >      13.02 MB

     Estimated total dynamical RAM >      65.08 MB

     Initial potential from superposition of free atoms

     starting charge   10.99964, renormalised to   11.00000
     Starting wfcs are    9 randomized atomic wfcs +    1 random wfcs

     total cpu time spent up to now is        1.2 secs

     Self-consistent Calculation

     iteration #  1     ecut=    90.00 Ry     beta= 0.70
     Davidson diagonalization with overlap
     ethr =  1.00E-02,  avg # of iterations =  4.5

     Threshold (ethr) on eigenvalues was too large:
     Diagonalizing with lowered threshold

     Davidson diagonalization with overlap
     ethr =  4.17E-05,  avg # of iterations =  2.9

     total cpu time spent up to now is        2.0 secs

     total energy              =     -84.18423470 Ry
     Harris-Foulkes estimate   =     -84.18744745 Ry
     estimated scf accuracy    <       0.00496950 Ry

     iteration #  2     ecut=    90.00 Ry     beta= 0.70
     Davidson diagonalization with overlap
     ethr =  4.52E-05,  avg # of iterations =  2.0

     total cpu time spent up to now is        2.4 secs

     total energy              =     -84.18539315 Ry
     Harris-Foulkes estimate   =     -84.18724120 Ry
     estimated scf accuracy    <       0.00343481 Ry

     iteration #  3     ecut=    90.00 Ry     beta= 0.70
     Davidson diagonalization with overlap
     ethr =  3.12E-05,  avg # of iterations =  2.0

     total cpu time spent up to now is        2.7 secs

     total energy              =     -84.18615394 Ry
     Harris-Foulkes estimate   =     -84.18615624 Ry
     estimated scf accuracy    <       0.00002573 Ry

     iteration #  4     ecut=    90.00 Ry     beta= 0.70
     Davidson diagonalization with overlap
     ethr =  2.34E-07,  avg # of iterations =  2.4

     total cpu time spent up to now is        3.2 secs

     total energy              =     -84.18616192 Ry
     Harris-Foulkes estimate   =     -84.18616187 Ry
     estimated scf accuracy    <       0.00000038 Ry

     iteration #  5     ecut=    90.00 Ry     beta= 0.70
     Davidson diagonalization with overlap
     ethr =  3.46E-09,  avg # of iterations =  2.2

     total cpu time spent up to now is        3.6 secs

     total energy              =     -84.18616202 Ry
     Harris-Foulkes estimate   =     -84.18616204 Ry
     estimated scf accuracy    <       0.00000004 Ry

     iteration #  6     ecut=    90.00 Ry     beta= 0.70
     Davidson diagonalization with overlap
     ethr =  3.99E-10,  avg # of iterations =  1.9

     total cpu time spent up to now is        3.9 secs

     End of self-consistent calculation

          k = 0.0000 0.0000 0.0000 (  1639 PWs)   bands (ev):

     4.8086   7.9242   7.9242   7.9242   8.9731   8.9731  29.5471  32.8315
    32.8315  37.1528

          k =-0.1429 0.1429-0.1429 (  1666 PWs)   bands (ev):

     5.4142   7.8194   8.0710   8.0710   8.9383   8.9383  27.9974  30.3630
    32.7623  32.7623

          k =-0.2857 0.2857-0.2857 (  1643 PWs)   bands (ev):

     6.3523   8.0962   8.0962   8.5184   9.2214   9.2214  22.4406  29.6925
    32.1153  32.1153

          k =-0.4286 0.4286-0.4286 (  1673 PWs)   bands (ev):

     6.3146   7.9293   7.9293   9.6997   9.6997  11.2809  17.4381  28.7356
    31.0247  31.0247

          k = 0.0000 0.2857 0.0000 (  1655 PWs)   bands (ev):

     5.6188   7.6093   8.2324   8.2324   8.6935   9.1127  29.5759  30.3882
    30.3882  30.6536

          k =-0.1429 0.4286-0.1429 (  1649 PWs)   bands (ev):

     6.5758   7.4863   8.1586   8.4247   9.2620   9.3645  24.7018  28.8607
    29.4065  31.3335

          k =-0.2857 0.5714-0.2857 (  1655 PWs)   bands (ev):

     6.6555   7.7876   8.2875   8.4184   9.7605  11.5229  19.2706  27.8381
    28.3778  29.7724

          k = 0.5714-0.2857 0.5714 (  1669 PWs)   bands (ev):

     6.6263   7.7087   8.1793   8.9079   9.6757  13.4888  16.5917  26.3697
    29.4361  29.4425

          k = 0.4286-0.1429 0.4286 (  1649 PWs)   bands (ev):

     6.8021   7.8594   8.2823   8.3348   9.0717  10.8856  21.0524  26.0066
    30.5275  32.1572

          k = 0.2857-0.0000 0.2857 (  1666 PWs)   bands (ev):

     6.2804   7.5925   8.1996   8.3283   8.6629   9.4372  26.4993  26.7796
    32.7634  33.1354

          k = 0.0000 0.5714 0.0000 (  1652 PWs)   bands (ev):

     6.7199   6.9538   9.0387   9.0387   9.4008   9.4362  26.4595  26.4595
    27.0984  29.6597

          k =-0.1429 0.7143-0.1429 (  1664 PWs)   bands (ev):

     6.6838   6.9314   8.8114   9.0827   9.8006  12.0000  21.9633  24.1438
    25.4840  29.6806

          k = 0.7143-0.1429 0.7143 (  1654 PWs)   bands (ev):

     6.8149   7.3464   8.3750   8.8876   9.7313  15.7590  17.3496  21.9283
    26.3631  29.5398

          k = 0.5714 0.0000 0.5714 (  1646 PWs)   bands (ev):

     7.2183   7.7511   7.8439   8.6911   9.2172  13.5746  20.3974  21.0651
    28.8907  29.8352

          k = 0.0000 0.8571 0.0000 (  1664 PWs)   bands (ev):

     6.3363   6.4713   9.7061   9.8529   9.8529  13.0284  20.8995  23.8262
    23.8262  29.7381

          k = 0.8571-0.0000 0.8571 (  1656 PWs)   bands (ev):

     6.4351   6.6395   9.3741   9.5336   9.8949  15.2786  19.4233  20.9356
    24.1671  29.7090

          k =-0.2857 0.5714 0.0000 (  1665 PWs)   bands (ev):

     7.2127   7.2247   7.9187   9.0320   9.0942  11.0610  23.5289  23.7383
    27.6234  32.9174

          k = 0.5714-0.2857 0.8571 (  1656 PWs)   bands (ev):

     7.0995   7.4291   8.0149   8.7697   9.6305  14.0493  18.4997  23.7430
    25.2558  32.3401

          k = 0.7143-0.1429 1.0000 (  1659 PWs)   bands (ev):

     6.7547   6.8628   8.6152   9.3802   9.8491  14.6864  21.0558  21.5825
    22.1369  32.4058

          k = 0.5714 0.0000 0.8571 (  1655 PWs)   bands (ev):

     7.0041   7.3705   7.9817   9.0032   9.8429  17.4453  18.0812  20.0291
    23.0502  33.0269

     the Fermi energy is    13.0081 ev

!    total energy              =     -84.18616203 Ry
     Harris-Foulkes estimate   =     -84.18616203 Ry
     estimated scf accuracy    <          5.0E-10 Ry

     The total energy is the sum of the following terms:

     one-electron contribution =      -4.74556252 Ry
     hartree contribution      =      14.56166956 Ry
     xc contribution           =     -22.14099236 Ry
     ewald contribution        =     -71.86118018 Ry
     smearing contrib. (-TS)   =      -0.00009653 Ry

     convergence has been achieved in   6 iterations

     Forces acting on atoms (cartesian axes, Ry/au):

     atom    1 type  1   force =     0.00000000    0.00000000    0.00000000

     Total force =     0.000000     Total SCF correction =     0.000000


     Computing stress (Cartesian axis) and pressure

          total   stress  (Ry/bohr**3)                   (kbar)     P=  -26.03
  -0.00017694  -0.00000000  -0.00000000        -26.03     -0.00     -0.00
  -0.00000000  -0.00017694   0.00000000         -0.00    -26.03      0.00
  -0.00000000   0.00000000  -0.00017694         -0.00      0.00    -26.03


     Writing output data file Ag.save/

     init_run     :      0.34s CPU      0.36s WALL (       1 calls)
     electrons    :      2.62s CPU      2.76s WALL (       1 calls)
     forces       :      0.06s CPU      0.06s WALL (       1 calls)
     stress       :      0.19s CPU      0.19s WALL (       1 calls)

     Called by init_run:
     wfcinit      :      0.11s CPU      0.12s WALL (       1 calls)
     potinit      :      0.02s CPU      0.02s WALL (       1 calls)
     hinit0       :      0.19s CPU      0.20s WALL (       1 calls)

     Called by electrons:
     c_bands      :      2.01s CPU      2.12s WALL (       7 calls)
     sum_band     :      0.47s CPU      0.49s WALL (       7 calls)
     v_of_rho     :      0.07s CPU      0.07s WALL (       7 calls)
     newd         :      0.09s CPU      0.10s WALL (       7 calls)
     mix_rho      :      0.00s CPU      0.00s WALL (       7 calls)

     Called by c_bands:
     init_us_2    :      0.07s CPU      0.07s WALL (     340 calls)
     cegterg      :      1.92s CPU      2.03s WALL (     140 calls)

     Called by sum_band:
     sum_band:bec :      0.00s CPU      0.00s WALL (     140 calls)
     addusdens    :      0.09s CPU      0.09s WALL (       7 calls)

     Called by *egterg:
     h_psi        :      1.62s CPU      1.73s WALL (     518 calls)
     s_psi        :      0.05s CPU      0.05s WALL (     518 calls)
     g_psi        :      0.00s CPU      0.00s WALL (     358 calls)
     cdiaghg      :      0.11s CPU      0.11s WALL (     478 calls)

     Called by h_psi:
     h_psi:pot    :      1.61s CPU      1.72s WALL (     518 calls)
     h_psi:calbec :      0.09s CPU      0.09s WALL (     518 calls)
     vloc_psi     :      1.47s CPU      1.57s WALL (     518 calls)
     add_vuspsi   :      0.05s CPU      0.05s WALL (     518 calls)

     General routines
     calbec       :      0.13s CPU      0.13s WALL (     758 calls)
     fft          :      0.03s CPU      0.03s WALL (     104 calls)
     ffts         :      0.00s CPU      0.00s WALL (       7 calls)
     fftw         :      1.65s CPU      1.76s WALL (    8650 calls)

     Parallel routines
     fft_scatt_xy :      0.14s CPU      0.15s WALL (    8761 calls)
     fft_scatt_yz :      0.40s CPU      0.42s WALL (    8761 calls)

     PWSCF        :     4.01s CPU         4.22s WALL


   This run was terminated on:   0:44:56  27Mar2024            

=------------------------------------------------------------------------------=
   JOB DONE.
=------------------------------------------------------------------------------=
