
     Program PWSCF v.6.3MaX starts on 27Mar2024 at  0:43:45 

     This program is part of the open-source Quantum ESPRESSO suite
     for quantum simulation of materials; please cite
         "P. Giannozzi et al., J. Phys.:Condens. Matter 21 395502 (2009);
         "P. Giannozzi et al., J. Phys.:Condens. Matter 29 465901 (2017);
          URL http://www.quantum-espresso.org", 
     in publications or presentations arising from this work. More details at
     http://www.quantum-espresso.org/quote

     Parallel version (MPI), running on     5 processors

     MPI processes distributed on     1 nodes
     R & G space division:  proc/nbgrp/npool/nimage =       5
     Waiting for input...
     Reading input from standard input

     Current dimensions of program PWSCF are:
     Max number of different atomic species (ntypx) = 10
     Max number of k-points (npk) =  40000
     Max angular momentum in pseudopotentials (lmaxx) =  3
               file Ag.pbe-n-kjpaw_psl.1.0.0.UPF: wavefunction(s)  5S 5P renormalized

     Subspace diagonalization in iterative solution of the eigenvalue problem:
     a serial algorithm will be used


     Parallelization info
     --------------------
     sticks:   dense  smooth     PW     G-vecs:    dense   smooth      PW
     Min         149     149     42                 2664     2664     416
     Max         149     149     43                 2665     2665     418
     Sum         745     745    211                13323    13323    2085



     bravais-lattice index     =            2
     lattice parameter (alat)  =       7.7200  a.u.
     unit-cell volume          =     115.0249 (a.u.)^3
     number of atoms/cell      =            1
     number of atomic types    =            1
     number of electrons       =        11.00
     number of Kohn-Sham states=           10
     kinetic-energy cutoff     =      90.0000  Ry
     charge density cutoff     =     360.0000  Ry
     convergence threshold     =      1.0E-08
     mixing beta               =       0.7000
     number of iterations used =            8  plain     mixing
     Exchange-correlation      = SLA PW PBX PBC ( 1  4  3  4 0 0)

     celldm(1)=   7.720000  celldm(2)=   0.000000  celldm(3)=   0.000000
     celldm(4)=   0.000000  celldm(5)=   0.000000  celldm(6)=   0.000000

     crystal axes: (cart. coord. in units of alat)
               a(1) = (  -0.500000   0.000000   0.500000 )  
               a(2) = (   0.000000   0.500000   0.500000 )  
               a(3) = (  -0.500000   0.500000   0.000000 )  

     reciprocal axes: (cart. coord. in units 2 pi/alat)
               b(1) = ( -1.000000 -1.000000  1.000000 )  
               b(2) = (  1.000000  1.000000  1.000000 )  
               b(3) = ( -1.000000  1.000000 -1.000000 )  


     PseudoPot. # 1 for Ag read from file:
     /home/lorenzo/pseudos/Ag/Ag.pbe-n-kjpaw_psl.1.0.0.UPF
     MD5 check sum: 51099775af2a3182a6a1caffb86952a3
     Pseudo is Projector augmented-wave + core cor, Zval = 11.0
     Generated using "atomic" code by A. Dal Corso v.6.2.2
     Shape of augmentation charge: PSQ
     Using radial grid of 1237 points,  6 beta functions with: 
                l(1) =   0
                l(2) =   0
                l(3) =   1
                l(4) =   1
                l(5) =   2
                l(6) =   2
     Q(r) pseudized with 0 coefficients 


     atomic species   valence    mass     pseudopotential
        Ag            11.00   107.86820     Ag( 1.00)

     48 Sym. Ops., with inversion, found



   Cartesian axes

     site n.     atom                  positions (alat units)
         1           Ag  tau(   1) = (   0.0000000   0.0000000   0.0000000  )

     number of k points=     4  gaussian smearing, width (Ry)=  0.0100
                       cart. coord. in units 2pi/alat
        k(    1) = (   0.0000000   0.0000000   0.0000000), wk =   0.0740741
        k(    2) = (  -0.3333333   0.3333333  -0.3333333), wk =   0.5925926
        k(    3) = (   0.0000000   0.6666667   0.0000000), wk =   0.4444444
        k(    4) = (   0.6666667  -0.0000000   0.6666667), wk =   0.8888889

     Dense  grid:    13323 G-vectors     FFT dimensions: (  36,  36,  36)

     Estimated max dynamical RAM per process >      12.21 MB

     Estimated total dynamical RAM >      61.04 MB

     Initial potential from superposition of free atoms

     starting charge   10.99960, renormalised to   11.00000
     Starting wfcs are    9 randomized atomic wfcs +    1 random wfcs
     Checking if some PAW data can be deallocated... 

     total cpu time spent up to now is        1.2 secs

     Self-consistent Calculation

     iteration #  1     ecut=    90.00 Ry     beta= 0.70
     Davidson diagonalization with overlap
     ethr =  1.00E-02,  avg # of iterations =  6.2

     Threshold (ethr) on eigenvalues was too large:
     Diagonalizing with lowered threshold

     Davidson diagonalization with overlap
     ethr =  2.61E-05,  avg # of iterations =  2.0

     total cpu time spent up to now is        1.6 secs

     total energy              =    -355.32972304 Ry
     Harris-Foulkes estimate   =    -355.33155605 Ry
     estimated scf accuracy    <       0.00323422 Ry

     iteration #  2     ecut=    90.00 Ry     beta= 0.70
     Davidson diagonalization with overlap
     ethr =  2.94E-05,  avg # of iterations =  2.0

     total cpu time spent up to now is        1.8 secs

     total energy              =    -355.33066781 Ry
     Harris-Foulkes estimate   =    -355.33171756 Ry
     estimated scf accuracy    <       0.00224414 Ry

     iteration #  3     ecut=    90.00 Ry     beta= 0.70
     Davidson diagonalization with overlap
     ethr =  2.04E-05,  avg # of iterations =  1.8

     total cpu time spent up to now is        2.0 secs

     total energy              =    -355.33110544 Ry
     Harris-Foulkes estimate   =    -355.33108431 Ry
     estimated scf accuracy    <       0.00001487 Ry

     iteration #  4     ecut=    90.00 Ry     beta= 0.70
     Davidson diagonalization with overlap
     ethr =  1.35E-07,  avg # of iterations =  3.8

     total cpu time spent up to now is        2.2 secs

     total energy              =    -355.33111117 Ry
     Harris-Foulkes estimate   =    -355.33111094 Ry
     estimated scf accuracy    <       0.00000026 Ry

     iteration #  5     ecut=    90.00 Ry     beta= 0.70
     Davidson diagonalization with overlap
     ethr =  2.35E-09,  avg # of iterations =  2.0

     total cpu time spent up to now is        2.4 secs

     End of self-consistent calculation

          k = 0.0000 0.0000 0.0000 (  1639 PWs)   bands (ev):

     5.0656   8.0793   8.0793   8.0793   9.1154   9.1154  29.8012  33.0872
    33.0872  33.0872

          k =-0.3333 0.3333-0.3333 (  1634 PWs)   bands (ev):

     6.5866   8.1898   8.1898   9.5277   9.5412   9.5412  20.8582  29.5629
    31.9802  31.9802

          k = 0.0000 0.6667 0.0000 (  1668 PWs)   bands (ev):

     6.8130   6.9192   9.4923   9.4923   9.6826  10.6724  25.1770  25.6122
    25.6122  29.9105

          k = 0.6667-0.0000 0.6667 (  1668 PWs)   bands (ev):

     7.1115   7.6911   8.3103   9.0728   9.6400  16.0278  18.6980  20.4270
    27.2113  29.8444

     the Fermi energy is    10.7373 ev

!    total energy              =    -355.33111120 Ry
     Harris-Foulkes estimate   =    -355.33111120 Ry
     estimated scf accuracy    <          2.9E-09 Ry

     total all-electron energy =    -10632.297165 Ry

     The total energy is the sum of the following terms:

     one-electron contribution =       1.53460862 Ry
     hartree contribution      =      14.66534548 Ry
     xc contribution           =     -22.35355995 Ry
     ewald contribution        =     -71.86118018 Ry
     one-center paw contrib.   =    -277.31532650 Ry
     smearing contrib. (-TS)   =      -0.00099868 Ry

     convergence has been achieved in   5 iterations

     Forces acting on atoms (cartesian axes, Ry/au):

     atom    1 type  1   force =     0.00000000    0.00000000    0.00000000

     Total force =     0.000000     Total SCF correction =     0.000000


     Computing stress (Cartesian axis) and pressure

          total   stress  (Ry/bohr**3)                   (kbar)     P=   18.68
   0.00012701   0.00000000   0.00000000         18.68      0.00      0.00
   0.00000000   0.00012701  -0.00000000          0.00     18.68     -0.00
   0.00000000  -0.00000000   0.00012701          0.00     -0.00     18.68


     Writing output data file Ag.save/

     init_run     :      0.38s CPU      0.40s WALL (       1 calls)
     electrons    :      1.10s CPU      1.15s WALL (       1 calls)
     forces       :      0.05s CPU      0.05s WALL (       1 calls)
     stress       :      0.14s CPU      0.14s WALL (       1 calls)

     Called by init_run:
     wfcinit      :      0.02s CPU      0.02s WALL (       1 calls)
     potinit      :      0.11s CPU      0.13s WALL (       1 calls)
     hinit0       :      0.20s CPU      0.21s WALL (       1 calls)

     Called by electrons:
     c_bands      :      0.34s CPU      0.36s WALL (       6 calls)
     sum_band     :      0.15s CPU      0.16s WALL (       6 calls)
     v_of_rho     :      0.06s CPU      0.06s WALL (       6 calls)
     newd         :      0.08s CPU      0.08s WALL (       6 calls)
     PAW_pot      :      0.58s CPU      0.60s WALL (       6 calls)
     mix_rho      :      0.00s CPU      0.00s WALL (       6 calls)

     Called by c_bands:
     init_us_2    :      0.01s CPU      0.01s WALL (      60 calls)
     cegterg      :      0.33s CPU      0.35s WALL (      24 calls)

     Called by sum_band:
     sum_band:bec :      0.00s CPU      0.00s WALL (      24 calls)
     addusdens    :      0.08s CPU      0.08s WALL (       6 calls)

     Called by *egterg:
     h_psi        :      0.28s CPU      0.29s WALL (      99 calls)
     s_psi        :      0.01s CPU      0.01s WALL (      99 calls)
     g_psi        :      0.00s CPU      0.00s WALL (      71 calls)
     cdiaghg      :      0.02s CPU      0.02s WALL (      91 calls)

     Called by h_psi:
     h_psi:pot    :      0.27s CPU      0.29s WALL (      99 calls)
     h_psi:calbec :      0.01s CPU      0.01s WALL (      99 calls)
     vloc_psi     :      0.25s CPU      0.27s WALL (      99 calls)
     add_vuspsi   :      0.01s CPU      0.01s WALL (      99 calls)

     General routines
     calbec       :      0.02s CPU      0.02s WALL (     143 calls)
     fft          :      0.03s CPU      0.03s WALL (      93 calls)
     ffts         :      0.00s CPU      0.00s WALL (       6 calls)
     fftw         :      0.28s CPU      0.30s WALL (    1534 calls)

     Parallel routines
     fft_scatt_xy :      0.03s CPU      0.03s WALL (    1633 calls)
     fft_scatt_yz :      0.07s CPU      0.08s WALL (    1633 calls)

     PWSCF        :     2.50s CPU         2.60s WALL


   This run was terminated on:   0:43:48  27Mar2024            

=------------------------------------------------------------------------------=
   JOB DONE.
=------------------------------------------------------------------------------=
