
     Program PWSCF v.6.3MaX starts on 27Mar2024 at  0: 6:53 

     This program is part of the open-source Quantum ESPRESSO suite
     for quantum simulation of materials; please cite
         "P. Giannozzi et al., J. Phys.:Condens. Matter 21 395502 (2009);
         "P. Giannozzi et al., J. Phys.:Condens. Matter 29 465901 (2017);
          URL http://www.quantum-espresso.org", 
     in publications or presentations arising from this work. More details at
     http://www.quantum-espresso.org/quote

     Parallel version (MPI), running on     5 processors

     MPI processes distributed on     1 nodes
     R & G space division:  proc/nbgrp/npool/nimage =       5
     Waiting for input...
     Reading input from standard input

     Current dimensions of program PWSCF are:
     Max number of different atomic species (ntypx) = 10
     Max number of k-points (npk) =  40000
     Max angular momentum in pseudopotentials (lmaxx) =  3
               file Ag.pbesol-n-kjpaw_psl.1.0.0.UPF: wavefunction(s)  5S 5P renormalized

     Subspace diagonalization in iterative solution of the eigenvalue problem:
     a serial algorithm will be used


     Parallelization info
     --------------------
     sticks:   dense  smooth     PW     G-vecs:    dense   smooth      PW
     Min          24      24      8                  178      178      36
     Max          25      25      9                  181      181      37
     Sum         121     121     43                  893      893     181



     bravais-lattice index     =            2
     lattice parameter (alat)  =       7.7200  a.u.
     unit-cell volume          =     115.0249 (a.u.)^3
     number of atoms/cell      =            1
     number of atomic types    =            1
     number of electrons       =        11.00
     number of Kohn-Sham states=           10
     kinetic-energy cutoff     =      15.0000  Ry
     charge density cutoff     =      60.0000  Ry
     convergence threshold     =      1.0E-08
     mixing beta               =       0.7000
     number of iterations used =            8  plain     mixing
     Exchange-correlation      = SLA PW PSX PSC ( 1  4 10  8 0 0)

     celldm(1)=   7.720000  celldm(2)=   0.000000  celldm(3)=   0.000000
     celldm(4)=   0.000000  celldm(5)=   0.000000  celldm(6)=   0.000000

     crystal axes: (cart. coord. in units of alat)
               a(1) = (  -0.500000   0.000000   0.500000 )  
               a(2) = (   0.000000   0.500000   0.500000 )  
               a(3) = (  -0.500000   0.500000   0.000000 )  

     reciprocal axes: (cart. coord. in units 2 pi/alat)
               b(1) = ( -1.000000 -1.000000  1.000000 )  
               b(2) = (  1.000000  1.000000  1.000000 )  
               b(3) = ( -1.000000  1.000000 -1.000000 )  


     PseudoPot. # 1 for Ag read from file:
     /home/lorenzo/pseudos/Ag/Ag.pbesol-n-kjpaw_psl.1.0.0.UPF
     MD5 check sum: 3b245e14fa22881b2ac493bfd23f605f
     Pseudo is Projector augmented-wave + core cor, Zval = 11.0
     Generated using "atomic" code by A. Dal Corso v.6.2.2
     Shape of augmentation charge: PSQ
     Using radial grid of 1237 points,  6 beta functions with: 
                l(1) =   0
                l(2) =   0
                l(3) =   1
                l(4) =   1
                l(5) =   2
                l(6) =   2
     Q(r) pseudized with 0 coefficients 


     atomic species   valence    mass     pseudopotential
        Ag            11.00   107.86820     Ag( 1.00)

     48 Sym. Ops., with inversion, found



   Cartesian axes

     site n.     atom                  positions (alat units)
         1           Ag  tau(   1) = (   0.0000000   0.0000000   0.0000000  )

     number of k points=     8  gaussian smearing, width (Ry)=  0.0100
                       cart. coord. in units 2pi/alat
        k(    1) = (   0.0000000   0.0000000   0.0000000), wk =   0.0312500
        k(    2) = (  -0.2500000   0.2500000  -0.2500000), wk =   0.2500000
        k(    3) = (   0.5000000  -0.5000000   0.5000000), wk =   0.1250000
        k(    4) = (   0.0000000   0.5000000   0.0000000), wk =   0.1875000
        k(    5) = (   0.7500000  -0.2500000   0.7500000), wk =   0.7500000
        k(    6) = (   0.5000000   0.0000000   0.5000000), wk =   0.3750000
        k(    7) = (   0.0000000  -1.0000000   0.0000000), wk =   0.0937500
        k(    8) = (  -0.5000000  -1.0000000   0.0000000), wk =   0.1875000

     Dense  grid:      893 G-vectors     FFT dimensions: (  15,  15,  15)

     Estimated max dynamical RAM per process >       1.48 MB

     Estimated total dynamical RAM >       7.39 MB

     Check: negative/imaginary core charge=   -0.000001    0.000000

     Initial potential from superposition of free atoms

     starting charge   10.99964, renormalised to   11.00000
     Starting wfcs are    9 randomized atomic wfcs +    1 random wfcs
     Checking if some PAW data can be deallocated... 

     total cpu time spent up to now is        1.0 secs

     Self-consistent Calculation

     iteration #  1     ecut=    15.00 Ry     beta= 0.70
     Davidson diagonalization with overlap
     ethr =  1.00E-02,  avg # of iterations =  4.9

     total cpu time spent up to now is        1.2 secs

     total energy              =    -343.73905091 Ry
     Harris-Foulkes estimate   =    -346.40496449 Ry
     estimated scf accuracy    <       3.35117119 Ry

     iteration #  2     ecut=    15.00 Ry     beta= 0.70
     Davidson diagonalization with overlap
     ethr =  1.00E-02,  avg # of iterations =  2.1

     total cpu time spent up to now is        1.3 secs

     total energy              =    -344.79508275 Ry
     Harris-Foulkes estimate   =    -345.11860974 Ry
     estimated scf accuracy    <       0.66112855 Ry

     iteration #  3     ecut=    15.00 Ry     beta= 0.70
     Davidson diagonalization with overlap
     ethr =  6.01E-03,  avg # of iterations =  1.2

     total cpu time spent up to now is        1.4 secs

     total energy              =    -344.86388820 Ry
     Harris-Foulkes estimate   =    -344.87352006 Ry
     estimated scf accuracy    <       0.02309812 Ry

     iteration #  4     ecut=    15.00 Ry     beta= 0.70
     Davidson diagonalization with overlap
     ethr =  2.10E-04,  avg # of iterations =  2.8

     total cpu time spent up to now is        1.6 secs

     total energy              =    -344.86874546 Ry
     Harris-Foulkes estimate   =    -344.86951997 Ry
     estimated scf accuracy    <       0.00217760 Ry

     iteration #  5     ecut=    15.00 Ry     beta= 0.70
     Davidson diagonalization with overlap
     ethr =  1.98E-05,  avg # of iterations =  1.4

     total cpu time spent up to now is        1.7 secs

     total energy              =    -344.86875355 Ry
     Harris-Foulkes estimate   =    -344.86888943 Ry
     estimated scf accuracy    <       0.00028110 Ry

     iteration #  6     ecut=    15.00 Ry     beta= 0.70
     Davidson diagonalization with overlap
     ethr =  2.56E-06,  avg # of iterations =  2.4

     total cpu time spent up to now is        1.8 secs

     total energy              =    -344.86881504 Ry
     Harris-Foulkes estimate   =    -344.86881851 Ry
     estimated scf accuracy    <       0.00000549 Ry

     iteration #  7     ecut=    15.00 Ry     beta= 0.70
     Davidson diagonalization with overlap
     ethr =  4.99E-08,  avg # of iterations =  2.0

     total cpu time spent up to now is        2.0 secs

     End of self-consistent calculation

          k = 0.0000 0.0000 0.0000 (   113 PWs)   bands (ev):

     4.7555   8.6510   8.6510   8.6510   9.5856   9.5856  30.8425  32.4347
    32.4347  32.4347

          k =-0.2500 0.2500-0.2500 (   113 PWs)   bands (ev):

     6.3663   8.0316   8.0316   9.2331  10.5027  10.5027  24.0398  31.4823
    31.6208  31.6208

          k = 0.5000-0.5000 0.5000 (   108 PWs)   bands (ev):

     6.7295   9.1566   9.1566  11.7343  11.7343  12.3139  16.1091  29.6818
    29.6818  29.8530

          k = 0.0000 0.5000 0.0000 (   125 PWs)   bands (ev):

     5.7664   6.1844   7.9914   7.9914   8.2302   8.8895  26.9788  26.9788
    28.3047  30.3965

          k = 0.7500-0.2500 0.7500 (   110 PWs)   bands (ev):

     6.9236   8.0774   8.9394  10.1555  11.7111  14.1854  18.4517  23.9751
    26.0351  30.9264

          k = 0.5000 0.0000 0.5000 (   117 PWs)   bands (ev):

     6.9128   7.5913   8.2314   8.7742   9.2068  12.6791  21.3178  22.1605
    30.0285  31.2623

          k = 0.0000-1.0000 0.0000 (   116 PWs)   bands (ev):

     4.1691   6.2403  10.6712  11.1700  11.1700  14.1096  18.4887  22.9447
    22.9447  30.4971

          k =-0.5000-1.0000 0.0000 (   108 PWs)   bands (ev):

     7.9380   8.5559   8.5559   9.6136  12.0980  18.1921  18.8716  18.8716
    22.1189  36.8816

     the Fermi energy is    13.9987 ev

!    total energy              =    -344.86881627 Ry
     Harris-Foulkes estimate   =    -344.86881627 Ry
     estimated scf accuracy    <          9.8E-09 Ry

     total all-electron energy =    -10621.879225 Ry

     The total energy is the sum of the following terms:

     one-electron contribution =       8.76567824 Ry
     hartree contribution      =       9.53009939 Ry
     xc contribution           =     -20.84419371 Ry
     ewald contribution        =     -71.86118021 Ry
     one-center paw contrib.   =    -270.45876245 Ry
     smearing contrib. (-TS)   =      -0.00045754 Ry

     convergence has been achieved in   7 iterations

     Forces acting on atoms (cartesian axes, Ry/au):

     atom    1 type  1   force =     0.00000000    0.00000000    0.00000000

     Total force =     0.000000     Total SCF correction =     0.000000


     Computing stress (Cartesian axis) and pressure

          total   stress  (Ry/bohr**3)                   (kbar)     P=********
  -0.09683683   0.00000000  -0.00000000     -14245.19      0.00     -0.00
  -0.00000000  -0.09683683  -0.00000000         -0.00 -14245.19     -0.00
   0.00000000  -0.00000000  -0.09683683          0.00     -0.00 -14245.19


     Writing output data file Ag.save/

     init_run     :      0.20s CPU      0.22s WALL (       1 calls)
     electrons    :      0.85s CPU      0.98s WALL (       1 calls)
     forces       :      0.01s CPU      0.01s WALL (       1 calls)
     stress       :      0.02s CPU      0.02s WALL (       1 calls)

     Called by init_run:
     wfcinit      :      0.01s CPU      0.01s WALL (       1 calls)
     potinit      :      0.10s CPU      0.11s WALL (       1 calls)
     hinit0       :      0.08s CPU      0.08s WALL (       1 calls)

     Called by electrons:
     c_bands      :      0.14s CPU      0.16s WALL (       7 calls)
     sum_band     :      0.03s CPU      0.03s WALL (       7 calls)
     v_of_rho     :      0.01s CPU      0.01s WALL (       8 calls)
     newd         :      0.01s CPU      0.01s WALL (       8 calls)
     PAW_pot      :      0.77s CPU      0.87s WALL (       8 calls)
     mix_rho      :      0.00s CPU      0.00s WALL (       7 calls)

     Called by c_bands:
     init_us_2    :      0.00s CPU      0.00s WALL (     136 calls)
     cegterg      :      0.13s CPU      0.15s WALL (      56 calls)

     Called by sum_band:
     sum_band:bec :      0.00s CPU      0.00s WALL (      56 calls)
     addusdens    :      0.01s CPU      0.01s WALL (       7 calls)

     Called by *egterg:
     h_psi        :      0.08s CPU      0.10s WALL (     198 calls)
     s_psi        :      0.00s CPU      0.00s WALL (     198 calls)
     g_psi        :      0.00s CPU      0.00s WALL (     134 calls)
     cdiaghg      :      0.04s CPU      0.04s WALL (     190 calls)

     Called by h_psi:
     h_psi:pot    :      0.08s CPU      0.10s WALL (     198 calls)
     h_psi:calbec :      0.00s CPU      0.01s WALL (     198 calls)
     vloc_psi     :      0.07s CPU      0.09s WALL (     198 calls)
     add_vuspsi   :      0.00s CPU      0.00s WALL (     198 calls)

     General routines
     calbec       :      0.01s CPU      0.01s WALL (     294 calls)
     fft          :      0.01s CPU      0.01s WALL (     114 calls)
     ffts         :      0.00s CPU      0.00s WALL (       7 calls)
     fftw         :      0.07s CPU      0.09s WALL (    3518 calls)

     Parallel routines
     fft_scatt_xy :      0.01s CPU      0.01s WALL (    3639 calls)
     fft_scatt_yz :      0.04s CPU      0.04s WALL (    3639 calls)

     PWSCF        :     1.89s CPU         2.08s WALL


   This run was terminated on:   0: 6:55  27Mar2024            

=------------------------------------------------------------------------------=
   JOB DONE.
=------------------------------------------------------------------------------=
