
     Program PWSCF v.6.3MaX starts on 27Mar2024 at  0:37:18 

     This program is part of the open-source Quantum ESPRESSO suite
     for quantum simulation of materials; please cite
         "P. Giannozzi et al., J. Phys.:Condens. Matter 21 395502 (2009);
         "P. Giannozzi et al., J. Phys.:Condens. Matter 29 465901 (2017);
          URL http://www.quantum-espresso.org", 
     in publications or presentations arising from this work. More details at
     http://www.quantum-espresso.org/quote

     Parallel version (MPI), running on     5 processors

     MPI processes distributed on     1 nodes
     R & G space division:  proc/nbgrp/npool/nimage =       5
     Waiting for input...
     Reading input from standard input

     Current dimensions of program PWSCF are:
     Max number of different atomic species (ntypx) = 10
     Max number of k-points (npk) =  40000
     Max angular momentum in pseudopotentials (lmaxx) =  3
               file Ag.pbesol-n-kjpaw_psl.1.0.0.UPF: wavefunction(s)  5S 5P renormalized

     Subspace diagonalization in iterative solution of the eigenvalue problem:
     a serial algorithm will be used


     Parallelization info
     --------------------
     sticks:   dense  smooth     PW     G-vecs:    dense   smooth      PW
     Min         131     131     39                 2222     2222     365
     Max         134     134     40                 2223     2223     368
     Sum         661     661    199                11113    11113    1837



     bravais-lattice index     =            2
     lattice parameter (alat)  =       7.7200  a.u.
     unit-cell volume          =     115.0249 (a.u.)^3
     number of atoms/cell      =            1
     number of atomic types    =            1
     number of electrons       =        11.00
     number of Kohn-Sham states=           10
     kinetic-energy cutoff     =      80.0000  Ry
     charge density cutoff     =     320.0000  Ry
     convergence threshold     =      1.0E-08
     mixing beta               =       0.7000
     number of iterations used =            8  plain     mixing
     Exchange-correlation      = SLA PW PSX PSC ( 1  4 10  8 0 0)

     celldm(1)=   7.720000  celldm(2)=   0.000000  celldm(3)=   0.000000
     celldm(4)=   0.000000  celldm(5)=   0.000000  celldm(6)=   0.000000

     crystal axes: (cart. coord. in units of alat)
               a(1) = (  -0.500000   0.000000   0.500000 )  
               a(2) = (   0.000000   0.500000   0.500000 )  
               a(3) = (  -0.500000   0.500000   0.000000 )  

     reciprocal axes: (cart. coord. in units 2 pi/alat)
               b(1) = ( -1.000000 -1.000000  1.000000 )  
               b(2) = (  1.000000  1.000000  1.000000 )  
               b(3) = ( -1.000000  1.000000 -1.000000 )  


     PseudoPot. # 1 for Ag read from file:
     /home/lorenzo/pseudos/Ag/Ag.pbesol-n-kjpaw_psl.1.0.0.UPF
     MD5 check sum: 3b245e14fa22881b2ac493bfd23f605f
     Pseudo is Projector augmented-wave + core cor, Zval = 11.0
     Generated using "atomic" code by A. Dal Corso v.6.2.2
     Shape of augmentation charge: PSQ
     Using radial grid of 1237 points,  6 beta functions with: 
                l(1) =   0
                l(2) =   0
                l(3) =   1
                l(4) =   1
                l(5) =   2
                l(6) =   2
     Q(r) pseudized with 0 coefficients 


     atomic species   valence    mass     pseudopotential
        Ag            11.00   107.86820     Ag( 1.00)

     48 Sym. Ops., with inversion, found



   Cartesian axes

     site n.     atom                  positions (alat units)
         1           Ag  tau(   1) = (   0.0000000   0.0000000   0.0000000  )

     number of k points=     8  gaussian smearing, width (Ry)=  0.0100
                       cart. coord. in units 2pi/alat
        k(    1) = (   0.0000000   0.0000000   0.0000000), wk =   0.0312500
        k(    2) = (  -0.2500000   0.2500000  -0.2500000), wk =   0.2500000
        k(    3) = (   0.5000000  -0.5000000   0.5000000), wk =   0.1250000
        k(    4) = (   0.0000000   0.5000000   0.0000000), wk =   0.1875000
        k(    5) = (   0.7500000  -0.2500000   0.7500000), wk =   0.7500000
        k(    6) = (   0.5000000   0.0000000   0.5000000), wk =   0.3750000
        k(    7) = (   0.0000000  -1.0000000   0.0000000), wk =   0.0937500
        k(    8) = (  -0.5000000  -1.0000000   0.0000000), wk =   0.1875000

     Dense  grid:    11113 G-vectors     FFT dimensions: (  32,  32,  32)

     Estimated max dynamical RAM per process >      10.45 MB

     Estimated total dynamical RAM >      52.26 MB

     Initial potential from superposition of free atoms

     starting charge   10.99964, renormalised to   11.00000
     Starting wfcs are    9 randomized atomic wfcs +    1 random wfcs
     Checking if some PAW data can be deallocated... 

     total cpu time spent up to now is        1.3 secs

     Self-consistent Calculation

     iteration #  1     ecut=    80.00 Ry     beta= 0.70
     Davidson diagonalization with overlap
     ethr =  1.00E-02,  avg # of iterations =  5.1

     Threshold (ethr) on eigenvalues was too large:
     Diagonalizing with lowered threshold

     Davidson diagonalization with overlap
     ethr =  4.90E-05,  avg # of iterations =  2.5

     total cpu time spent up to now is        1.7 secs

     total energy              =    -350.22473597 Ry
     Harris-Foulkes estimate   =    -350.22862458 Ry
     estimated scf accuracy    <       0.00585689 Ry

     iteration #  2     ecut=    80.00 Ry     beta= 0.70
     Davidson diagonalization with overlap
     ethr =  5.32E-05,  avg # of iterations =  2.5

     total cpu time spent up to now is        1.9 secs

     total energy              =    -350.22639052 Ry
     Harris-Foulkes estimate   =    -350.22846173 Ry
     estimated scf accuracy    <       0.00426828 Ry

     iteration #  3     ecut=    80.00 Ry     beta= 0.70
     Davidson diagonalization with overlap
     ethr =  3.88E-05,  avg # of iterations =  2.0

     total cpu time spent up to now is        2.2 secs

     total energy              =    -350.22721430 Ry
     Harris-Foulkes estimate   =    -350.22719847 Ry
     estimated scf accuracy    <       0.00001590 Ry

     iteration #  4     ecut=    80.00 Ry     beta= 0.70
     Davidson diagonalization with overlap
     ethr =  1.45E-07,  avg # of iterations =  3.1

     total cpu time spent up to now is        2.4 secs

     total energy              =    -350.22722247 Ry
     Harris-Foulkes estimate   =    -350.22722225 Ry
     estimated scf accuracy    <       0.00000046 Ry

     iteration #  5     ecut=    80.00 Ry     beta= 0.70
     Davidson diagonalization with overlap
     ethr =  4.14E-09,  avg # of iterations =  1.2

     total cpu time spent up to now is        2.6 secs

     End of self-consistent calculation

          k = 0.0000 0.0000 0.0000 (  1411 PWs)   bands (ev):

     4.8018   7.8994   7.8994   7.8994   8.9535   8.9535  29.5388  32.8291
    32.8291  32.8291

          k =-0.2500 0.2500-0.2500 (  1390 PWs)   bands (ev):

     6.2164   8.0975   8.1046   8.1046   9.0793   9.0793  23.8312  29.9501
    32.3544  32.3544

          k = 0.5000-0.5000 0.5000 (  1404 PWs)   bands (ev):

     6.2658   7.8801   7.8801   9.7546   9.7546  12.1872  16.2418  28.5886
    30.8225  30.8225

          k = 0.0000 0.5000 0.0000 (  1387 PWs)   bands (ev):

     6.6371   7.0966   8.7827   8.7827   8.8643   9.3298  27.3783  27.3783
    28.4673  29.6229

          k = 0.7500-0.2500 0.7500 (  1400 PWs)   bands (ev):

     6.7533   7.3269   8.3682   8.7499   9.8123  13.6440  18.7677  23.8894
    26.3718  29.5096

          k = 0.5000 0.0000 0.5000 (  1388 PWs)   bands (ev):

     7.3150   7.5552   7.9402   8.5690   8.9607  12.1079  21.9251  22.0411
    30.2379  30.4892

          k = 0.0000-1.0000 0.0000 (  1362 PWs)   bands (ev):

     6.2377   6.3815   9.7260   9.9623   9.9623  14.2073  19.3678  23.4450
    23.4450  29.7346

          k =-0.5000-1.0000 0.0000 (  1384 PWs)   bands (ev):

     6.9983   7.6121   7.6121   8.9610   9.9632  18.5940  18.5940  19.6723
    20.8431  36.0095

     the Fermi energy is    13.4774 ev

!    total energy              =    -350.22722250 Ry
     Harris-Foulkes estimate   =    -350.22722250 Ry
     estimated scf accuracy    <          8.5E-09 Ry

     total all-electron energy =    -10627.237631 Ry

     The total energy is the sum of the following terms:

     one-electron contribution =       1.63166333 Ry
     hartree contribution      =      14.55814323 Ry
     xc contribution           =     -22.14104941 Ry
     ewald contribution        =     -71.86118018 Ry
     one-center paw contrib.   =    -272.41432707 Ry
     smearing contrib. (-TS)   =      -0.00047239 Ry

     convergence has been achieved in   5 iterations

     Forces acting on atoms (cartesian axes, Ry/au):

     atom    1 type  1   force =     0.00000000    0.00000000    0.00000000

     Total force =     0.000000     Total SCF correction =     0.000000


     Computing stress (Cartesian axis) and pressure

          total   stress  (Ry/bohr**3)                   (kbar)     P=  -11.09
  -0.00007538  -0.00000000   0.00000000        -11.09     -0.00      0.00
  -0.00000000  -0.00007538   0.00000000         -0.00    -11.09      0.00
   0.00000000  -0.00000000  -0.00007538          0.00     -0.00    -11.09


     Writing output data file Ag.save/

     init_run     :      0.35s CPU      0.38s WALL (       1 calls)
     electrons    :      1.26s CPU      1.35s WALL (       1 calls)
     forces       :      0.04s CPU      0.04s WALL (       1 calls)
     stress       :      0.14s CPU      0.14s WALL (       1 calls)

     Called by init_run:
     wfcinit      :      0.03s CPU      0.03s WALL (       1 calls)
     potinit      :      0.11s CPU      0.13s WALL (       1 calls)
     hinit0       :      0.18s CPU      0.18s WALL (       1 calls)

     Called by electrons:
     c_bands      :      0.50s CPU      0.56s WALL (       6 calls)
     sum_band     :      0.17s CPU      0.17s WALL (       6 calls)
     v_of_rho     :      0.04s CPU      0.04s WALL (       6 calls)
     newd         :      0.07s CPU      0.08s WALL (       6 calls)
     PAW_pot      :      0.59s CPU      0.62s WALL (       6 calls)
     mix_rho      :      0.00s CPU      0.00s WALL (       6 calls)

     Called by c_bands:
     init_us_2    :      0.02s CPU      0.02s WALL (     120 calls)
     cegterg      :      0.47s CPU      0.53s WALL (      48 calls)

     Called by sum_band:
     sum_band:bec :      0.00s CPU      0.00s WALL (      48 calls)
     addusdens    :      0.06s CPU      0.06s WALL (       6 calls)

     Called by *egterg:
     h_psi        :      0.37s CPU      0.42s WALL (     188 calls)
     s_psi        :      0.01s CPU      0.01s WALL (     188 calls)
     g_psi        :      0.00s CPU      0.00s WALL (     132 calls)
     cdiaghg      :      0.04s CPU      0.04s WALL (     172 calls)

     Called by h_psi:
     h_psi:pot    :      0.37s CPU      0.42s WALL (     188 calls)
     h_psi:calbec :      0.02s CPU      0.02s WALL (     188 calls)
     vloc_psi     :      0.33s CPU      0.37s WALL (     188 calls)
     add_vuspsi   :      0.01s CPU      0.01s WALL (     188 calls)

     General routines
     calbec       :      0.03s CPU      0.04s WALL (     276 calls)
     fft          :      0.02s CPU      0.03s WALL (      93 calls)
     ffts         :      0.00s CPU      0.00s WALL (       6 calls)
     fftw         :      0.37s CPU      0.42s WALL (    3006 calls)

     Parallel routines
     fft_scatt_xy :      0.04s CPU      0.04s WALL (    3105 calls)
     fft_scatt_yz :      0.15s CPU      0.16s WALL (    3105 calls)

     PWSCF        :     2.70s CPU         2.86s WALL


   This run was terminated on:   0:37:21  27Mar2024            

=------------------------------------------------------------------------------=
   JOB DONE.
=------------------------------------------------------------------------------=
