
     Program PWSCF v.6.3MaX starts on 27Mar2024 at  0:40:20 

     This program is part of the open-source Quantum ESPRESSO suite
     for quantum simulation of materials; please cite
         "P. Giannozzi et al., J. Phys.:Condens. Matter 21 395502 (2009);
         "P. Giannozzi et al., J. Phys.:Condens. Matter 29 465901 (2017);
          URL http://www.quantum-espresso.org", 
     in publications or presentations arising from this work. More details at
     http://www.quantum-espresso.org/quote

     Parallel version (MPI), running on     5 processors

     MPI processes distributed on     1 nodes
     R & G space division:  proc/nbgrp/npool/nimage =       5
     Waiting for input...
     Reading input from standard input

     Current dimensions of program PWSCF are:
     Max number of different atomic species (ntypx) = 10
     Max number of k-points (npk) =  40000
     Max angular momentum in pseudopotentials (lmaxx) =  3

     Subspace diagonalization in iterative solution of the eigenvalue problem:
     a serial algorithm will be used


     Parallelization info
     --------------------
     sticks:   dense  smooth     PW     G-vecs:    dense   smooth      PW
     Min         137     137     39                 2410     2410     381
     Max         139     139     40                 2411     2411     384
     Sum         691     691    199                12051    12051    1917



     bravais-lattice index     =            2
     lattice parameter (alat)  =       7.7200  a.u.
     unit-cell volume          =     115.0249 (a.u.)^3
     number of atoms/cell      =            1
     number of atomic types    =            1
     number of electrons       =        11.00
     number of Kohn-Sham states=           10
     kinetic-energy cutoff     =      85.0000  Ry
     charge density cutoff     =     340.0000  Ry
     convergence threshold     =      1.0E-08
     mixing beta               =       0.7000
     number of iterations used =            8  plain     mixing
     Exchange-correlation      = PBESOL ( 1  4 10  8 0 0)

     celldm(1)=   7.720000  celldm(2)=   0.000000  celldm(3)=   0.000000
     celldm(4)=   0.000000  celldm(5)=   0.000000  celldm(6)=   0.000000

     crystal axes: (cart. coord. in units of alat)
               a(1) = (  -0.500000   0.000000   0.500000 )  
               a(2) = (   0.000000   0.500000   0.500000 )  
               a(3) = (  -0.500000   0.500000   0.000000 )  

     reciprocal axes: (cart. coord. in units 2 pi/alat)
               b(1) = ( -1.000000 -1.000000  1.000000 )  
               b(2) = (  1.000000  1.000000  1.000000 )  
               b(3) = ( -1.000000  1.000000 -1.000000 )  


     PseudoPot. # 1 for Ag read from file:
     /home/lorenzo/pseudos/Ag/Ag.pbesol-n-rrkjus_psl.1.0.0.UPF
     MD5 check sum: 3b43e8aa747a56f565f44d11355b8b45
     Pseudo is Ultrasoft + core correction, Zval = 11.0
     Generated using "atomic" code by A. Dal Corso v.6.2.2
     Using radial grid of 1237 points,  6 beta functions with: 
                l(1) =   0
                l(2) =   0
                l(3) =   1
                l(4) =   1
                l(5) =   2
                l(6) =   2
     Q(r) pseudized with 0 coefficients 


     atomic species   valence    mass     pseudopotential
        Ag            11.00   107.86820     Ag( 1.00)

     48 Sym. Ops., with inversion, found



   Cartesian axes

     site n.     atom                  positions (alat units)
         1           Ag  tau(   1) = (   0.0000000   0.0000000   0.0000000  )

     number of k points=     4  gaussian smearing, width (Ry)=  0.0100
                       cart. coord. in units 2pi/alat
        k(    1) = (   0.0000000   0.0000000   0.0000000), wk =   0.0740741
        k(    2) = (  -0.3333333   0.3333333  -0.3333333), wk =   0.5925926
        k(    3) = (   0.0000000   0.6666667   0.0000000), wk =   0.4444444
        k(    4) = (   0.6666667  -0.0000000   0.6666667), wk =   0.8888889

     Dense  grid:    12051 G-vectors     FFT dimensions: (  36,  36,  36)

     Estimated max dynamical RAM per process >      11.24 MB

     Estimated total dynamical RAM >      56.21 MB

     Initial potential from superposition of free atoms

     starting charge   10.99964, renormalised to   11.00000
     Starting wfcs are    9 randomized atomic wfcs +    1 random wfcs

     total cpu time spent up to now is        1.0 secs

     Self-consistent Calculation

     iteration #  1     ecut=    85.00 Ry     beta= 0.70
     Davidson diagonalization with overlap
     ethr =  1.00E-02,  avg # of iterations =  5.5

     Threshold (ethr) on eigenvalues was too large:
     Diagonalizing with lowered threshold

     Davidson diagonalization with overlap
     ethr =  4.06E-05,  avg # of iterations =  3.5

     total cpu time spent up to now is        1.2 secs

     total energy              =     -84.20471386 Ry
     Harris-Foulkes estimate   =     -84.20790368 Ry
     estimated scf accuracy    <       0.00493249 Ry

     iteration #  2     ecut=    85.00 Ry     beta= 0.70
     Davidson diagonalization with overlap
     ethr =  4.48E-05,  avg # of iterations =  2.0

     total cpu time spent up to now is        1.4 secs

     total energy              =     -84.20588579 Ry
     Harris-Foulkes estimate   =     -84.20765967 Ry
     estimated scf accuracy    <       0.00327632 Ry

     iteration #  3     ecut=    85.00 Ry     beta= 0.70
     Davidson diagonalization with overlap
     ethr =  2.98E-05,  avg # of iterations =  2.0

     total cpu time spent up to now is        1.5 secs

     total energy              =     -84.20661168 Ry
     Harris-Foulkes estimate   =     -84.20661305 Ry
     estimated scf accuracy    <       0.00002322 Ry

     iteration #  4     ecut=    85.00 Ry     beta= 0.70
     Davidson diagonalization with overlap
     ethr =  2.11E-07,  avg # of iterations =  4.0

     total cpu time spent up to now is        1.6 secs

     total energy              =     -84.20662149 Ry
     Harris-Foulkes estimate   =     -84.20662148 Ry
     estimated scf accuracy    <       0.00000068 Ry

     iteration #  5     ecut=    85.00 Ry     beta= 0.70
     Davidson diagonalization with overlap
     ethr =  6.18E-09,  avg # of iterations =  2.2

     total cpu time spent up to now is        1.7 secs

     total energy              =     -84.20662162 Ry
     Harris-Foulkes estimate   =     -84.20662162 Ry
     estimated scf accuracy    <       0.00000002 Ry

     iteration #  6     ecut=    85.00 Ry     beta= 0.70
     Davidson diagonalization with overlap
     ethr =  1.52E-10,  avg # of iterations =  2.5

     total cpu time spent up to now is        1.8 secs

     End of self-consistent calculation

          k = 0.0000 0.0000 0.0000 (  1471 PWs)   bands (ev):

     4.8085   7.9232   7.9232   7.9232   8.9699   8.9699  29.5485  32.8306
    32.8306  32.8306

          k =-0.3333 0.3333-0.3333 (  1504 PWs)   bands (ev):

     6.3873   8.0347   8.0347   9.3027   9.3983   9.3983  20.6280  29.3150
    31.7233  31.7233

          k = 0.0000 0.6667 0.0000 (  1527 PWs)   bands (ev):

     6.6260   6.7516   9.3474   9.3474   9.5419  10.4410  24.9431  25.3571
    25.3571  29.6909

          k = 0.6667-0.0000 0.6667 (  1516 PWs)   bands (ev):

     6.9418   7.5179   8.1454   8.9248   9.4979  15.7994  18.4669  20.1945
    26.9577  29.6098

     the Fermi energy is    10.5059 ev

!    total energy              =     -84.20662162 Ry
     Harris-Foulkes estimate   =     -84.20662162 Ry
     estimated scf accuracy    <          2.0E-09 Ry

     The total energy is the sum of the following terms:

     one-electron contribution =      -4.76369789 Ry
     hartree contribution      =      14.55989156 Ry
     xc contribution           =     -22.14063643 Ry
     ewald contribution        =     -71.86118018 Ry
     smearing contrib. (-TS)   =      -0.00099868 Ry

     convergence has been achieved in   6 iterations

     Forces acting on atoms (cartesian axes, Ry/au):

     atom    1 type  1   force =     0.00000000    0.00000000    0.00000000

     Total force =     0.000000     Total SCF correction =     0.000000


     Computing stress (Cartesian axis) and pressure

          total   stress  (Ry/bohr**3)                   (kbar)     P=  -54.57
  -0.00037095  -0.00000000   0.00000000        -54.57     -0.00      0.00
  -0.00000000  -0.00037095  -0.00000000         -0.00    -54.57     -0.00
   0.00000000  -0.00000000  -0.00037095          0.00     -0.00    -54.57


     Writing output data file Ag.save/

     init_run     :      0.25s CPU      0.26s WALL (       1 calls)
     electrons    :      0.72s CPU      0.77s WALL (       1 calls)
     forces       :      0.05s CPU      0.05s WALL (       1 calls)
     stress       :      0.18s CPU      0.18s WALL (       1 calls)

     Called by init_run:
     wfcinit      :      0.02s CPU      0.02s WALL (       1 calls)
     potinit      :      0.01s CPU      0.01s WALL (       1 calls)
     hinit0       :      0.20s CPU      0.20s WALL (       1 calls)

     Called by electrons:
     c_bands      :      0.42s CPU      0.46s WALL (       7 calls)
     sum_band     :      0.17s CPU      0.18s WALL (       7 calls)
     v_of_rho     :      0.06s CPU      0.06s WALL (       7 calls)
     newd         :      0.08s CPU      0.08s WALL (       7 calls)
     mix_rho      :      0.00s CPU      0.00s WALL (       7 calls)

     Called by c_bands:
     init_us_2    :      0.01s CPU      0.02s WALL (      68 calls)
     cegterg      :      0.40s CPU      0.44s WALL (      28 calls)

     Called by sum_band:
     sum_band:bec :      0.00s CPU      0.00s WALL (      28 calls)
     addusdens    :      0.08s CPU      0.08s WALL (       7 calls)

     Called by *egterg:
     h_psi        :      0.34s CPU      0.37s WALL (     119 calls)
     s_psi        :      0.01s CPU      0.01s WALL (     119 calls)
     g_psi        :      0.00s CPU      0.00s WALL (      87 calls)
     cdiaghg      :      0.03s CPU      0.03s WALL (     111 calls)

     Called by h_psi:
     h_psi:pot    :      0.33s CPU      0.37s WALL (     119 calls)
     h_psi:calbec :      0.02s CPU      0.02s WALL (     119 calls)
     vloc_psi     :      0.31s CPU      0.34s WALL (     119 calls)
     add_vuspsi   :      0.01s CPU      0.01s WALL (     119 calls)

     General routines
     calbec       :      0.02s CPU      0.03s WALL (     167 calls)
     fft          :      0.04s CPU      0.04s WALL (     104 calls)
     ffts         :      0.00s CPU      0.00s WALL (       7 calls)
     fftw         :      0.34s CPU      0.37s WALL (    1800 calls)

     Parallel routines
     fft_scatt_xy :      0.04s CPU      0.04s WALL (    1911 calls)
     fft_scatt_yz :      0.08s CPU      0.09s WALL (    1911 calls)

     PWSCF        :     1.95s CPU         2.04s WALL


   This run was terminated on:   0:40:22  27Mar2024            

=------------------------------------------------------------------------------=
   JOB DONE.
=------------------------------------------------------------------------------=
