
     Program PWSCF v.6.3MaX starts on 27Mar2024 at  0: 8:40 

     This program is part of the open-source Quantum ESPRESSO suite
     for quantum simulation of materials; please cite
         "P. Giannozzi et al., J. Phys.:Condens. Matter 21 395502 (2009);
         "P. Giannozzi et al., J. Phys.:Condens. Matter 29 465901 (2017);
          URL http://www.quantum-espresso.org", 
     in publications or presentations arising from this work. More details at
     http://www.quantum-espresso.org/quote

     Parallel version (MPI), running on     5 processors

     MPI processes distributed on     1 nodes
     R & G space division:  proc/nbgrp/npool/nimage =       5
     Waiting for input...
     Reading input from standard input

     Current dimensions of program PWSCF are:
     Max number of different atomic species (ntypx) = 10
     Max number of k-points (npk) =  40000
     Max angular momentum in pseudopotentials (lmaxx) =  3
               file Ag.pbe-n-kjpaw_psl.1.0.0.UPF: wavefunction(s)  5S 5P renormalized

     Subspace diagonalization in iterative solution of the eigenvalue problem:
     a serial algorithm will be used


     Parallelization info
     --------------------
     sticks:   dense  smooth     PW     G-vecs:    dense   smooth      PW
     Min          32      32     12                  280      280      61
     Max          33      33     13                  283      283      62
     Sum         163     163     61                 1411     1411     307



     bravais-lattice index     =            2
     lattice parameter (alat)  =       7.7200  a.u.
     unit-cell volume          =     115.0249 (a.u.)^3
     number of atoms/cell      =            1
     number of atomic types    =            1
     number of electrons       =        11.00
     number of Kohn-Sham states=           10
     kinetic-energy cutoff     =      20.0000  Ry
     charge density cutoff     =      80.0000  Ry
     convergence threshold     =      1.0E-08
     mixing beta               =       0.7000
     number of iterations used =            8  plain     mixing
     Exchange-correlation      = SLA PW PBX PBC ( 1  4  3  4 0 0)

     celldm(1)=   7.720000  celldm(2)=   0.000000  celldm(3)=   0.000000
     celldm(4)=   0.000000  celldm(5)=   0.000000  celldm(6)=   0.000000

     crystal axes: (cart. coord. in units of alat)
               a(1) = (  -0.500000   0.000000   0.500000 )  
               a(2) = (   0.000000   0.500000   0.500000 )  
               a(3) = (  -0.500000   0.500000   0.000000 )  

     reciprocal axes: (cart. coord. in units 2 pi/alat)
               b(1) = ( -1.000000 -1.000000  1.000000 )  
               b(2) = (  1.000000  1.000000  1.000000 )  
               b(3) = ( -1.000000  1.000000 -1.000000 )  


     PseudoPot. # 1 for Ag read from file:
     /home/lorenzo/pseudos/Ag/Ag.pbe-n-kjpaw_psl.1.0.0.UPF
     MD5 check sum: 51099775af2a3182a6a1caffb86952a3
     Pseudo is Projector augmented-wave + core cor, Zval = 11.0
     Generated using "atomic" code by A. Dal Corso v.6.2.2
     Shape of augmentation charge: PSQ
     Using radial grid of 1237 points,  6 beta functions with: 
                l(1) =   0
                l(2) =   0
                l(3) =   1
                l(4) =   1
                l(5) =   2
                l(6) =   2
     Q(r) pseudized with 0 coefficients 


     atomic species   valence    mass     pseudopotential
        Ag            11.00   107.86820     Ag( 1.00)

     48 Sym. Ops., with inversion, found



   Cartesian axes

     site n.     atom                  positions (alat units)
         1           Ag  tau(   1) = (   0.0000000   0.0000000   0.0000000  )

     number of k points=     8  gaussian smearing, width (Ry)=  0.0100
                       cart. coord. in units 2pi/alat
        k(    1) = (   0.0000000   0.0000000   0.0000000), wk =   0.0312500
        k(    2) = (  -0.2500000   0.2500000  -0.2500000), wk =   0.2500000
        k(    3) = (   0.5000000  -0.5000000   0.5000000), wk =   0.1250000
        k(    4) = (   0.0000000   0.5000000   0.0000000), wk =   0.1875000
        k(    5) = (   0.7500000  -0.2500000   0.7500000), wk =   0.7500000
        k(    6) = (   0.5000000   0.0000000   0.5000000), wk =   0.3750000
        k(    7) = (   0.0000000  -1.0000000   0.0000000), wk =   0.0937500
        k(    8) = (  -0.5000000  -1.0000000   0.0000000), wk =   0.1875000

     Dense  grid:     1411 G-vectors     FFT dimensions: (  15,  15,  15)

     Estimated max dynamical RAM per process >       1.97 MB

     Estimated total dynamical RAM >       9.84 MB

     Initial potential from superposition of free atoms

     starting charge   10.99960, renormalised to   11.00000
     Starting wfcs are    9 randomized atomic wfcs +    1 random wfcs
     Checking if some PAW data can be deallocated... 

     total cpu time spent up to now is        1.1 secs

     Self-consistent Calculation

     iteration #  1     ecut=    20.00 Ry     beta= 0.70
     Davidson diagonalization with overlap
     ethr =  1.00E-02,  avg # of iterations =  5.2

     total cpu time spent up to now is        1.3 secs

     total energy              =    -353.28352979 Ry
     Harris-Foulkes estimate   =    -353.78545115 Ry
     estimated scf accuracy    <       0.62694377 Ry

     iteration #  2     ecut=    20.00 Ry     beta= 0.70
     Davidson diagonalization with overlap
     ethr =  5.70E-03,  avg # of iterations =  2.0

     total cpu time spent up to now is        1.4 secs

     total energy              =    -353.50886877 Ry
     Harris-Foulkes estimate   =    -353.63983620 Ry
     estimated scf accuracy    <       0.26836693 Ry

     iteration #  3     ecut=    20.00 Ry     beta= 0.70
     Davidson diagonalization with overlap
     ethr =  2.44E-03,  avg # of iterations =  1.5

     total cpu time spent up to now is        1.5 secs

     total energy              =    -353.54590923 Ry
     Harris-Foulkes estimate   =    -353.54783419 Ry
     estimated scf accuracy    <       0.00538919 Ry

     iteration #  4     ecut=    20.00 Ry     beta= 0.70
     Davidson diagonalization with overlap
     ethr =  4.90E-05,  avg # of iterations =  3.2

     total cpu time spent up to now is        1.6 secs

     total energy              =    -353.54765589 Ry
     Harris-Foulkes estimate   =    -353.54781136 Ry
     estimated scf accuracy    <       0.00060205 Ry

     iteration #  5     ecut=    20.00 Ry     beta= 0.70
     Davidson diagonalization with overlap
     ethr =  5.47E-06,  avg # of iterations =  1.5

     total cpu time spent up to now is        1.8 secs

     total energy              =    -353.54759998 Ry
     Harris-Foulkes estimate   =    -353.54767729 Ry
     estimated scf accuracy    <       0.00018048 Ry

     iteration #  6     ecut=    20.00 Ry     beta= 0.70
     Davidson diagonalization with overlap
     ethr =  1.64E-06,  avg # of iterations =  1.6

     total cpu time spent up to now is        1.9 secs

     total energy              =    -353.54763075 Ry
     Harris-Foulkes estimate   =    -353.54763095 Ry
     estimated scf accuracy    <       0.00000038 Ry

     iteration #  7     ecut=    20.00 Ry     beta= 0.70
     Davidson diagonalization with overlap
     ethr =  3.49E-09,  avg # of iterations =  3.0

     total cpu time spent up to now is        2.1 secs

     total energy              =    -353.54763126 Ry
     Harris-Foulkes estimate   =    -353.54763126 Ry
     estimated scf accuracy    <       0.00000001 Ry

     iteration #  8     ecut=    20.00 Ry     beta= 0.70
     Davidson diagonalization with overlap
     ethr =  9.27E-11,  avg # of iterations =  1.0

     total cpu time spent up to now is        2.2 secs

     total energy              =    -353.54763126 Ry
     Harris-Foulkes estimate   =    -353.54763126 Ry
     estimated scf accuracy    <       0.00000002 Ry

     iteration #  9     ecut=    20.00 Ry     beta= 0.70
     Davidson diagonalization with overlap
     ethr =  9.27E-11,  avg # of iterations =  1.5

     total cpu time spent up to now is        2.3 secs

     End of self-consistent calculation

          k = 0.0000 0.0000 0.0000 (   169 PWs)   bands (ev):

     5.0970   8.1084   8.1084   8.1084   8.7129   8.7129  30.1414  33.0476
    33.0476  33.0476

          k =-0.2500 0.2500-0.2500 (   168 PWs)   bands (ev):

     6.5587   8.2743   8.2743   8.6114   9.2591   9.2591  24.3200  30.6376
    32.6360  32.6360

          k = 0.5000-0.5000 0.5000 (   168 PWs)   bands (ev):

     6.4431   8.4750   8.4750   9.7939   9.7939  12.4438  16.4834  29.1756
    30.8177  30.8177

          k = 0.0000 0.5000 0.0000 (   165 PWs)   bands (ev):

     7.0025   7.6278   9.0737   9.3723   9.3936   9.3936  27.7183  27.7183
    29.4170  30.7053

          k = 0.7500-0.2500 0.7500 (   178 PWs)   bands (ev):

     6.9756   7.3354   8.1113   8.6306   9.5106  13.8042  18.9411  24.2005
    26.5342  30.2129

          k = 0.5000 0.0000 0.5000 (   170 PWs)   bands (ev):

     7.5815   7.8353   8.1015   8.9608   9.1705  12.2494  22.2636  22.3892
    30.8233  30.8897

          k = 0.0000-1.0000 0.0000 (   190 PWs)   bands (ev):

     6.0460   6.5229   8.4179   8.9515   8.9515  14.4109  19.3926  23.5692
    23.5692  30.0884

          k =-0.5000-1.0000 0.0000 (   176 PWs)   bands (ev):

     6.9875   7.6843   7.6843   9.1223   9.8968  18.8503  18.8503  19.6421
    21.2818  36.8971

     the Fermi energy is    13.6376 ev

!    total energy              =    -353.54763126 Ry
     Harris-Foulkes estimate   =    -353.54763126 Ry
     estimated scf accuracy    <          1.7E-10 Ry

     total all-electron energy =    -10630.513685 Ry

     The total energy is the sum of the following terms:

     one-electron contribution =       3.96209393 Ry
     hartree contribution      =      12.86740037 Ry
     xc contribution           =     -21.95012979 Ry
     ewald contribution        =     -71.86118020 Ry
     one-center paw contrib.   =    -276.56534318 Ry
     smearing contrib. (-TS)   =      -0.00047239 Ry

     convergence has been achieved in   9 iterations

     Forces acting on atoms (cartesian axes, Ry/au):

     atom    1 type  1   force =     0.00000000    0.00000000    0.00000000

     Total force =     0.000000     Total SCF correction =     0.000000


     Computing stress (Cartesian axis) and pressure

          total   stress  (Ry/bohr**3)                   (kbar)     P=-7280.14
  -0.04948939   0.00000000   0.00000000      -7280.14      0.00      0.00
   0.00000000  -0.04948939   0.00000000          0.00  -7280.14      0.00
   0.00000000   0.00000000  -0.04948939          0.00      0.00  -7280.14


     Writing output data file Ag.save/

     init_run     :      0.22s CPU      0.23s WALL (       1 calls)
     electrons    :      1.08s CPU      1.23s WALL (       1 calls)
     forces       :      0.01s CPU      0.01s WALL (       1 calls)
     stress       :      0.02s CPU      0.02s WALL (       1 calls)

     Called by init_run:
     wfcinit      :      0.01s CPU      0.01s WALL (       1 calls)
     potinit      :      0.10s CPU      0.11s WALL (       1 calls)
     hinit0       :      0.10s CPU      0.10s WALL (       1 calls)

     Called by electrons:
     c_bands      :      0.18s CPU      0.19s WALL (       9 calls)
     sum_band     :      0.05s CPU      0.05s WALL (       9 calls)
     v_of_rho     :      0.01s CPU      0.01s WALL (      10 calls)
     newd         :      0.02s CPU      0.02s WALL (      10 calls)
     PAW_pot      :      0.93s CPU      1.05s WALL (      10 calls)
     mix_rho      :      0.00s CPU      0.00s WALL (       9 calls)

     Called by c_bands:
     init_us_2    :      0.00s CPU      0.01s WALL (     168 calls)
     cegterg      :      0.17s CPU      0.19s WALL (      72 calls)

     Called by sum_band:
     sum_band:bec :      0.00s CPU      0.00s WALL (      72 calls)
     addusdens    :      0.01s CPU      0.01s WALL (       9 calls)

     Called by *egterg:
     h_psi        :      0.10s CPU      0.11s WALL (     245 calls)
     s_psi        :      0.00s CPU      0.00s WALL (     245 calls)
     g_psi        :      0.00s CPU      0.00s WALL (     165 calls)
     cdiaghg      :      0.04s CPU      0.05s WALL (     237 calls)

     Called by h_psi:
     h_psi:pot    :      0.10s CPU      0.11s WALL (     245 calls)
     h_psi:calbec :      0.01s CPU      0.01s WALL (     245 calls)
     vloc_psi     :      0.09s CPU      0.10s WALL (     245 calls)
     add_vuspsi   :      0.00s CPU      0.00s WALL (     245 calls)

     General routines
     calbec       :      0.01s CPU      0.01s WALL (     357 calls)
     fft          :      0.01s CPU      0.01s WALL (     136 calls)
     ffts         :      0.00s CPU      0.00s WALL (       9 calls)
     fftw         :      0.10s CPU      0.11s WALL (    4372 calls)

     Parallel routines
     fft_scatt_xy :      0.01s CPU      0.01s WALL (    4517 calls)
     fft_scatt_yz :      0.05s CPU      0.05s WALL (    4517 calls)

     PWSCF        :     2.21s CPU         2.40s WALL


   This run was terminated on:   0: 8:42  27Mar2024            

=------------------------------------------------------------------------------=
   JOB DONE.
=------------------------------------------------------------------------------=
