
     Program PWSCF v.6.3MaX starts on 27Mar2024 at  0:11:15 

     This program is part of the open-source Quantum ESPRESSO suite
     for quantum simulation of materials; please cite
         "P. Giannozzi et al., J. Phys.:Condens. Matter 21 395502 (2009);
         "P. Giannozzi et al., J. Phys.:Condens. Matter 29 465901 (2017);
          URL http://www.quantum-espresso.org", 
     in publications or presentations arising from this work. More details at
     http://www.quantum-espresso.org/quote

     Parallel version (MPI), running on     5 processors

     MPI processes distributed on     1 nodes
     R & G space division:  proc/nbgrp/npool/nimage =       5
     Waiting for input...
     Reading input from standard input

     Current dimensions of program PWSCF are:
     Max number of different atomic species (ntypx) = 10
     Max number of k-points (npk) =  40000
     Max angular momentum in pseudopotentials (lmaxx) =  3
               file Ag.pbesol-n-kjpaw_psl.1.0.0.UPF: wavefunction(s)  5S 5P renormalized

     Subspace diagonalization in iterative solution of the eigenvalue problem:
     a serial algorithm will be used


     Parallelization info
     --------------------
     sticks:   dense  smooth     PW     G-vecs:    dense   smooth      PW
     Min          39      39     14                  381      381      82
     Max          40      40     15                  384      384      83
     Sum         199     199     73                 1917     1917     411



     bravais-lattice index     =            2
     lattice parameter (alat)  =       7.7200  a.u.
     unit-cell volume          =     115.0249 (a.u.)^3
     number of atoms/cell      =            1
     number of atomic types    =            1
     number of electrons       =        11.00
     number of Kohn-Sham states=           10
     kinetic-energy cutoff     =      25.0000  Ry
     charge density cutoff     =     100.0000  Ry
     convergence threshold     =      1.0E-08
     mixing beta               =       0.7000
     number of iterations used =            8  plain     mixing
     Exchange-correlation      = SLA PW PSX PSC ( 1  4 10  8 0 0)

     celldm(1)=   7.720000  celldm(2)=   0.000000  celldm(3)=   0.000000
     celldm(4)=   0.000000  celldm(5)=   0.000000  celldm(6)=   0.000000

     crystal axes: (cart. coord. in units of alat)
               a(1) = (  -0.500000   0.000000   0.500000 )  
               a(2) = (   0.000000   0.500000   0.500000 )  
               a(3) = (  -0.500000   0.500000   0.000000 )  

     reciprocal axes: (cart. coord. in units 2 pi/alat)
               b(1) = ( -1.000000 -1.000000  1.000000 )  
               b(2) = (  1.000000  1.000000  1.000000 )  
               b(3) = ( -1.000000  1.000000 -1.000000 )  


     PseudoPot. # 1 for Ag read from file:
     /home/lorenzo/pseudos/Ag/Ag.pbesol-n-kjpaw_psl.1.0.0.UPF
     MD5 check sum: 3b245e14fa22881b2ac493bfd23f605f
     Pseudo is Projector augmented-wave + core cor, Zval = 11.0
     Generated using "atomic" code by A. Dal Corso v.6.2.2
     Shape of augmentation charge: PSQ
     Using radial grid of 1237 points,  6 beta functions with: 
                l(1) =   0
                l(2) =   0
                l(3) =   1
                l(4) =   1
                l(5) =   2
                l(6) =   2
     Q(r) pseudized with 0 coefficients 


     atomic species   valence    mass     pseudopotential
        Ag            11.00   107.86820     Ag( 1.00)

     48 Sym. Ops., with inversion, found



   Cartesian axes

     site n.     atom                  positions (alat units)
         1           Ag  tau(   1) = (   0.0000000   0.0000000   0.0000000  )

     number of k points=    20  gaussian smearing, width (Ry)=  0.0100
                       cart. coord. in units 2pi/alat
        k(    1) = (   0.0000000   0.0000000   0.0000000), wk =   0.0058309
        k(    2) = (  -0.1428571   0.1428571  -0.1428571), wk =   0.0466472
        k(    3) = (  -0.2857143   0.2857143  -0.2857143), wk =   0.0466472
        k(    4) = (  -0.4285714   0.4285714  -0.4285714), wk =   0.0466472
        k(    5) = (   0.0000000   0.2857143   0.0000000), wk =   0.0349854
        k(    6) = (  -0.1428571   0.4285714  -0.1428571), wk =   0.1399417
        k(    7) = (  -0.2857143   0.5714286  -0.2857143), wk =   0.1399417
        k(    8) = (   0.5714286  -0.2857143   0.5714286), wk =   0.1399417
        k(    9) = (   0.4285714  -0.1428571   0.4285714), wk =   0.1399417
        k(   10) = (   0.2857143  -0.0000000   0.2857143), wk =   0.0699708
        k(   11) = (   0.0000000   0.5714286   0.0000000), wk =   0.0349854
        k(   12) = (  -0.1428571   0.7142857  -0.1428571), wk =   0.1399417
        k(   13) = (   0.7142857  -0.1428571   0.7142857), wk =   0.1399417
        k(   14) = (   0.5714286   0.0000000   0.5714286), wk =   0.0699708
        k(   15) = (   0.0000000   0.8571429   0.0000000), wk =   0.0349854
        k(   16) = (   0.8571429  -0.0000000   0.8571429), wk =   0.0699708
        k(   17) = (  -0.2857143   0.5714286   0.0000000), wk =   0.1399417
        k(   18) = (   0.5714286  -0.2857143   0.8571429), wk =   0.2798834
        k(   19) = (   0.7142857  -0.1428571   1.0000000), wk =   0.1399417
        k(   20) = (   0.5714286   0.0000000   0.8571429), wk =   0.1399417

     Dense  grid:     1917 G-vectors     FFT dimensions: (  18,  18,  18)

     Estimated max dynamical RAM per process >       2.57 MB

     Estimated total dynamical RAM >      12.85 MB

     Initial potential from superposition of free atoms

     starting charge   10.99964, renormalised to   11.00000
     Starting wfcs are    9 randomized atomic wfcs +    1 random wfcs
     Checking if some PAW data can be deallocated... 

     total cpu time spent up to now is        1.1 secs

     Self-consistent Calculation

     iteration #  1     ecut=    25.00 Ry     beta= 0.70
     Davidson diagonalization with overlap
     ethr =  1.00E-02,  avg # of iterations =  4.8

     Threshold (ethr) on eigenvalues was too large:
     Diagonalizing with lowered threshold

     Davidson diagonalization with overlap
     ethr =  8.30E-04,  avg # of iterations =  1.0

     total cpu time spent up to now is        1.4 secs

     total energy              =    -349.72859735 Ry
     Harris-Foulkes estimate   =    -349.80265177 Ry
     estimated scf accuracy    <       0.09355327 Ry

     iteration #  2     ecut=    25.00 Ry     beta= 0.70
     Davidson diagonalization with overlap
     ethr =  8.50E-04,  avg # of iterations =  2.0

     total cpu time spent up to now is        1.6 secs

     total energy              =    -349.76194192 Ry
     Harris-Foulkes estimate   =    -349.79234578 Ry
     estimated scf accuracy    <       0.06466427 Ry

     iteration #  3     ecut=    25.00 Ry     beta= 0.70
     Davidson diagonalization with overlap
     ethr =  5.88E-04,  avg # of iterations =  1.4

     total cpu time spent up to now is        1.8 secs

     total energy              =    -349.77235860 Ry
     Harris-Foulkes estimate   =    -349.77238070 Ry
     estimated scf accuracy    <       0.00064989 Ry

     iteration #  4     ecut=    25.00 Ry     beta= 0.70
     Davidson diagonalization with overlap
     ethr =  5.91E-06,  avg # of iterations =  3.3

     total cpu time spent up to now is        2.0 secs

     total energy              =    -349.77265580 Ry
     Harris-Foulkes estimate   =    -349.77265724 Ry
     estimated scf accuracy    <       0.00004271 Ry

     iteration #  5     ecut=    25.00 Ry     beta= 0.70
     Davidson diagonalization with overlap
     ethr =  3.88E-07,  avg # of iterations =  1.1

     total cpu time spent up to now is        2.2 secs

     total energy              =    -349.77263670 Ry
     Harris-Foulkes estimate   =    -349.77265607 Ry
     estimated scf accuracy    <       0.00003872 Ry

     iteration #  6     ecut=    25.00 Ry     beta= 0.70
     Davidson diagonalization with overlap
     ethr =  3.52E-07,  avg # of iterations =  2.0

     total cpu time spent up to now is        2.4 secs

     total energy              =    -349.77264546 Ry
     Harris-Foulkes estimate   =    -349.77265313 Ry
     estimated scf accuracy    <       0.00001846 Ry

     iteration #  7     ecut=    25.00 Ry     beta= 0.70
     Davidson diagonalization with overlap
     ethr =  1.68E-07,  avg # of iterations =  1.1

     total cpu time spent up to now is        2.5 secs

     total energy              =    -349.77264681 Ry
     Harris-Foulkes estimate   =    -349.77264748 Ry
     estimated scf accuracy    <       0.00000141 Ry

     iteration #  8     ecut=    25.00 Ry     beta= 0.70
     Davidson diagonalization with overlap
     ethr =  1.29E-08,  avg # of iterations =  1.9

     total cpu time spent up to now is        2.7 secs

     total energy              =    -349.77264706 Ry
     Harris-Foulkes estimate   =    -349.77264707 Ry
     estimated scf accuracy    <       0.00000002 Ry

     iteration #  9     ecut=    25.00 Ry     beta= 0.70
     Davidson diagonalization with overlap
     ethr =  1.74E-10,  avg # of iterations =  2.4

     total cpu time spent up to now is        2.9 secs

     End of self-consistent calculation

          k = 0.0000 0.0000 0.0000 (   259 PWs)   bands (ev):

     4.8110   7.5907   7.5907   7.5907   8.8356   8.8356  29.6243  32.8102
    32.8102  32.8102

          k =-0.1429 0.1429-0.1429 (   250 PWs)   bands (ev):

     5.4099   7.6569   7.8342   7.8342   8.9705   8.9705  28.0196  30.4213
    32.7446  32.7446

          k =-0.2857 0.2857-0.2857 (   247 PWs)   bands (ev):

     6.2769   7.9141   7.9141   8.4359   9.1929   9.1929  22.4095  29.7785
    32.0693  32.0693

          k =-0.4286 0.4286-0.4286 (   241 PWs)   bands (ev):

     6.2037   7.7876   7.7876   9.7565   9.7565  11.2409  17.3772  28.8135
    30.9414  30.9414

          k = 0.0000 0.2857 0.0000 (   246 PWs)   bands (ev):

     5.6153   7.3727   8.2049   8.2049   8.6645   9.0421  29.6601  30.4005
    30.4005  30.7225

          k =-0.1429 0.4286-0.1429 (   238 PWs)   bands (ev):

     6.5524   7.4491   8.1820   8.4254   9.2034   9.4568  24.7476  28.8677
    29.5449  31.3883

          k =-0.2857 0.5714-0.2857 (   242 PWs)   bands (ev):

     6.5696   7.6760   8.1645   8.3539   9.8077  11.4480  19.2295  27.9041
    28.3367  29.7874

          k = 0.5714-0.2857 0.5714 (   246 PWs)   bands (ev):

     6.4677   7.5723   7.9500   8.8003   9.6397  13.4416  16.4946  26.3687
    29.3758  29.4692

          k = 0.4286-0.1429 0.4286 (   248 PWs)   bands (ev):

     6.6716   7.6519   8.1119   8.3054   8.9335  10.8226  21.0096  25.9942
    30.5558  32.1304

          k = 0.2857-0.0000 0.2857 (   249 PWs)   bands (ev):

     6.2664   7.5444   8.0139   8.0499   8.5495   9.4225  26.4817  26.8559
    32.7931  33.1754

          k = 0.0000 0.5714 0.0000 (   242 PWs)   bands (ev):

     6.6240   6.8310   8.9982   8.9982   9.3126   9.5201  26.4318  26.4318
    27.1375  29.8328

          k =-0.1429 0.7143-0.1429 (   240 PWs)   bands (ev):

     6.5716   6.8059   8.7673   9.0984   9.8193  11.9495  21.9200  24.1468
    25.4443  29.7745

          k = 0.7143-0.1429 0.7143 (   244 PWs)   bands (ev):

     6.7010   7.2107   8.2561   8.7666   9.6581  15.7114  17.2846  21.8999
    26.3168  29.6345

          k = 0.5714 0.0000 0.5714 (   240 PWs)   bands (ev):

     7.1478   7.6611   7.8280   8.5736   9.2050  13.5385  20.3832  21.0566
    28.8649  29.9295

          k = 0.0000 0.8571 0.0000 (   242 PWs)   bands (ev):

     6.2164   6.3605   9.5951   9.8071   9.8071  12.9775  20.8530  23.7660
    23.7660  29.8511

          k = 0.8571-0.0000 0.8571 (   236 PWs)   bands (ev):

     6.3997   6.5714   9.3280   9.6155   9.8765  15.2396  19.4341  20.9271
    24.1147  29.8512

          k =-0.2857 0.5714 0.0000 (   241 PWs)   bands (ev):

     7.1047   7.1186   7.9298   9.0023   9.0553  11.0041  23.5127  23.7624
    27.6747  33.0278

          k = 0.5714-0.2857 0.8571 (   243 PWs)   bands (ev):

     6.9672   7.3760   7.9285   8.6065   9.5506  13.9984  18.4656  23.7208
    25.2813  32.3551

          k = 0.7143-0.1429 1.0000 (   243 PWs)   bands (ev):

     6.6243   6.7169   8.5366   9.3065   9.7909  14.6399  20.9819  21.5378
    22.1396  32.5511

          k = 0.5714 0.0000 0.8571 (   242 PWs)   bands (ev):

     6.8858   7.3448   7.8719   8.8787   9.7846  17.4277  18.0357  20.0049
    23.0531  33.0887

     the Fermi energy is    12.9573 ev

!    total energy              =    -349.77264707 Ry
     Harris-Foulkes estimate   =    -349.77264707 Ry
     estimated scf accuracy    <          2.1E-09 Ry

     total all-electron energy =    -10626.783056 Ry

     The total energy is the sum of the following terms:

     one-electron contribution =       2.24295643 Ry
     hartree contribution      =      14.06926596 Ry
     xc contribution           =     -22.04163986 Ry
     ewald contribution        =     -71.86118028 Ry
     one-center paw contrib.   =    -272.18195278 Ry
     smearing contrib. (-TS)   =      -0.00009653 Ry

     convergence has been achieved in   9 iterations

     Forces acting on atoms (cartesian axes, Ry/au):

     atom    1 type  1   force =     0.00000000    0.00000000    0.00000000

     Total force =     0.000000     Total SCF correction =     0.000000


     Computing stress (Cartesian axis) and pressure

          total   stress  (Ry/bohr**3)                   (kbar)     P=-2913.24
  -0.01980378   0.00000000   0.00000000      -2913.24      0.00      0.00
   0.00000000  -0.01980378  -0.00000000          0.00  -2913.24     -0.00
   0.00000000  -0.00000000  -0.01980378          0.00     -0.00  -2913.24


     Writing output data file Ag.save/

     init_run     :      0.24s CPU      0.26s WALL (       1 calls)
     electrons    :      1.62s CPU      1.82s WALL (       1 calls)
     forces       :      0.02s CPU      0.02s WALL (       1 calls)
     stress       :      0.03s CPU      0.03s WALL (       1 calls)

     Called by init_run:
     wfcinit      :      0.02s CPU      0.03s WALL (       1 calls)
     potinit      :      0.10s CPU      0.12s WALL (       1 calls)
     hinit0       :      0.09s CPU      0.09s WALL (       1 calls)

     Called by electrons:
     c_bands      :      0.61s CPU      0.68s WALL (      10 calls)
     sum_band     :      0.12s CPU      0.14s WALL (      10 calls)
     v_of_rho     :      0.01s CPU      0.01s WALL (      10 calls)
     newd         :      0.02s CPU      0.02s WALL (      10 calls)
     PAW_pot      :      0.96s CPU      1.07s WALL (      10 calls)
     mix_rho      :      0.00s CPU      0.00s WALL (      10 calls)

     Called by c_bands:
     init_us_2    :      0.02s CPU      0.02s WALL (     460 calls)
     cegterg      :      0.58s CPU      0.65s WALL (     200 calls)

     Called by sum_band:
     sum_band:bec :      0.00s CPU      0.00s WALL (     200 calls)
     addusdens    :      0.02s CPU      0.02s WALL (      10 calls)

     Called by *egterg:
     h_psi        :      0.41s CPU      0.46s WALL (     638 calls)
     s_psi        :      0.01s CPU      0.01s WALL (     638 calls)
     g_psi        :      0.00s CPU      0.00s WALL (     418 calls)
     cdiaghg      :      0.10s CPU      0.12s WALL (     598 calls)

     Called by h_psi:
     h_psi:pot    :      0.41s CPU      0.46s WALL (     638 calls)
     h_psi:calbec :      0.02s CPU      0.02s WALL (     638 calls)
     vloc_psi     :      0.37s CPU      0.42s WALL (     638 calls)
     add_vuspsi   :      0.01s CPU      0.01s WALL (     638 calls)

     General routines
     calbec       :      0.03s CPU      0.03s WALL (     938 calls)
     fft          :      0.01s CPU      0.01s WALL (     137 calls)
     ffts         :      0.00s CPU      0.00s WALL (      10 calls)
     fftw         :      0.42s CPU      0.47s WALL (   11932 calls)

     Parallel routines
     fft_scatt_xy :      0.04s CPU      0.05s WALL (   12079 calls)
     fft_scatt_yz :      0.14s CPU      0.15s WALL (   12079 calls)

     PWSCF        :     2.78s CPU         3.06s WALL


   This run was terminated on:   0:11:18  27Mar2024            

=------------------------------------------------------------------------------=
   JOB DONE.
=------------------------------------------------------------------------------=
