
     Program PWSCF v.6.3MaX starts on 27Mar2024 at  0:19:23 

     This program is part of the open-source Quantum ESPRESSO suite
     for quantum simulation of materials; please cite
         "P. Giannozzi et al., J. Phys.:Condens. Matter 21 395502 (2009);
         "P. Giannozzi et al., J. Phys.:Condens. Matter 29 465901 (2017);
          URL http://www.quantum-espresso.org", 
     in publications or presentations arising from this work. More details at
     http://www.quantum-espresso.org/quote

     Parallel version (MPI), running on     5 processors

     MPI processes distributed on     1 nodes
     R & G space division:  proc/nbgrp/npool/nimage =       5
     Waiting for input...
     Reading input from standard input

     Current dimensions of program PWSCF are:
     Max number of different atomic species (ntypx) = 10
     Max number of k-points (npk) =  40000
     Max angular momentum in pseudopotentials (lmaxx) =  3
               file Ag.pbe-n-kjpaw_psl.1.0.0.UPF: wavefunction(s)  5S 5P renormalized

     Subspace diagonalization in iterative solution of the eigenvalue problem:
     a serial algorithm will be used


     Parallelization info
     --------------------
     sticks:   dense  smooth     PW     G-vecs:    dense   smooth      PW
     Min          73      73     24                  928      928     178
     Max          74      74     25                  930      930     181
     Sum         367     367    121                 4645     4645     893



     bravais-lattice index     =            2
     lattice parameter (alat)  =       7.7200  a.u.
     unit-cell volume          =     115.0249 (a.u.)^3
     number of atoms/cell      =            1
     number of atomic types    =            1
     number of electrons       =        11.00
     number of Kohn-Sham states=           10
     kinetic-energy cutoff     =      45.0000  Ry
     charge density cutoff     =     180.0000  Ry
     convergence threshold     =      1.0E-08
     mixing beta               =       0.7000
     number of iterations used =            8  plain     mixing
     Exchange-correlation      = SLA PW PBX PBC ( 1  4  3  4 0 0)

     celldm(1)=   7.720000  celldm(2)=   0.000000  celldm(3)=   0.000000
     celldm(4)=   0.000000  celldm(5)=   0.000000  celldm(6)=   0.000000

     crystal axes: (cart. coord. in units of alat)
               a(1) = (  -0.500000   0.000000   0.500000 )  
               a(2) = (   0.000000   0.500000   0.500000 )  
               a(3) = (  -0.500000   0.500000   0.000000 )  

     reciprocal axes: (cart. coord. in units 2 pi/alat)
               b(1) = ( -1.000000 -1.000000  1.000000 )  
               b(2) = (  1.000000  1.000000  1.000000 )  
               b(3) = ( -1.000000  1.000000 -1.000000 )  


     PseudoPot. # 1 for Ag read from file:
     /home/lorenzo/pseudos/Ag/Ag.pbe-n-kjpaw_psl.1.0.0.UPF
     MD5 check sum: 51099775af2a3182a6a1caffb86952a3
     Pseudo is Projector augmented-wave + core cor, Zval = 11.0
     Generated using "atomic" code by A. Dal Corso v.6.2.2
     Shape of augmentation charge: PSQ
     Using radial grid of 1237 points,  6 beta functions with: 
                l(1) =   0
                l(2) =   0
                l(3) =   1
                l(4) =   1
                l(5) =   2
                l(6) =   2
     Q(r) pseudized with 0 coefficients 


     atomic species   valence    mass     pseudopotential
        Ag            11.00   107.86820     Ag( 1.00)

     48 Sym. Ops., with inversion, found



   Cartesian axes

     site n.     atom                  positions (alat units)
         1           Ag  tau(   1) = (   0.0000000   0.0000000   0.0000000  )

     number of k points=    16  gaussian smearing, width (Ry)=  0.0100
                       cart. coord. in units 2pi/alat
        k(    1) = (   0.0000000   0.0000000   0.0000000), wk =   0.0092593
        k(    2) = (  -0.1666667   0.1666667  -0.1666667), wk =   0.0740741
        k(    3) = (  -0.3333333   0.3333333  -0.3333333), wk =   0.0740741
        k(    4) = (   0.5000000  -0.5000000   0.5000000), wk =   0.0370370
        k(    5) = (   0.0000000   0.3333333   0.0000000), wk =   0.0555556
        k(    6) = (  -0.1666667   0.5000000  -0.1666667), wk =   0.2222222
        k(    7) = (   0.6666667  -0.3333333   0.6666667), wk =   0.2222222
        k(    8) = (   0.5000000  -0.1666667   0.5000000), wk =   0.2222222
        k(    9) = (   0.3333333   0.0000000   0.3333333), wk =   0.1111111
        k(   10) = (   0.0000000   0.6666667   0.0000000), wk =   0.0555556
        k(   11) = (   0.8333333  -0.1666667   0.8333333), wk =   0.2222222
        k(   12) = (   0.6666667  -0.0000000   0.6666667), wk =   0.1111111
        k(   13) = (   0.0000000  -1.0000000   0.0000000), wk =   0.0277778
        k(   14) = (   0.6666667  -0.3333333   1.0000000), wk =   0.2222222
        k(   15) = (   0.5000000  -0.1666667   0.8333333), wk =   0.2222222
        k(   16) = (  -0.3333333  -1.0000000   0.0000000), wk =   0.1111111

     Dense  grid:     4645 G-vectors     FFT dimensions: (  24,  24,  24)

     Estimated max dynamical RAM per process >       5.10 MB

     Estimated total dynamical RAM >      25.48 MB

     Initial potential from superposition of free atoms

     starting charge   10.99960, renormalised to   11.00000
     Starting wfcs are    9 randomized atomic wfcs +    1 random wfcs
     Checking if some PAW data can be deallocated... 

     total cpu time spent up to now is        1.1 secs

     Self-consistent Calculation

     iteration #  1     ecut=    45.00 Ry     beta= 0.70
     Davidson diagonalization with overlap
     ethr =  1.00E-02,  avg # of iterations =  4.6

     Threshold (ethr) on eigenvalues was too large:
     Diagonalizing with lowered threshold

     Davidson diagonalization with overlap
     ethr =  2.70E-05,  avg # of iterations =  3.1

     total cpu time spent up to now is        1.5 secs

     total energy              =    -355.29362448 Ry
     Harris-Foulkes estimate   =    -355.29537906 Ry
     estimated scf accuracy    <       0.00331265 Ry

     iteration #  2     ecut=    45.00 Ry     beta= 0.70
     Davidson diagonalization with overlap
     ethr =  3.01E-05,  avg # of iterations =  2.0

     total cpu time spent up to now is        1.7 secs

     total energy              =    -355.29451351 Ry
     Harris-Foulkes estimate   =    -355.29559753 Ry
     estimated scf accuracy    <       0.00229625 Ry

     iteration #  3     ecut=    45.00 Ry     beta= 0.70
     Davidson diagonalization with overlap
     ethr =  2.09E-05,  avg # of iterations =  1.8

     total cpu time spent up to now is        1.9 secs

     total energy              =    -355.29498026 Ry
     Harris-Foulkes estimate   =    -355.29495751 Ry
     estimated scf accuracy    <       0.00001545 Ry

     iteration #  4     ecut=    45.00 Ry     beta= 0.70
     Davidson diagonalization with overlap
     ethr =  1.40E-07,  avg # of iterations =  2.9

     total cpu time spent up to now is        2.1 secs

     total energy              =    -355.29498607 Ry
     Harris-Foulkes estimate   =    -355.29498578 Ry
     estimated scf accuracy    <       0.00000026 Ry

     iteration #  5     ecut=    45.00 Ry     beta= 0.70
     Davidson diagonalization with overlap
     ethr =  2.35E-09,  avg # of iterations =  2.1

     total cpu time spent up to now is        2.3 secs

     End of self-consistent calculation

          k = 0.0000 0.0000 0.0000 (   561 PWs)   bands (ev):

     5.0657   8.0882   8.0882   8.0882   9.1285   9.1285  29.8016  33.0894
    33.0894  37.3824

          k =-0.1667 0.1667-0.1667 (   576 PWs)   bands (ev):

     5.8618   7.9838   8.2653   8.2653   9.1026   9.1026  27.3626  30.5561
    32.9668  32.9668

          k =-0.3333 0.3333-0.3333 (   589 PWs)   bands (ev):

     6.5914   8.2003   8.2003   9.5308   9.5524   9.5524  20.8619  29.5639
    31.9817  31.9817

          k = 0.5000-0.5000 0.5000 (   580 PWs)   bands (ev):

     6.4782   8.0655   8.0655   9.9274   9.9274  12.4482  16.4755  28.8413
    31.0992  31.0992

          k = 0.0000 0.3333 0.0000 (   572 PWs)   bands (ev):

     6.1318   7.6777   8.5009   8.5009   8.7989   9.3130  29.8280  29.9752
    29.9752  30.4891

          k =-0.1667 0.5000-0.1667 (   591 PWs)   bands (ev):

     6.9740   7.6879   8.2778   8.6670   9.6750  10.0638  23.4929  28.3101
    28.9407  30.5694

          k = 0.6667-0.3333 0.6667 (   588 PWs)   bands (ev):

     6.8798   7.8296   8.4799   8.7463   9.9547  13.4551  17.5955  26.5695
    28.4226  29.6699

          k = 0.5000-0.1667 0.5000 (   589 PWs)   bands (ev):

     7.0339   7.9127   8.4635   8.6897   9.4516  12.3507  19.4426  25.3744
    30.1891  30.8249

          k = 0.3333 0.0000 0.3333 (   580 PWs)   bands (ev):

     6.9040   7.7072   8.3343   8.6197   8.7653   9.9613  25.6082  25.9485
    32.5262  33.6414

          k = 0.0000 0.6667 0.0000 (   576 PWs)   bands (ev):

     6.8215   6.9272   9.5016   9.5016   9.6960  10.6759  25.1809  25.6138
    25.6138  29.9156

          k = 0.8333-0.1667 0.8333 (   588 PWs)   bands (ev):

     6.7583   7.0115   9.1725   9.4188  10.0221  14.1571  20.7537  22.0091
    25.1205  29.8860

          k = 0.6667-0.0000 0.6667 (   598 PWs)   bands (ev):

     7.1200   7.6996   8.3176   9.0853   9.6493  16.0313  18.7014  20.4307
    27.2131  29.8475

          k = 0.0000-1.0000 0.0000 (   588 PWs)   bands (ev):

     6.4363   6.5812   9.8949  10.1359  10.1359  14.4756  19.6046  23.7154
    23.7154  29.9692

          k = 0.6667-0.3333 1.0000 (   583 PWs)   bands (ev):

     7.3538   7.4286   8.0822   9.3256   9.4899  12.6760  22.5096  22.5350
    25.9164  33.7370

          k = 0.5000-0.1667 0.8333 (   584 PWs)   bands (ev):

     7.4145   7.4679   8.1208   9.0054   9.8900  16.5414  17.2837  23.1367
    23.7538  33.2482

          k =-0.3333-1.0000 0.0000 (   596 PWs)   bands (ev):

     6.9534   7.1345   8.6953   9.3779  10.1365  16.8518  19.7875  20.9313
    21.6492  33.3164

     the Fermi energy is    12.7068 ev

!    total energy              =    -355.29498610 Ry
     Harris-Foulkes estimate   =    -355.29498610 Ry
     estimated scf accuracy    <          2.6E-09 Ry

     total all-electron energy =    -10632.261040 Ry

     The total energy is the sum of the following terms:

     one-electron contribution =       1.57243077 Ry
     hartree contribution      =      14.66360200 Ry
     xc contribution           =     -22.35287416 Ry
     ewald contribution        =     -71.86118027 Ry
     one-center paw contrib.   =    -277.31636546 Ry
     smearing contrib. (-TS)   =      -0.00059898 Ry

     convergence has been achieved in   5 iterations

     Forces acting on atoms (cartesian axes, Ry/au):

     atom    1 type  1   force =     0.00000000    0.00000000    0.00000000

     Total force =     0.000000     Total SCF correction =     0.000000


     Computing stress (Cartesian axis) and pressure

          total   stress  (Ry/bohr**3)                   (kbar)     P=   53.71
   0.00036513   0.00000000   0.00000000         53.71      0.00      0.00
   0.00000000   0.00036513  -0.00000000          0.00     53.71     -0.00
   0.00000000  -0.00000000   0.00036513          0.00     -0.00     53.71


     Writing output data file Ag.save/

     init_run     :      0.31s CPU      0.32s WALL (       1 calls)
     electrons    :      1.07s CPU      1.20s WALL (       1 calls)
     forces       :      0.02s CPU      0.02s WALL (       1 calls)
     stress       :      0.07s CPU      0.07s WALL (       1 calls)

     Called by init_run:
     wfcinit      :      0.03s CPU      0.03s WALL (       1 calls)
     potinit      :      0.11s CPU      0.12s WALL (       1 calls)
     hinit0       :      0.14s CPU      0.14s WALL (       1 calls)

     Called by electrons:
     c_bands      :      0.48s CPU      0.52s WALL (       6 calls)
     sum_band     :      0.11s CPU      0.11s WALL (       6 calls)
     v_of_rho     :      0.02s CPU      0.02s WALL (       6 calls)
     newd         :      0.03s CPU      0.03s WALL (       6 calls)
     PAW_pot      :      0.55s CPU      0.63s WALL (       6 calls)
     mix_rho      :      0.00s CPU      0.00s WALL (       6 calls)

     Called by c_bands:
     init_us_2    :      0.02s CPU      0.02s WALL (     240 calls)
     cegterg      :      0.45s CPU      0.50s WALL (      96 calls)

     Called by sum_band:
     sum_band:bec :      0.00s CPU      0.00s WALL (      96 calls)
     addusdens    :      0.03s CPU      0.03s WALL (       6 calls)

     Called by *egterg:
     h_psi        :      0.34s CPU      0.38s WALL (     378 calls)
     s_psi        :      0.01s CPU      0.01s WALL (     378 calls)
     g_psi        :      0.00s CPU      0.00s WALL (     266 calls)
     cdiaghg      :      0.07s CPU      0.07s WALL (     346 calls)

     Called by h_psi:
     h_psi:pot    :      0.34s CPU      0.37s WALL (     378 calls)
     h_psi:calbec :      0.02s CPU      0.02s WALL (     378 calls)
     vloc_psi     :      0.31s CPU      0.34s WALL (     378 calls)
     add_vuspsi   :      0.01s CPU      0.01s WALL (     378 calls)

     General routines
     calbec       :      0.03s CPU      0.03s WALL (     554 calls)
     fft          :      0.02s CPU      0.02s WALL (      93 calls)
     ffts         :      0.00s CPU      0.00s WALL (       6 calls)
     fftw         :      0.34s CPU      0.37s WALL (    6042 calls)

     Parallel routines
     fft_scatt_xy :      0.03s CPU      0.04s WALL (    6141 calls)
     fft_scatt_yz :      0.10s CPU      0.11s WALL (    6141 calls)

     PWSCF        :     2.30s CPU         2.49s WALL


   This run was terminated on:   0:19:26  27Mar2024            

=------------------------------------------------------------------------------=
   JOB DONE.
=------------------------------------------------------------------------------=
