
     Program PWSCF v.6.3MaX starts on 27Mar2024 at  0: 7:14 

     This program is part of the open-source Quantum ESPRESSO suite
     for quantum simulation of materials; please cite
         "P. Giannozzi et al., J. Phys.:Condens. Matter 21 395502 (2009);
         "P. Giannozzi et al., J. Phys.:Condens. Matter 29 465901 (2017);
          URL http://www.quantum-espresso.org", 
     in publications or presentations arising from this work. More details at
     http://www.quantum-espresso.org/quote

     Parallel version (MPI), running on     5 processors

     MPI processes distributed on     1 nodes
     R & G space division:  proc/nbgrp/npool/nimage =       5
     Waiting for input...
     Reading input from standard input

     Current dimensions of program PWSCF are:
     Max number of different atomic species (ntypx) = 10
     Max number of k-points (npk) =  40000
     Max angular momentum in pseudopotentials (lmaxx) =  3

     Subspace diagonalization in iterative solution of the eigenvalue problem:
     a serial algorithm will be used


     Parallelization info
     --------------------
     sticks:   dense  smooth     PW     G-vecs:    dense   smooth      PW
     Min          24      24     11                  178      178      51
     Max          25      25     11                  181      181      52
     Sum         121     121     55                  893      893     259



     bravais-lattice index     =            2
     lattice parameter (alat)  =       7.7200  a.u.
     unit-cell volume          =     115.0249 (a.u.)^3
     number of atoms/cell      =            1
     number of atomic types    =            1
     number of electrons       =        11.00
     number of Kohn-Sham states=           10
     kinetic-energy cutoff     =      15.0000  Ry
     charge density cutoff     =      60.0000  Ry
     convergence threshold     =      1.0E-08
     mixing beta               =       0.7000
     number of iterations used =            8  plain     mixing
     Exchange-correlation      = PBESOL ( 1  4 10  8 0 0)

     celldm(1)=   7.720000  celldm(2)=   0.000000  celldm(3)=   0.000000
     celldm(4)=   0.000000  celldm(5)=   0.000000  celldm(6)=   0.000000

     crystal axes: (cart. coord. in units of alat)
               a(1) = (  -0.500000   0.000000   0.500000 )  
               a(2) = (   0.000000   0.500000   0.500000 )  
               a(3) = (  -0.500000   0.500000   0.000000 )  

     reciprocal axes: (cart. coord. in units 2 pi/alat)
               b(1) = ( -1.000000 -1.000000  1.000000 )  
               b(2) = (  1.000000  1.000000  1.000000 )  
               b(3) = ( -1.000000  1.000000 -1.000000 )  


     PseudoPot. # 1 for Ag read from file:
     /home/lorenzo/pseudos/Ag/Ag.pbesol-n-rrkjus_psl.1.0.0.UPF
     MD5 check sum: 3b43e8aa747a56f565f44d11355b8b45
     Pseudo is Ultrasoft + core correction, Zval = 11.0
     Generated using "atomic" code by A. Dal Corso v.6.2.2
     Using radial grid of 1237 points,  6 beta functions with: 
                l(1) =   0
                l(2) =   0
                l(3) =   1
                l(4) =   1
                l(5) =   2
                l(6) =   2
     Q(r) pseudized with 0 coefficients 


     atomic species   valence    mass     pseudopotential
        Ag            11.00   107.86820     Ag( 1.00)

     48 Sym. Ops., with inversion, found



   Cartesian axes

     site n.     atom                  positions (alat units)
         1           Ag  tau(   1) = (   0.0000000   0.0000000   0.0000000  )

     number of k points=    16  gaussian smearing, width (Ry)=  0.0100
                       cart. coord. in units 2pi/alat
        k(    1) = (   0.0000000   0.0000000   0.0000000), wk =   0.0092593
        k(    2) = (  -0.1666667   0.1666667  -0.1666667), wk =   0.0740741
        k(    3) = (  -0.3333333   0.3333333  -0.3333333), wk =   0.0740741
        k(    4) = (   0.5000000  -0.5000000   0.5000000), wk =   0.0370370
        k(    5) = (   0.0000000   0.3333333   0.0000000), wk =   0.0555556
        k(    6) = (  -0.1666667   0.5000000  -0.1666667), wk =   0.2222222
        k(    7) = (   0.6666667  -0.3333333   0.6666667), wk =   0.2222222
        k(    8) = (   0.5000000  -0.1666667   0.5000000), wk =   0.2222222
        k(    9) = (   0.3333333   0.0000000   0.3333333), wk =   0.1111111
        k(   10) = (   0.0000000   0.6666667   0.0000000), wk =   0.0555556
        k(   11) = (   0.8333333  -0.1666667   0.8333333), wk =   0.2222222
        k(   12) = (   0.6666667  -0.0000000   0.6666667), wk =   0.1111111
        k(   13) = (   0.0000000  -1.0000000   0.0000000), wk =   0.0277778
        k(   14) = (   0.6666667  -0.3333333   1.0000000), wk =   0.2222222
        k(   15) = (   0.5000000  -0.1666667   0.8333333), wk =   0.2222222
        k(   16) = (  -0.3333333  -1.0000000   0.0000000), wk =   0.1111111

     Dense  grid:      893 G-vectors     FFT dimensions: (  15,  15,  15)

     Estimated max dynamical RAM per process >       1.50 MB

     Estimated total dynamical RAM >       7.52 MB

     Check: negative/imaginary core charge=   -0.000001    0.000000

     Initial potential from superposition of free atoms

     starting charge   10.99964, renormalised to   11.00000
     Starting wfcs are    9 randomized atomic wfcs +    1 random wfcs

     total cpu time spent up to now is        0.8 secs

     Self-consistent Calculation

     iteration #  1     ecut=    15.00 Ry     beta= 0.70
     Davidson diagonalization with overlap
     ethr =  1.00E-02,  avg # of iterations =  4.9

     total cpu time spent up to now is        0.9 secs

     total energy              =     -77.58820902 Ry
     Harris-Foulkes estimate   =     -80.31797524 Ry
     estimated scf accuracy    <       3.47394975 Ry

     iteration #  2     ecut=    15.00 Ry     beta= 0.70
     Davidson diagonalization with overlap
     ethr =  1.00E-02,  avg # of iterations =  2.6

     total cpu time spent up to now is        1.0 secs

     total energy              =     -78.75749147 Ry
     Harris-Foulkes estimate   =     -79.18352300 Ry
     estimated scf accuracy    <       0.80906838 Ry

     iteration #  3     ecut=    15.00 Ry     beta= 0.70
     Davidson diagonalization with overlap
     ethr =  7.36E-03,  avg # of iterations =  1.2

     total cpu time spent up to now is        1.0 secs

     total energy              =     -78.85231691 Ry
     Harris-Foulkes estimate   =     -78.86225194 Ry
     estimated scf accuracy    <       0.02703081 Ry

     iteration #  4     ecut=    15.00 Ry     beta= 0.70
     Davidson diagonalization with overlap
     ethr =  2.46E-04,  avg # of iterations =  2.9

     total cpu time spent up to now is        1.1 secs

     total energy              =     -78.85930450 Ry
     Harris-Foulkes estimate   =     -78.86086131 Ry
     estimated scf accuracy    <       0.00384485 Ry

     iteration #  5     ecut=    15.00 Ry     beta= 0.70
     Davidson diagonalization with overlap
     ethr =  3.50E-05,  avg # of iterations =  1.0

     total cpu time spent up to now is        1.2 secs

     total energy              =     -78.85951029 Ry
     Harris-Foulkes estimate   =     -78.85963366 Ry
     estimated scf accuracy    <       0.00031140 Ry

     iteration #  6     ecut=    15.00 Ry     beta= 0.70
     Davidson diagonalization with overlap
     ethr =  2.83E-06,  avg # of iterations =  2.1

     total cpu time spent up to now is        1.2 secs

     total energy              =     -78.85955169 Ry
     Harris-Foulkes estimate   =     -78.85955705 Ry
     estimated scf accuracy    <       0.00001163 Ry

     iteration #  7     ecut=    15.00 Ry     beta= 0.70
     Davidson diagonalization with overlap
     ethr =  1.06E-07,  avg # of iterations =  2.0

     total cpu time spent up to now is        1.2 secs

     total energy              =     -78.85955414 Ry
     Harris-Foulkes estimate   =     -78.85955415 Ry
     estimated scf accuracy    <       0.00000002 Ry

     iteration #  8     ecut=    15.00 Ry     beta= 0.70
     Davidson diagonalization with overlap
     ethr =  2.21E-10,  avg # of iterations =  3.4

     total cpu time spent up to now is        1.3 secs

     End of self-consistent calculation

          k = 0.0000 0.0000 0.0000 (   113 PWs)   bands (ev):

     4.4818   8.4081   8.4081   8.4081   9.3327   9.3327  30.8769  32.0639
    32.0639  32.0639

          k =-0.1667 0.1667-0.1667 (   116 PWs)   bands (ev):

     5.2243   7.0735   8.6819   8.6819   9.0669   9.0669  26.8843  31.5539
    31.9202  31.9202

          k =-0.3333 0.3333-0.3333 (   111 PWs)   bands (ev):

     6.4479   8.0075   8.0075   9.3224  11.1862  11.1862  20.2011  30.3122
    30.3122  30.6692

          k = 0.5000-0.5000 0.5000 (   108 PWs)   bands (ev):

     6.4858   8.9094   8.9094  11.4524  11.4524  12.1201  15.6887  29.2615
    29.2615  29.8555

          k = 0.0000 0.3333 0.0000 (   113 PWs)   bands (ev):

     5.5540   7.8873   8.5574   8.5574   9.7306  10.0864  29.2460  29.2460
    30.1698  31.5970

          k =-0.1667 0.5000-0.1667 (   115 PWs)   bands (ev):

     6.2179   6.9821   7.9748   8.7237  10.4767  10.9124  22.5981  27.3748
    28.8341  30.8388

          k = 0.6667-0.3333 0.6667 (   115 PWs)   bands (ev):

     6.6714   6.8169   8.3729   8.9610  10.5913  13.3708  16.6101  25.8488
    27.2652  30.3503

          k = 0.5000-0.1667 0.5000 (   115 PWs)   bands (ev):

     6.5431   7.1923   8.3463   8.9625   9.9324  12.5432  18.6567  24.5513
    29.5436  30.8258

          k = 0.3333 0.0000 0.3333 (   111 PWs)   bands (ev):

     6.4641   7.1472   8.3067   9.4899  10.2923  11.4991  24.6261  25.9128
    32.9119  34.1686

          k = 0.0000 0.6667 0.0000 (   113 PWs)   bands (ev):

     5.5174   6.0782   9.8699  10.4125  11.1467  11.1467  23.7993  24.7528
    24.7528  30.0694

          k = 0.8333-0.1667 0.8333 (   108 PWs)   bands (ev):

     6.0492   7.6098  10.2547  10.7902  11.5931  14.1376  19.1517  22.0550
    24.1678  30.9785

          k = 0.6667-0.0000 0.6667 (   116 PWs)   bands (ev):

     5.9005   7.8933   8.5339   8.7468   9.5637  15.0920  18.5830  19.5125
    26.1147  30.8365

          k = 0.0000-1.0000 0.0000 (   116 PWs)   bands (ev):

     4.0013   6.0241  10.4050  10.8980  10.8980  13.8900  18.0159  22.6454
    22.6454  30.3623

          k = 0.6667-0.3333 1.0000 (   110 PWs)   bands (ev):

     6.8803   7.4841   7.9273  10.8683  11.1322  12.8491  21.0708  22.2651
    25.7310  33.3551

          k = 0.5000-0.1667 0.8333 (   112 PWs)   bands (ev):

     6.8281   7.3002   8.4840   9.3663  11.0818  16.1171  16.6295  21.8576
    23.8573  33.3560

          k =-0.3333-1.0000 0.0000 (   110 PWs)   bands (ev):

     6.7029   6.8953   9.1731  10.6301  11.5487  16.6136  17.9498  20.3616
    21.7613  34.4964

     the Fermi energy is    12.8798 ev

!    total energy              =     -78.85955420 Ry
     Harris-Foulkes estimate   =     -78.85955421 Ry
     estimated scf accuracy    <          8.5E-09 Ry

     The total energy is the sum of the following terms:

     one-electron contribution =       4.28890645 Ry
     hartree contribution      =       9.56851969 Ry
     xc contribution           =     -20.85520301 Ry
     ewald contribution        =     -71.86118021 Ry
     smearing contrib. (-TS)   =      -0.00059711 Ry

     convergence has been achieved in   8 iterations

     Forces acting on atoms (cartesian axes, Ry/au):

     atom    1 type  1   force =     0.00000000    0.00000000    0.00000000

     Total force =     0.000000     Total SCF correction =     0.000000


     Computing stress (Cartesian axis) and pressure

          total   stress  (Ry/bohr**3)                   (kbar)     P=********
  -0.09562375  -0.00000000  -0.00000000     -14066.74     -0.00     -0.00
  -0.00000000  -0.09562375   0.00000000         -0.00 -14066.74      0.00
  -0.00000000   0.00000000  -0.09562375         -0.00      0.00 -14066.74


     Writing output data file Ag.save/

     init_run     :      0.09s CPU      0.09s WALL (       1 calls)
     electrons    :      0.43s CPU      0.50s WALL (       1 calls)
     forces       :      0.01s CPU      0.02s WALL (       1 calls)
     stress       :      0.02s CPU      0.02s WALL (       1 calls)

     Called by init_run:
     wfcinit      :      0.01s CPU      0.01s WALL (       1 calls)
     potinit      :      0.00s CPU      0.00s WALL (       1 calls)
     hinit0       :      0.07s CPU      0.07s WALL (       1 calls)

     Called by electrons:
     c_bands      :      0.36s CPU      0.41s WALL (       8 calls)
     sum_band     :      0.05s CPU      0.06s WALL (       8 calls)
     v_of_rho     :      0.01s CPU      0.01s WALL (       9 calls)
     newd         :      0.01s CPU      0.01s WALL (       9 calls)
     mix_rho      :      0.00s CPU      0.00s WALL (       8 calls)

     Called by c_bands:
     init_us_2    :      0.01s CPU      0.01s WALL (     304 calls)
     cegterg      :      0.35s CPU      0.39s WALL (     128 calls)

     Called by sum_band:
     sum_band:bec :      0.00s CPU      0.00s WALL (     128 calls)
     addusdens    :      0.01s CPU      0.01s WALL (       8 calls)

     Called by *egterg:
     h_psi        :      0.22s CPU      0.24s WALL (     464 calls)
     s_psi        :      0.01s CPU      0.01s WALL (     464 calls)
     g_psi        :      0.00s CPU      0.00s WALL (     320 calls)
     cdiaghg      :      0.10s CPU      0.11s WALL (     448 calls)

     Called by h_psi:
     h_psi:pot    :      0.21s CPU      0.24s WALL (     464 calls)
     h_psi:calbec :      0.01s CPU      0.01s WALL (     464 calls)
     vloc_psi     :      0.19s CPU      0.22s WALL (     464 calls)
     add_vuspsi   :      0.01s CPU      0.01s WALL (     464 calls)

     General routines
     calbec       :      0.02s CPU      0.02s WALL (     672 calls)
     fft          :      0.00s CPU      0.00s WALL (     125 calls)
     ffts         :      0.00s CPU      0.00s WALL (       8 calls)
     fftw         :      0.20s CPU      0.23s WALL (    8034 calls)

     Parallel routines
     fft_scatt_xy :      0.02s CPU      0.03s WALL (    8167 calls)
     fft_scatt_yz :      0.07s CPU      0.08s WALL (    8167 calls)

     PWSCF        :     1.27s CPU         1.39s WALL


   This run was terminated on:   0: 7:15  27Mar2024            

=------------------------------------------------------------------------------=
   JOB DONE.
=------------------------------------------------------------------------------=
