
     Program PWSCF v.6.3MaX starts on 27Mar2024 at  0: 8:54 

     This program is part of the open-source Quantum ESPRESSO suite
     for quantum simulation of materials; please cite
         "P. Giannozzi et al., J. Phys.:Condens. Matter 21 395502 (2009);
         "P. Giannozzi et al., J. Phys.:Condens. Matter 29 465901 (2017);
          URL http://www.quantum-espresso.org", 
     in publications or presentations arising from this work. More details at
     http://www.quantum-espresso.org/quote

     Parallel version (MPI), running on     5 processors

     MPI processes distributed on     1 nodes
     R & G space division:  proc/nbgrp/npool/nimage =       5
     Waiting for input...
     Reading input from standard input

     Current dimensions of program PWSCF are:
     Max number of different atomic species (ntypx) = 10
     Max number of k-points (npk) =  40000
     Max angular momentum in pseudopotentials (lmaxx) =  3
               file Ag.pbesol-n-kjpaw_psl.1.0.0.UPF: wavefunction(s)  5S 5P renormalized

     Subspace diagonalization in iterative solution of the eigenvalue problem:
     a serial algorithm will be used


     Parallelization info
     --------------------
     sticks:   dense  smooth     PW     G-vecs:    dense   smooth      PW
     Min          32      32     12                  280      280      66
     Max          33      33     13                  283      283      67
     Sum         163     163     61                 1411     1411     331



     bravais-lattice index     =            2
     lattice parameter (alat)  =       7.7200  a.u.
     unit-cell volume          =     115.0249 (a.u.)^3
     number of atoms/cell      =            1
     number of atomic types    =            1
     number of electrons       =        11.00
     number of Kohn-Sham states=           10
     kinetic-energy cutoff     =      20.0000  Ry
     charge density cutoff     =      80.0000  Ry
     convergence threshold     =      1.0E-08
     mixing beta               =       0.7000
     number of iterations used =            8  plain     mixing
     Exchange-correlation      = SLA PW PSX PSC ( 1  4 10  8 0 0)

     celldm(1)=   7.720000  celldm(2)=   0.000000  celldm(3)=   0.000000
     celldm(4)=   0.000000  celldm(5)=   0.000000  celldm(6)=   0.000000

     crystal axes: (cart. coord. in units of alat)
               a(1) = (  -0.500000   0.000000   0.500000 )  
               a(2) = (   0.000000   0.500000   0.500000 )  
               a(3) = (  -0.500000   0.500000   0.000000 )  

     reciprocal axes: (cart. coord. in units 2 pi/alat)
               b(1) = ( -1.000000 -1.000000  1.000000 )  
               b(2) = (  1.000000  1.000000  1.000000 )  
               b(3) = ( -1.000000  1.000000 -1.000000 )  


     PseudoPot. # 1 for Ag read from file:
     /home/lorenzo/pseudos/Ag/Ag.pbesol-n-kjpaw_psl.1.0.0.UPF
     MD5 check sum: 3b245e14fa22881b2ac493bfd23f605f
     Pseudo is Projector augmented-wave + core cor, Zval = 11.0
     Generated using "atomic" code by A. Dal Corso v.6.2.2
     Shape of augmentation charge: PSQ
     Using radial grid of 1237 points,  6 beta functions with: 
                l(1) =   0
                l(2) =   0
                l(3) =   1
                l(4) =   1
                l(5) =   2
                l(6) =   2
     Q(r) pseudized with 0 coefficients 


     atomic species   valence    mass     pseudopotential
        Ag            11.00   107.86820     Ag( 1.00)

     48 Sym. Ops., with inversion, found



   Cartesian axes

     site n.     atom                  positions (alat units)
         1           Ag  tau(   1) = (   0.0000000   0.0000000   0.0000000  )

     number of k points=    10  gaussian smearing, width (Ry)=  0.0100
                       cart. coord. in units 2pi/alat
        k(    1) = (   0.0000000   0.0000000   0.0000000), wk =   0.0160000
        k(    2) = (  -0.2000000   0.2000000  -0.2000000), wk =   0.1280000
        k(    3) = (  -0.4000000   0.4000000  -0.4000000), wk =   0.1280000
        k(    4) = (   0.0000000   0.4000000   0.0000000), wk =   0.0960000
        k(    5) = (  -0.2000000   0.6000000  -0.2000000), wk =   0.3840000
        k(    6) = (   0.6000000  -0.2000000   0.6000000), wk =   0.3840000
        k(    7) = (   0.4000000   0.0000000   0.4000000), wk =   0.1920000
        k(    8) = (   0.0000000   0.8000000   0.0000000), wk =   0.0960000
        k(    9) = (   0.8000000   0.0000000   0.8000000), wk =   0.1920000
        k(   10) = (   0.6000000  -0.2000000   1.0000000), wk =   0.3840000

     Dense  grid:     1411 G-vectors     FFT dimensions: (  15,  15,  15)

     Estimated max dynamical RAM per process >       1.98 MB

     Estimated total dynamical RAM >       9.89 MB

     Initial potential from superposition of free atoms

     starting charge   10.99964, renormalised to   11.00000
     Starting wfcs are    9 randomized atomic wfcs +    1 random wfcs
     Checking if some PAW data can be deallocated... 

     total cpu time spent up to now is        1.0 secs

     Self-consistent Calculation

     iteration #  1     ecut=    20.00 Ry     beta= 0.70
     Davidson diagonalization with overlap
     ethr =  1.00E-02,  avg # of iterations =  4.9

     total cpu time spent up to now is        1.2 secs

     total energy              =    -348.17925621 Ry
     Harris-Foulkes estimate   =    -348.73486110 Ry
     estimated scf accuracy    <       0.68410808 Ry

     iteration #  2     ecut=    20.00 Ry     beta= 0.70
     Davidson diagonalization with overlap
     ethr =  6.22E-03,  avg # of iterations =  2.0

     total cpu time spent up to now is        1.3 secs

     total energy              =    -348.43213332 Ry
     Harris-Foulkes estimate   =    -348.58685838 Ry
     estimated scf accuracy    <       0.31618979 Ry

     iteration #  3     ecut=    20.00 Ry     beta= 0.70
     Davidson diagonalization with overlap
     ethr =  2.87E-03,  avg # of iterations =  1.3

     total cpu time spent up to now is        1.5 secs

     total energy              =    -348.47401161 Ry
     Harris-Foulkes estimate   =    -348.47702745 Ry
     estimated scf accuracy    <       0.00710239 Ry

     iteration #  4     ecut=    20.00 Ry     beta= 0.70
     Davidson diagonalization with overlap
     ethr =  6.46E-05,  avg # of iterations =  3.0

     total cpu time spent up to now is        1.6 secs

     total energy              =    -348.47634498 Ry
     Harris-Foulkes estimate   =    -348.47665383 Ry
     estimated scf accuracy    <       0.00102193 Ry

     iteration #  5     ecut=    20.00 Ry     beta= 0.70
     Davidson diagonalization with overlap
     ethr =  9.29E-06,  avg # of iterations =  1.0

     total cpu time spent up to now is        1.8 secs

     total energy              =    -348.47629079 Ry
     Harris-Foulkes estimate   =    -348.47639328 Ry
     estimated scf accuracy    <       0.00023256 Ry

     iteration #  6     ecut=    20.00 Ry     beta= 0.70
     Davidson diagonalization with overlap
     ethr =  2.11E-06,  avg # of iterations =  1.6

     total cpu time spent up to now is        1.9 secs

     total energy              =    -348.47632689 Ry
     Harris-Foulkes estimate   =    -348.47632720 Ry
     estimated scf accuracy    <       0.00000091 Ry

     iteration #  7     ecut=    20.00 Ry     beta= 0.70
     Davidson diagonalization with overlap
     ethr =  8.26E-09,  avg # of iterations =  3.1

     total cpu time spent up to now is        2.1 secs

     total energy              =    -348.47632726 Ry
     Harris-Foulkes estimate   =    -348.47632727 Ry
     estimated scf accuracy    <       0.00000004 Ry

     iteration #  8     ecut=    20.00 Ry     beta= 0.70
     Davidson diagonalization with overlap
     ethr =  3.28E-10,  avg # of iterations =  1.9

     total cpu time spent up to now is        2.2 secs

     End of self-consistent calculation

          k = 0.0000 0.0000 0.0000 (   169 PWs)   bands (ev):

     4.8686   7.9632   7.9632   7.9632   8.5696   8.5696  29.9313  32.8149
    32.8149  32.8149

          k =-0.2000 0.2000-0.2000 (   171 PWs)   bands (ev):

     5.9424   8.0810   8.0983   8.0983   8.6293   8.6293  26.0623  30.6495
    32.6781  32.6781

          k =-0.4000 0.4000-0.4000 (   174 PWs)   bands (ev):

     6.3297   8.0614   8.0614   9.1532   9.1532  10.6920  18.3267  29.2459
    30.9646  30.9646

          k = 0.0000 0.4000 0.0000 (   169 PWs)   bands (ev):

     6.3166   7.4697   8.5043   8.5043   8.7487   9.0141  28.8383  28.8383
    30.2322  30.3643

          k =-0.2000 0.6000-0.2000 (   171 PWs)   bands (ev):

     6.8269   7.6022   8.2978   8.6031   9.8404  10.9808  21.3595  27.1189
    27.2177  30.1528

          k = 0.6000-0.2000 0.6000 (   176 PWs)   bands (ev):

     6.7952   7.5074   8.2349   8.3679   9.0700  14.1923  16.9688  24.3475
    28.5691  29.8669

          k = 0.4000 0.0000 0.4000 (   170 PWs)   bands (ev):

     6.9466   7.6309   8.1657   8.6252   9.1832  10.0708  23.8914  24.5062
    31.5112  33.1645

          k = 0.0000 0.8000 0.0000 (   170 PWs)   bands (ev):

     6.5411   6.9258   9.3822   9.9103   9.9103  12.2472  22.0739  24.0904
    24.0904  29.9889

          k = 0.8000 0.0000 0.8000 (   180 PWs)   bands (ev):

     6.3712   6.8282   8.6928   8.9541   8.9801  16.0608  18.9410  19.8301
    24.7112  30.2725

          k = 0.6000-0.2000 1.0000 (   171 PWs)   bands (ev):

     7.1024   7.5426   7.9823   9.4034   9.5736  14.8185  20.6468  20.8675
    23.4841  34.6696

     the Fermi energy is    12.2674 ev

!    total energy              =    -348.47632727 Ry
     Harris-Foulkes estimate   =    -348.47632727 Ry
     estimated scf accuracy    <          3.3E-09 Ry

     total all-electron energy =    -10625.486736 Ry

     The total energy is the sum of the following terms:

     one-electron contribution =       3.99694880 Ry
     hartree contribution      =      12.78098840 Ry
     xc contribution           =     -21.73808413 Ry
     ewald contribution        =     -71.86118020 Ry
     one-center paw contrib.   =    -271.65473525 Ry
     smearing contrib. (-TS)   =      -0.00026488 Ry

     convergence has been achieved in   8 iterations

     Forces acting on atoms (cartesian axes, Ry/au):

     atom    1 type  1   force =     0.00000000    0.00000000    0.00000000

     Total force =     0.000000     Total SCF correction =     0.000000


     Computing stress (Cartesian axis) and pressure

          total   stress  (Ry/bohr**3)                   (kbar)     P=-7444.07
  -0.05060377  -0.00000000   0.00000000      -7444.07     -0.00      0.00
   0.00000000  -0.05060377   0.00000000          0.00  -7444.07      0.00
   0.00000000   0.00000000  -0.05060377          0.00      0.00  -7444.07


     Writing output data file Ag.save/

     init_run     :      0.20s CPU      0.22s WALL (       1 calls)
     electrons    :      1.07s CPU      1.21s WALL (       1 calls)
     forces       :      0.01s CPU      0.01s WALL (       1 calls)
     stress       :      0.02s CPU      0.02s WALL (       1 calls)

     Called by init_run:
     wfcinit      :      0.01s CPU      0.01s WALL (       1 calls)
     potinit      :      0.09s CPU      0.11s WALL (       1 calls)
     hinit0       :      0.09s CPU      0.09s WALL (       1 calls)

     Called by electrons:
     c_bands      :      0.20s CPU      0.22s WALL (       8 calls)
     sum_band     :      0.04s CPU      0.05s WALL (       8 calls)
     v_of_rho     :      0.01s CPU      0.01s WALL (       9 calls)
     newd         :      0.01s CPU      0.01s WALL (       9 calls)
     PAW_pot      :      0.90s CPU      1.01s WALL (       9 calls)
     mix_rho      :      0.00s CPU      0.00s WALL (       8 calls)

     Called by c_bands:
     init_us_2    :      0.01s CPU      0.01s WALL (     190 calls)
     cegterg      :      0.19s CPU      0.21s WALL (      80 calls)

     Called by sum_band:
     sum_band:bec :      0.00s CPU      0.00s WALL (      80 calls)
     addusdens    :      0.01s CPU      0.01s WALL (       8 calls)

     Called by *egterg:
     h_psi        :      0.12s CPU      0.13s WALL (     278 calls)
     s_psi        :      0.00s CPU      0.01s WALL (     278 calls)
     g_psi        :      0.00s CPU      0.00s WALL (     188 calls)
     cdiaghg      :      0.05s CPU      0.05s WALL (     268 calls)

     Called by h_psi:
     h_psi:pot    :      0.11s CPU      0.13s WALL (     278 calls)
     h_psi:calbec :      0.01s CPU      0.01s WALL (     278 calls)
     vloc_psi     :      0.10s CPU      0.11s WALL (     278 calls)
     add_vuspsi   :      0.00s CPU      0.00s WALL (     278 calls)

     General routines
     calbec       :      0.01s CPU      0.01s WALL (     408 calls)
     fft          :      0.01s CPU      0.01s WALL (     125 calls)
     ffts         :      0.00s CPU      0.00s WALL (       8 calls)
     fftw         :      0.11s CPU      0.12s WALL (    4928 calls)

     Parallel routines
     fft_scatt_xy :      0.01s CPU      0.01s WALL (    5061 calls)
     fft_scatt_yz :      0.05s CPU      0.05s WALL (    5061 calls)

     PWSCF        :     2.12s CPU         2.32s WALL


   This run was terminated on:   0: 8:56  27Mar2024            

=------------------------------------------------------------------------------=
   JOB DONE.
=------------------------------------------------------------------------------=
