
     Program PWSCF v.6.3MaX starts on 27Mar2024 at  0: 6:49 

     This program is part of the open-source Quantum ESPRESSO suite
     for quantum simulation of materials; please cite
         "P. Giannozzi et al., J. Phys.:Condens. Matter 21 395502 (2009);
         "P. Giannozzi et al., J. Phys.:Condens. Matter 29 465901 (2017);
          URL http://www.quantum-espresso.org", 
     in publications or presentations arising from this work. More details at
     http://www.quantum-espresso.org/quote

     Parallel version (MPI), running on     5 processors

     MPI processes distributed on     1 nodes
     R & G space division:  proc/nbgrp/npool/nimage =       5
     Waiting for input...
     Reading input from standard input

     Current dimensions of program PWSCF are:
     Max number of different atomic species (ntypx) = 10
     Max number of k-points (npk) =  40000
     Max angular momentum in pseudopotentials (lmaxx) =  3
               file Ag.pbe-n-kjpaw_psl.1.0.0.UPF: wavefunction(s)  5S 5P renormalized

     Subspace diagonalization in iterative solution of the eigenvalue problem:
     a serial algorithm will be used


     Parallelization info
     --------------------
     sticks:   dense  smooth     PW     G-vecs:    dense   smooth      PW
     Min          24      24      8                  178      178      36
     Max          25      25      9                  181      181      37
     Sum         121     121     43                  893      893     181



     bravais-lattice index     =            2
     lattice parameter (alat)  =       7.7200  a.u.
     unit-cell volume          =     115.0249 (a.u.)^3
     number of atoms/cell      =            1
     number of atomic types    =            1
     number of electrons       =        11.00
     number of Kohn-Sham states=           10
     kinetic-energy cutoff     =      15.0000  Ry
     charge density cutoff     =      60.0000  Ry
     convergence threshold     =      1.0E-08
     mixing beta               =       0.7000
     number of iterations used =            8  plain     mixing
     Exchange-correlation      = SLA PW PBX PBC ( 1  4  3  4 0 0)

     celldm(1)=   7.720000  celldm(2)=   0.000000  celldm(3)=   0.000000
     celldm(4)=   0.000000  celldm(5)=   0.000000  celldm(6)=   0.000000

     crystal axes: (cart. coord. in units of alat)
               a(1) = (  -0.500000   0.000000   0.500000 )  
               a(2) = (   0.000000   0.500000   0.500000 )  
               a(3) = (  -0.500000   0.500000   0.000000 )  

     reciprocal axes: (cart. coord. in units 2 pi/alat)
               b(1) = ( -1.000000 -1.000000  1.000000 )  
               b(2) = (  1.000000  1.000000  1.000000 )  
               b(3) = ( -1.000000  1.000000 -1.000000 )  


     PseudoPot. # 1 for Ag read from file:
     /home/lorenzo/pseudos/Ag/Ag.pbe-n-kjpaw_psl.1.0.0.UPF
     MD5 check sum: 51099775af2a3182a6a1caffb86952a3
     Pseudo is Projector augmented-wave + core cor, Zval = 11.0
     Generated using "atomic" code by A. Dal Corso v.6.2.2
     Shape of augmentation charge: PSQ
     Using radial grid of 1237 points,  6 beta functions with: 
                l(1) =   0
                l(2) =   0
                l(3) =   1
                l(4) =   1
                l(5) =   2
                l(6) =   2
     Q(r) pseudized with 0 coefficients 


     atomic species   valence    mass     pseudopotential
        Ag            11.00   107.86820     Ag( 1.00)

     48 Sym. Ops., with inversion, found



   Cartesian axes

     site n.     atom                  positions (alat units)
         1           Ag  tau(   1) = (   0.0000000   0.0000000   0.0000000  )

     number of k points=     8  gaussian smearing, width (Ry)=  0.0100
                       cart. coord. in units 2pi/alat
        k(    1) = (   0.0000000   0.0000000   0.0000000), wk =   0.0312500
        k(    2) = (  -0.2500000   0.2500000  -0.2500000), wk =   0.2500000
        k(    3) = (   0.5000000  -0.5000000   0.5000000), wk =   0.1250000
        k(    4) = (   0.0000000   0.5000000   0.0000000), wk =   0.1875000
        k(    5) = (   0.7500000  -0.2500000   0.7500000), wk =   0.7500000
        k(    6) = (   0.5000000   0.0000000   0.5000000), wk =   0.3750000
        k(    7) = (   0.0000000  -1.0000000   0.0000000), wk =   0.0937500
        k(    8) = (  -0.5000000  -1.0000000   0.0000000), wk =   0.1875000

     Dense  grid:      893 G-vectors     FFT dimensions: (  15,  15,  15)

     Estimated max dynamical RAM per process >       1.48 MB

     Estimated total dynamical RAM >       7.39 MB

     Check: negative/imaginary core charge=   -0.000001    0.000000

     Initial potential from superposition of free atoms

     starting charge   10.99960, renormalised to   11.00000
     Starting wfcs are    9 randomized atomic wfcs +    1 random wfcs
     Checking if some PAW data can be deallocated... 

     total cpu time spent up to now is        1.0 secs

     Self-consistent Calculation

     iteration #  1     ecut=    15.00 Ry     beta= 0.70
     Davidson diagonalization with overlap
     ethr =  1.00E-02,  avg # of iterations =  4.6

     total cpu time spent up to now is        1.2 secs

     total energy              =    -348.82224144 Ry
     Harris-Foulkes estimate   =    -351.42430460 Ry
     estimated scf accuracy    <       3.30237065 Ry

     iteration #  2     ecut=    15.00 Ry     beta= 0.70
     Davidson diagonalization with overlap
     ethr =  1.00E-02,  avg # of iterations =  2.1

     total cpu time spent up to now is        1.3 secs

     total energy              =    -349.85942455 Ry
     Harris-Foulkes estimate   =    -350.15918549 Ry
     estimated scf accuracy    <       0.63109265 Ry

     iteration #  3     ecut=    15.00 Ry     beta= 0.70
     Davidson diagonalization with overlap
     ethr =  5.74E-03,  avg # of iterations =  1.2

     total cpu time spent up to now is        1.5 secs

     total energy              =    -349.92301028 Ry
     Harris-Foulkes estimate   =    -349.93203425 Ry
     estimated scf accuracy    <       0.02320954 Ry

     iteration #  4     ecut=    15.00 Ry     beta= 0.70
     Davidson diagonalization with overlap
     ethr =  2.11E-04,  avg # of iterations =  2.5

     total cpu time spent up to now is        1.6 secs

     total energy              =    -349.92766566 Ry
     Harris-Foulkes estimate   =    -349.92841428 Ry
     estimated scf accuracy    <       0.00208266 Ry

     iteration #  5     ecut=    15.00 Ry     beta= 0.70
     Davidson diagonalization with overlap
     ethr =  1.89E-05,  avg # of iterations =  1.2

     total cpu time spent up to now is        1.7 secs

     total energy              =    -349.92770063 Ry
     Harris-Foulkes estimate   =    -349.92781264 Ry
     estimated scf accuracy    <       0.00024331 Ry

     iteration #  6     ecut=    15.00 Ry     beta= 0.70
     Davidson diagonalization with overlap
     ethr =  2.21E-06,  avg # of iterations =  2.4

     total cpu time spent up to now is        1.8 secs

     total energy              =    -349.92775329 Ry
     Harris-Foulkes estimate   =    -349.92775544 Ry
     estimated scf accuracy    <       0.00000333 Ry

     iteration #  7     ecut=    15.00 Ry     beta= 0.70
     Davidson diagonalization with overlap
     ethr =  3.03E-08,  avg # of iterations =  2.0

     total cpu time spent up to now is        2.0 secs

     total energy              =    -349.92775409 Ry
     Harris-Foulkes estimate   =    -349.92775409 Ry
     estimated scf accuracy    <       0.00000003 Ry

     iteration #  8     ecut=    15.00 Ry     beta= 0.70
     Davidson diagonalization with overlap
     ethr =  2.69E-10,  avg # of iterations =  2.4

     total cpu time spent up to now is        2.1 secs

     End of self-consistent calculation

          k = 0.0000 0.0000 0.0000 (   113 PWs)   bands (ev):

     4.9986   8.7683   8.7683   8.7683   9.6916   9.6916  31.0759  32.6758
    32.6758  32.6758

          k =-0.2500 0.2500-0.2500 (   113 PWs)   bands (ev):

     6.5946   8.1497   8.1497   9.3759  10.6072  10.6072  24.2676  31.7091
    31.8788  31.8788

          k = 0.5000-0.5000 0.5000 (   108 PWs)   bands (ev):

     6.8847   9.2728   9.2728  11.8308  11.8308  12.5659  16.2993  29.9528
    29.9528  30.0789

          k = 0.0000 0.5000 0.0000 (   125 PWs)   bands (ev):

     5.8927   6.3516   8.1081   8.1081   8.4248   8.9957  27.2350  27.2350
    28.5464  30.6192

          k = 0.7500-0.2500 0.7500 (   110 PWs)   bands (ev):

     7.0542   8.2061   9.0913  10.2648  11.8059  14.3779  18.6833  24.2117
    26.2954  31.1540

          k = 0.5000 0.0000 0.5000 (   117 PWs)   bands (ev):

     7.0451   7.7208   8.4036   8.8861   9.3174  12.8422  21.5531  22.4003
    30.2907  31.4931

          k = 0.0000-1.0000 0.0000 (   116 PWs)   bands (ev):

     4.3007   6.3687  10.7677  11.2666  11.2666  14.3709  18.7023  23.2090
    23.2090  30.7083

          k =-0.5000-1.0000 0.0000 (   108 PWs)   bands (ev):

     8.0646   8.6888   8.6888   9.7222  12.1902  18.4194  19.1081  19.1081
    22.3362  37.1216

     the Fermi energy is    14.2052 ev

!    total energy              =    -349.92775410 Ry
     Harris-Foulkes estimate   =    -349.92775410 Ry
     estimated scf accuracy    <          3.0E-09 Ry

     total all-electron energy =    -10626.893808 Ry

     The total energy is the sum of the following terms:

     one-electron contribution =       8.73617935 Ry
     hartree contribution      =       9.60280948 Ry
     xc contribution           =     -21.04450345 Ry
     ewald contribution        =     -71.86118021 Ry
     one-center paw contrib.   =    -275.36057652 Ry
     smearing contrib. (-TS)   =      -0.00048274 Ry

     convergence has been achieved in   8 iterations

     Forces acting on atoms (cartesian axes, Ry/au):

     atom    1 type  1   force =     0.00000000    0.00000000    0.00000000

     Total force =     0.000000     Total SCF correction =     0.000000


     Computing stress (Cartesian axis) and pressure

          total   stress  (Ry/bohr**3)                   (kbar)     P=********
  -0.09630950   0.00000000   0.00000000     -14167.61      0.00      0.00
   0.00000000  -0.09630950  -0.00000000          0.00 -14167.61     -0.00
   0.00000000  -0.00000000  -0.09630950          0.00     -0.00 -14167.61


     Writing output data file Ag.save/

     init_run     :      0.20s CPU      0.22s WALL (       1 calls)
     electrons    :      0.96s CPU      1.10s WALL (       1 calls)
     forces       :      0.01s CPU      0.01s WALL (       1 calls)
     stress       :      0.01s CPU      0.01s WALL (       1 calls)

     Called by init_run:
     wfcinit      :      0.01s CPU      0.01s WALL (       1 calls)
     potinit      :      0.10s CPU      0.12s WALL (       1 calls)
     hinit0       :      0.07s CPU      0.08s WALL (       1 calls)

     Called by electrons:
     c_bands      :      0.15s CPU      0.17s WALL (       8 calls)
     sum_band     :      0.03s CPU      0.04s WALL (       8 calls)
     v_of_rho     :      0.01s CPU      0.01s WALL (       9 calls)
     newd         :      0.01s CPU      0.01s WALL (       9 calls)
     PAW_pot      :      0.86s CPU      0.97s WALL (       9 calls)
     mix_rho      :      0.00s CPU      0.00s WALL (       8 calls)

     Called by c_bands:
     init_us_2    :      0.00s CPU      0.00s WALL (     152 calls)
     cegterg      :      0.14s CPU      0.16s WALL (      64 calls)

     Called by sum_band:
     sum_band:bec :      0.00s CPU      0.00s WALL (      64 calls)
     addusdens    :      0.01s CPU      0.01s WALL (       8 calls)

     Called by *egterg:
     h_psi        :      0.09s CPU      0.10s WALL (     220 calls)
     s_psi        :      0.00s CPU      0.00s WALL (     220 calls)
     g_psi        :      0.00s CPU      0.00s WALL (     148 calls)
     cdiaghg      :      0.04s CPU      0.04s WALL (     212 calls)

     Called by h_psi:
     h_psi:pot    :      0.08s CPU      0.10s WALL (     220 calls)
     h_psi:calbec :      0.01s CPU      0.01s WALL (     220 calls)
     vloc_psi     :      0.08s CPU      0.09s WALL (     220 calls)
     add_vuspsi   :      0.00s CPU      0.00s WALL (     220 calls)

     General routines
     calbec       :      0.01s CPU      0.01s WALL (     324 calls)
     fft          :      0.01s CPU      0.01s WALL (     125 calls)
     ffts         :      0.00s CPU      0.00s WALL (       8 calls)
     fftw         :      0.08s CPU      0.09s WALL (    3942 calls)

     Parallel routines
     fft_scatt_xy :      0.01s CPU      0.01s WALL (    4075 calls)
     fft_scatt_yz :      0.04s CPU      0.04s WALL (    4075 calls)

     PWSCF        :     1.98s CPU         2.19s WALL


   This run was terminated on:   0: 6:51  27Mar2024            

=------------------------------------------------------------------------------=
   JOB DONE.
=------------------------------------------------------------------------------=
