
     Program PWSCF v.6.3MaX starts on 27Mar2024 at  0: 9:12 

     This program is part of the open-source Quantum ESPRESSO suite
     for quantum simulation of materials; please cite
         "P. Giannozzi et al., J. Phys.:Condens. Matter 21 395502 (2009);
         "P. Giannozzi et al., J. Phys.:Condens. Matter 29 465901 (2017);
          URL http://www.quantum-espresso.org", 
     in publications or presentations arising from this work. More details at
     http://www.quantum-espresso.org/quote

     Parallel version (MPI), running on     5 processors

     MPI processes distributed on     1 nodes
     R & G space division:  proc/nbgrp/npool/nimage =       5
     Waiting for input...
     Reading input from standard input

     Current dimensions of program PWSCF are:
     Max number of different atomic species (ntypx) = 10
     Max number of k-points (npk) =  40000
     Max angular momentum in pseudopotentials (lmaxx) =  3
               file Ag.pbesol-n-kjpaw_psl.1.0.0.UPF: wavefunction(s)  5S 5P renormalized

     Subspace diagonalization in iterative solution of the eigenvalue problem:
     a serial algorithm will be used


     Parallelization info
     --------------------
     sticks:   dense  smooth     PW     G-vecs:    dense   smooth      PW
     Min          32      32     12                  280      280      66
     Max          33      33     13                  283      283      67
     Sum         163     163     61                 1411     1411     331



     bravais-lattice index     =            2
     lattice parameter (alat)  =       7.7200  a.u.
     unit-cell volume          =     115.0249 (a.u.)^3
     number of atoms/cell      =            1
     number of atomic types    =            1
     number of electrons       =        11.00
     number of Kohn-Sham states=           10
     kinetic-energy cutoff     =      20.0000  Ry
     charge density cutoff     =      80.0000  Ry
     convergence threshold     =      1.0E-08
     mixing beta               =       0.7000
     number of iterations used =            8  plain     mixing
     Exchange-correlation      = SLA PW PSX PSC ( 1  4 10  8 0 0)

     celldm(1)=   7.720000  celldm(2)=   0.000000  celldm(3)=   0.000000
     celldm(4)=   0.000000  celldm(5)=   0.000000  celldm(6)=   0.000000

     crystal axes: (cart. coord. in units of alat)
               a(1) = (  -0.500000   0.000000   0.500000 )  
               a(2) = (   0.000000   0.500000   0.500000 )  
               a(3) = (  -0.500000   0.500000   0.000000 )  

     reciprocal axes: (cart. coord. in units 2 pi/alat)
               b(1) = ( -1.000000 -1.000000  1.000000 )  
               b(2) = (  1.000000  1.000000  1.000000 )  
               b(3) = ( -1.000000  1.000000 -1.000000 )  


     PseudoPot. # 1 for Ag read from file:
     /home/lorenzo/pseudos/Ag/Ag.pbesol-n-kjpaw_psl.1.0.0.UPF
     MD5 check sum: 3b245e14fa22881b2ac493bfd23f605f
     Pseudo is Projector augmented-wave + core cor, Zval = 11.0
     Generated using "atomic" code by A. Dal Corso v.6.2.2
     Shape of augmentation charge: PSQ
     Using radial grid of 1237 points,  6 beta functions with: 
                l(1) =   0
                l(2) =   0
                l(3) =   1
                l(4) =   1
                l(5) =   2
                l(6) =   2
     Q(r) pseudized with 0 coefficients 


     atomic species   valence    mass     pseudopotential
        Ag            11.00   107.86820     Ag( 1.00)

     48 Sym. Ops., with inversion, found



   Cartesian axes

     site n.     atom                  positions (alat units)
         1           Ag  tau(   1) = (   0.0000000   0.0000000   0.0000000  )

     number of k points=    20  gaussian smearing, width (Ry)=  0.0100
                       cart. coord. in units 2pi/alat
        k(    1) = (   0.0000000   0.0000000   0.0000000), wk =   0.0058309
        k(    2) = (  -0.1428571   0.1428571  -0.1428571), wk =   0.0466472
        k(    3) = (  -0.2857143   0.2857143  -0.2857143), wk =   0.0466472
        k(    4) = (  -0.4285714   0.4285714  -0.4285714), wk =   0.0466472
        k(    5) = (   0.0000000   0.2857143   0.0000000), wk =   0.0349854
        k(    6) = (  -0.1428571   0.4285714  -0.1428571), wk =   0.1399417
        k(    7) = (  -0.2857143   0.5714286  -0.2857143), wk =   0.1399417
        k(    8) = (   0.5714286  -0.2857143   0.5714286), wk =   0.1399417
        k(    9) = (   0.4285714  -0.1428571   0.4285714), wk =   0.1399417
        k(   10) = (   0.2857143  -0.0000000   0.2857143), wk =   0.0699708
        k(   11) = (   0.0000000   0.5714286   0.0000000), wk =   0.0349854
        k(   12) = (  -0.1428571   0.7142857  -0.1428571), wk =   0.1399417
        k(   13) = (   0.7142857  -0.1428571   0.7142857), wk =   0.1399417
        k(   14) = (   0.5714286   0.0000000   0.5714286), wk =   0.0699708
        k(   15) = (   0.0000000   0.8571429   0.0000000), wk =   0.0349854
        k(   16) = (   0.8571429  -0.0000000   0.8571429), wk =   0.0699708
        k(   17) = (  -0.2857143   0.5714286   0.0000000), wk =   0.1399417
        k(   18) = (   0.5714286  -0.2857143   0.8571429), wk =   0.2798834
        k(   19) = (   0.7142857  -0.1428571   1.0000000), wk =   0.1399417
        k(   20) = (   0.5714286   0.0000000   0.8571429), wk =   0.1399417

     Dense  grid:     1411 G-vectors     FFT dimensions: (  15,  15,  15)

     Estimated max dynamical RAM per process >       2.03 MB

     Estimated total dynamical RAM >      10.15 MB

     Initial potential from superposition of free atoms

     starting charge   10.99964, renormalised to   11.00000
     Starting wfcs are    9 randomized atomic wfcs +    1 random wfcs
     Checking if some PAW data can be deallocated... 

     total cpu time spent up to now is        1.1 secs

     Self-consistent Calculation

     iteration #  1     ecut=    20.00 Ry     beta= 0.70
     Davidson diagonalization with overlap
     ethr =  1.00E-02,  avg # of iterations =  4.8

     total cpu time spent up to now is        1.3 secs

     total energy              =    -348.21489799 Ry
     Harris-Foulkes estimate   =    -348.75751687 Ry
     estimated scf accuracy    <       0.66814141 Ry

     iteration #  2     ecut=    20.00 Ry     beta= 0.70
     Davidson diagonalization with overlap
     ethr =  6.07E-03,  avg # of iterations =  2.0

     total cpu time spent up to now is        1.5 secs

     total energy              =    -348.45907465 Ry
     Harris-Foulkes estimate   =    -348.61088348 Ry
     estimated scf accuracy    <       0.31032138 Ry

     iteration #  3     ecut=    20.00 Ry     beta= 0.70
     Davidson diagonalization with overlap
     ethr =  2.82E-03,  avg # of iterations =  1.3

     total cpu time spent up to now is        1.7 secs

     total energy              =    -348.50109881 Ry
     Harris-Foulkes estimate   =    -348.50376935 Ry
     estimated scf accuracy    <       0.00647800 Ry

     iteration #  4     ecut=    20.00 Ry     beta= 0.70
     Davidson diagonalization with overlap
     ethr =  5.89E-05,  avg # of iterations =  2.6

     total cpu time spent up to now is        1.8 secs

     total energy              =    -348.50329247 Ry
     Harris-Foulkes estimate   =    -348.50353523 Ry
     estimated scf accuracy    <       0.00087604 Ry

     iteration #  5     ecut=    20.00 Ry     beta= 0.70
     Davidson diagonalization with overlap
     ethr =  7.96E-06,  avg # of iterations =  1.1

     total cpu time spent up to now is        2.0 secs

     total energy              =    -348.50322249 Ry
     Harris-Foulkes estimate   =    -348.50332740 Ry
     estimated scf accuracy    <       0.00024138 Ry

     iteration #  6     ecut=    20.00 Ry     beta= 0.70
     Davidson diagonalization with overlap
     ethr =  2.19E-06,  avg # of iterations =  1.3

     total cpu time spent up to now is        2.2 secs

     total energy              =    -348.50325818 Ry
     Harris-Foulkes estimate   =    -348.50325849 Ry
     estimated scf accuracy    <       0.00000140 Ry

     iteration #  7     ecut=    20.00 Ry     beta= 0.70
     Davidson diagonalization with overlap
     ethr =  1.27E-08,  avg # of iterations =  3.1

     total cpu time spent up to now is        2.4 secs

     total energy              =    -348.50325868 Ry
     Harris-Foulkes estimate   =    -348.50325877 Ry
     estimated scf accuracy    <       0.00000029 Ry

     iteration #  8     ecut=    20.00 Ry     beta= 0.70
     Davidson diagonalization with overlap
     ethr =  2.65E-09,  avg # of iterations =  1.0

     total cpu time spent up to now is        2.5 secs

     total energy              =    -348.50325869 Ry
     Harris-Foulkes estimate   =    -348.50325870 Ry
     estimated scf accuracy    <       0.00000004 Ry

     iteration #  9     ecut=    20.00 Ry     beta= 0.70
     Davidson diagonalization with overlap
     ethr =  3.33E-10,  avg # of iterations =  1.5

     total cpu time spent up to now is        2.7 secs

     End of self-consistent calculation

          k = 0.0000 0.0000 0.0000 (   169 PWs)   bands (ev):

     4.8653   7.9789   7.9789   7.9789   8.5891   8.5891  29.9249  32.8126
    32.8126  32.8126

          k =-0.1429 0.1429-0.1429 (   172 PWs)   bands (ev):

     5.4596   7.8140   8.0382   8.0382   8.5167   8.5167  28.2460  30.6706
    32.8173  32.8173

          k =-0.2857 0.2857-0.2857 (   174 PWs)   bands (ev):

     6.3785   8.0898   8.0898   8.5586   8.8958   8.8958  22.5455  30.1118
    32.0734  32.0734

          k =-0.4286 0.4286-0.4286 (   174 PWs)   bands (ev):

     6.3013   8.0652   8.0652   9.2216   9.2216  11.2958  17.4541  29.1010
    30.7752  30.7752

          k = 0.0000 0.2857 0.0000 (   173 PWs)   bands (ev):

     5.6571   7.6998   8.0820   8.0820   8.3965   8.6023  30.1693  30.4434
    30.4434  30.8690

          k =-0.1429 0.4286-0.1429 (   171 PWs)   bands (ev):

     6.6194   7.5886   8.2676   8.3929   9.1149   9.2628  24.8548  28.8945
    30.0516  31.5069

          k =-0.2857 0.5714-0.2857 (   172 PWs)   bands (ev):

     6.7145   7.9027   8.3028   8.4790   9.5326  11.4677  19.3250  28.1851
    28.3668  29.9205

          k = 0.5714-0.2857 0.5714 (   170 PWs)   bands (ev):

     6.6367   7.9237   8.5751   8.9253   9.3609  13.5380  16.6088  26.5557
    29.3971  29.6719

          k = 0.4286-0.1429 0.4286 (   173 PWs)   bands (ev):

     6.5395   7.8973   8.3631   8.4946   9.1515  10.5380  21.0577  26.1450
    30.7376  32.2055

          k = 0.2857-0.0000 0.2857 (   168 PWs)   bands (ev):

     6.3389   7.8570   8.1772   8.1797   8.8520   9.6675  26.5656  27.2372
    32.9667  33.3430

          k = 0.0000 0.5714 0.0000 (   174 PWs)   bands (ev):

     6.6294   7.2813   8.8841   8.8841   8.9741   9.3178  26.4228  26.4228
    27.3410  30.0339

          k =-0.1429 0.7143-0.1429 (   176 PWs)   bands (ev):

     6.7340   7.2193   8.2837   8.7763   9.4784  11.9522  21.9073  24.3221
    25.4157  30.2708

          k = 0.7143-0.1429 0.7143 (   180 PWs)   bands (ev):

     6.7875   7.0099   7.9161   8.6009   9.1500  15.6465  17.2627  21.8881
    26.2783  30.0256

          k = 0.5714 0.0000 0.5714 (   176 PWs)   bands (ev):

     7.2145   7.3405   7.6856   8.7170   9.0015  13.5267  20.3580  20.9975
    28.9133  30.2291

          k = 0.0000 0.8571 0.0000 (   178 PWs)   bands (ev):

     6.4993   6.5718   9.2388   9.3292   9.3292  13.0229  20.9755  23.7089
    23.7089  30.0350

          k = 0.8571-0.0000 0.8571 (   178 PWs)   bands (ev):

     6.2273   6.9143   9.1165   9.1699   9.1813  15.2448  19.2489  21.0156
    24.0550  30.3972

          k =-0.2857 0.5714 0.0000 (   176 PWs)   bands (ev):

     7.0346   7.2242   7.8787   8.8644   8.9011  10.7082  23.4491  23.9192
    27.8938  33.5154

          k = 0.5714-0.2857 0.8571 (   170 PWs)   bands (ev):

     7.2527   7.5393   8.1044   9.0170   9.5690  14.0646  18.5513  23.7639
    25.5452  32.4953

          k = 0.7143-0.1429 1.0000 (   175 PWs)   bands (ev):

     6.7724   7.1804   8.2956   9.0909   9.5886  14.6269  20.8377  21.6913
    22.3899  33.5117

          k = 0.5714 0.0000 0.8571 (   175 PWs)   bands (ev):

     7.0052   7.4099   7.8794   9.0740   9.3459  17.4468  18.1114  19.9815
    23.1876  33.4948

     the Fermi energy is    13.0026 ev

!    total energy              =    -348.50325869 Ry
     Harris-Foulkes estimate   =    -348.50325869 Ry
     estimated scf accuracy    <          1.2E-10 Ry

     total all-electron energy =    -10625.513667 Ry

     The total energy is the sum of the following terms:

     one-electron contribution =       3.97129027 Ry
     hartree contribution      =      12.79202430 Ry
     xc contribution           =     -21.74023783 Ry
     ewald contribution        =     -71.86118020 Ry
     one-center paw contrib.   =    -271.66505868 Ry
     smearing contrib. (-TS)   =      -0.00009653 Ry

     convergence has been achieved in   9 iterations

     Forces acting on atoms (cartesian axes, Ry/au):

     atom    1 type  1   force =     0.00000000    0.00000000    0.00000000

     Total force =     0.000000     Total SCF correction =     0.000000


     Computing stress (Cartesian axis) and pressure

          total   stress  (Ry/bohr**3)                   (kbar)     P=-7353.96
  -0.04999122  -0.00000000  -0.00000000      -7353.96     -0.00     -0.00
  -0.00000000  -0.04999122   0.00000000         -0.00  -7353.96      0.00
  -0.00000000   0.00000000  -0.04999122         -0.00      0.00  -7353.96


     Writing output data file Ag.save/

     init_run     :      0.21s CPU      0.23s WALL (       1 calls)
     electrons    :      1.46s CPU      1.67s WALL (       1 calls)
     forces       :      0.01s CPU      0.01s WALL (       1 calls)
     stress       :      0.03s CPU      0.03s WALL (       1 calls)

     Called by init_run:
     wfcinit      :      0.02s CPU      0.02s WALL (       1 calls)
     potinit      :      0.09s CPU      0.11s WALL (       1 calls)
     hinit0       :      0.08s CPU      0.08s WALL (       1 calls)

     Called by electrons:
     c_bands      :      0.48s CPU      0.54s WALL (       9 calls)
     sum_band     :      0.08s CPU      0.09s WALL (       9 calls)
     v_of_rho     :      0.01s CPU      0.01s WALL (      10 calls)
     newd         :      0.01s CPU      0.01s WALL (      10 calls)
     PAW_pot      :      0.96s CPU      1.11s WALL (      10 calls)
     mix_rho      :      0.00s CPU      0.00s WALL (       9 calls)

     Called by c_bands:
     init_us_2    :      0.01s CPU      0.01s WALL (     420 calls)
     cegterg      :      0.46s CPU      0.52s WALL (     180 calls)

     Called by sum_band:
     sum_band:bec :      0.00s CPU      0.00s WALL (     180 calls)
     addusdens    :      0.01s CPU      0.01s WALL (       9 calls)

     Called by *egterg:
     h_psi        :      0.28s CPU      0.32s WALL (     575 calls)
     s_psi        :      0.01s CPU      0.01s WALL (     575 calls)
     g_psi        :      0.00s CPU      0.00s WALL (     375 calls)
     cdiaghg      :      0.11s CPU      0.13s WALL (     555 calls)

     Called by h_psi:
     h_psi:pot    :      0.28s CPU      0.32s WALL (     575 calls)
     h_psi:calbec :      0.02s CPU      0.02s WALL (     575 calls)
     vloc_psi     :      0.25s CPU      0.28s WALL (     575 calls)
     add_vuspsi   :      0.01s CPU      0.01s WALL (     575 calls)

     General routines
     calbec       :      0.02s CPU      0.03s WALL (     855 calls)
     fft          :      0.00s CPU      0.00s WALL (     136 calls)
     ffts         :      0.00s CPU      0.00s WALL (       9 calls)
     fftw         :      0.26s CPU      0.30s WALL (   10730 calls)

     Parallel routines
     fft_scatt_xy :      0.03s CPU      0.03s WALL (   10875 calls)
     fft_scatt_yz :      0.11s CPU      0.12s WALL (   10875 calls)

     PWSCF        :     2.53s CPU         2.82s WALL


   This run was terminated on:   0: 9:15  27Mar2024            

=------------------------------------------------------------------------------=
   JOB DONE.
=------------------------------------------------------------------------------=
