
     Program PWSCF v.6.3MaX starts on 27Mar2024 at  0: 5: 7 

     This program is part of the open-source Quantum ESPRESSO suite
     for quantum simulation of materials; please cite
         "P. Giannozzi et al., J. Phys.:Condens. Matter 21 395502 (2009);
         "P. Giannozzi et al., J. Phys.:Condens. Matter 29 465901 (2017);
          URL http://www.quantum-espresso.org", 
     in publications or presentations arising from this work. More details at
     http://www.quantum-espresso.org/quote

     Parallel version (MPI), running on     5 processors

     MPI processes distributed on     1 nodes
     R & G space division:  proc/nbgrp/npool/nimage =       5
     Waiting for input...
     Reading input from standard input

     Current dimensions of program PWSCF are:
     Max number of different atomic species (ntypx) = 10
     Max number of k-points (npk) =  40000
     Max angular momentum in pseudopotentials (lmaxx) =  3

     Subspace diagonalization in iterative solution of the eigenvalue problem:
     a serial algorithm will be used


     Parallelization info
     --------------------
     sticks:   dense  smooth     PW     G-vecs:    dense   smooth      PW
     Min          17      17      7                  106      106      27
     Max          17      17      8                  107      107      28
     Sum          85      85     37                  531      531     137



     bravais-lattice index     =            2
     lattice parameter (alat)  =       7.7200  a.u.
     unit-cell volume          =     115.0249 (a.u.)^3
     number of atoms/cell      =            1
     number of atomic types    =            1
     number of electrons       =        11.00
     number of Kohn-Sham states=           10
     kinetic-energy cutoff     =      10.0000  Ry
     charge density cutoff     =      40.0000  Ry
     convergence threshold     =      1.0E-08
     mixing beta               =       0.7000
     number of iterations used =            8  plain     mixing
     Exchange-correlation      = PBESOL ( 1  4 10  8 0 0)

     celldm(1)=   7.720000  celldm(2)=   0.000000  celldm(3)=   0.000000
     celldm(4)=   0.000000  celldm(5)=   0.000000  celldm(6)=   0.000000

     crystal axes: (cart. coord. in units of alat)
               a(1) = (  -0.500000   0.000000   0.500000 )  
               a(2) = (   0.000000   0.500000   0.500000 )  
               a(3) = (  -0.500000   0.500000   0.000000 )  

     reciprocal axes: (cart. coord. in units 2 pi/alat)
               b(1) = ( -1.000000 -1.000000  1.000000 )  
               b(2) = (  1.000000  1.000000  1.000000 )  
               b(3) = ( -1.000000  1.000000 -1.000000 )  


     PseudoPot. # 1 for Ag read from file:
     /home/lorenzo/pseudos/Ag/Ag.pbesol-n-rrkjus_psl.1.0.0.UPF
     MD5 check sum: 3b43e8aa747a56f565f44d11355b8b45
     Pseudo is Ultrasoft + core correction, Zval = 11.0
     Generated using "atomic" code by A. Dal Corso v.6.2.2
     Using radial grid of 1237 points,  6 beta functions with: 
                l(1) =   0
                l(2) =   0
                l(3) =   1
                l(4) =   1
                l(5) =   2
                l(6) =   2
     Q(r) pseudized with 0 coefficients 


     atomic species   valence    mass     pseudopotential
        Ag            11.00   107.86820     Ag( 1.00)

     48 Sym. Ops., with inversion, found



   Cartesian axes

     site n.     atom                  positions (alat units)
         1           Ag  tau(   1) = (   0.0000000   0.0000000   0.0000000  )

     number of k points=     8  gaussian smearing, width (Ry)=  0.0100
                       cart. coord. in units 2pi/alat
        k(    1) = (   0.0000000   0.0000000   0.0000000), wk =   0.0312500
        k(    2) = (  -0.2500000   0.2500000  -0.2500000), wk =   0.2500000
        k(    3) = (   0.5000000  -0.5000000   0.5000000), wk =   0.1250000
        k(    4) = (   0.0000000   0.5000000   0.0000000), wk =   0.1875000
        k(    5) = (   0.7500000  -0.2500000   0.7500000), wk =   0.7500000
        k(    6) = (   0.5000000   0.0000000   0.5000000), wk =   0.3750000
        k(    7) = (   0.0000000  -1.0000000   0.0000000), wk =   0.0937500
        k(    8) = (  -0.5000000  -1.0000000   0.0000000), wk =   0.1875000

     Dense  grid:      531 G-vectors     FFT dimensions: (  12,  12,  12)

     Estimated max dynamical RAM per process >       1.05 MB

     Estimated total dynamical RAM >       5.24 MB

     Initial potential from superposition of free atoms
     Check: negative starting charge=   -0.000249

     starting charge   10.99964, renormalised to   11.00000

     negative rho (up, down):  2.491E-04 0.000E+00
     Starting wfcs are    9 randomized atomic wfcs +    1 random wfcs

     total cpu time spent up to now is        0.9 secs

     Self-consistent Calculation

     iteration #  1     ecut=    10.00 Ry     beta= 0.70
     Davidson diagonalization with overlap
     ethr =  1.00E-02,  avg # of iterations =  4.4

     total cpu time spent up to now is        0.9 secs

     total energy              =     -69.03696230 Ry
     Harris-Foulkes estimate   =     -77.26054706 Ry
     estimated scf accuracy    <      10.52629593 Ry

     iteration #  2     ecut=    10.00 Ry     beta= 0.70
     Davidson diagonalization with overlap
     ethr =  1.00E-02,  avg # of iterations =  3.1

     total cpu time spent up to now is        1.0 secs

     total energy              =     -71.39846214 Ry
     Harris-Foulkes estimate   =     -71.50978790 Ry
     estimated scf accuracy    <       0.43316838 Ry

     iteration #  3     ecut=    10.00 Ry     beta= 0.70
     Davidson diagonalization with overlap
     ethr =  3.94E-03,  avg # of iterations =  1.0

     total cpu time spent up to now is        1.0 secs

     total energy              =     -71.41108763 Ry
     Harris-Foulkes estimate   =     -71.41313086 Ry
     estimated scf accuracy    <       0.03437905 Ry

     iteration #  4     ecut=    10.00 Ry     beta= 0.70
     Davidson diagonalization with overlap
     ethr =  3.13E-04,  avg # of iterations =  1.0

     total cpu time spent up to now is        1.0 secs

     total energy              =     -71.41175028 Ry
     Harris-Foulkes estimate   =     -71.41177668 Ry
     estimated scf accuracy    <       0.00004869 Ry

     iteration #  5     ecut=    10.00 Ry     beta= 0.70
     Davidson diagonalization with overlap
     ethr =  4.43E-07,  avg # of iterations =  3.8

     total cpu time spent up to now is        1.1 secs

     total energy              =     -71.41208562 Ry
     Harris-Foulkes estimate   =     -71.41208974 Ry
     estimated scf accuracy    <       0.00000739 Ry

     iteration #  6     ecut=    10.00 Ry     beta= 0.70
     Davidson diagonalization with overlap
     ethr =  6.72E-08,  avg # of iterations =  1.1

     total cpu time spent up to now is        1.1 secs

     total energy              =     -71.41208479 Ry
     Harris-Foulkes estimate   =     -71.41208598 Ry
     estimated scf accuracy    <       0.00000162 Ry

     iteration #  7     ecut=    10.00 Ry     beta= 0.70
     Davidson diagonalization with overlap
     ethr =  1.47E-08,  avg # of iterations =  3.0

     total cpu time spent up to now is        1.1 secs

     total energy              =     -71.41208516 Ry
     Harris-Foulkes estimate   =     -71.41208531 Ry
     estimated scf accuracy    <       0.00000024 Ry

     iteration #  8     ecut=    10.00 Ry     beta= 0.70
     Davidson diagonalization with overlap
     ethr =  2.22E-09,  avg # of iterations =  2.1

     total cpu time spent up to now is        1.2 secs

     End of self-consistent calculation

          k = 0.0000 0.0000 0.0000 (    59 PWs)   bands (ev):

     2.2764  10.4977  10.4977  10.4977  14.2749  14.2749  28.0116  28.0116
    28.0116  32.8798

          k =-0.2500 0.2500-0.2500 (    61 PWs)   bands (ev):

     3.9565  10.6110  10.6110  11.4277  12.4939  12.4939  22.4473  27.2578
    27.2578  34.1299

          k = 0.5000-0.5000 0.5000 (    70 PWs)   bands (ev):

     6.3795   7.6508   7.6508   9.3107   9.3107  11.2172  15.4469  24.9878
    24.9878  32.1404

          k = 0.0000 0.5000 0.0000 (    60 PWs)   bands (ev):

     4.5930   9.7975  10.9603  12.1357  12.1357  15.4998  22.9944  25.2241
    25.2241  35.0503

          k = 0.7500-0.2500 0.7500 (    59 PWs)   bands (ev):

     7.4642  10.5310  11.9346  12.6479  14.5454  15.1886  16.3756  23.2503
    24.0272  35.2157

          k = 0.5000 0.0000 0.5000 (    59 PWs)   bands (ev):

     6.3300  11.1248  11.2157  11.9750  13.5244  14.9309  19.0709  23.6547
    26.2931  34.5827

          k = 0.0000-1.0000 0.0000 (    64 PWs)   bands (ev):

     8.4378   8.9737  12.0716  12.0716  12.5019  13.5786  15.0189  20.1069
    20.1069  36.9144

          k =-0.5000-1.0000 0.0000 (    56 PWs)   bands (ev):

    10.6212  11.1638  11.3982  11.3982  14.4827  17.0641  19.7010  19.7010
    23.7301  38.7103

     the Fermi energy is    15.0722 ev

!    total energy              =     -71.41208520 Ry
     Harris-Foulkes estimate   =     -71.41208520 Ry
     estimated scf accuracy    <          3.8E-10 Ry

     The total energy is the sum of the following terms:

     one-electron contribution =      15.37754433 Ry
     hartree contribution      =       4.04389361 Ry
     xc contribution           =     -18.97073757 Ry
     ewald contribution        =     -71.86118018 Ry
     smearing contrib. (-TS)   =      -0.00160538 Ry

     convergence has been achieved in   8 iterations

     Forces acting on atoms (cartesian axes, Ry/au):

     atom    1 type  1   force =     0.00000000    0.00000000    0.00000000

     Total force =     0.000000     Total SCF correction =     0.000000


     Computing stress (Cartesian axis) and pressure

          total   stress  (Ry/bohr**3)                   (kbar)     P=********
  -0.10870155   0.00000000   0.00000000     -15990.55      0.00      0.00
   0.00000000  -0.10870155  -0.00000000          0.00 -15990.55     -0.00
   0.00000000  -0.00000000  -0.10870155          0.00     -0.00 -15990.55


     Writing output data file Ag.save/

     init_run     :      0.09s CPU      0.09s WALL (       1 calls)
     electrons    :      0.22s CPU      0.27s WALL (       1 calls)
     forces       :      0.01s CPU      0.01s WALL (       1 calls)
     stress       :      0.02s CPU      0.02s WALL (       1 calls)

     Called by init_run:
     wfcinit      :      0.02s CPU      0.02s WALL (       1 calls)
     potinit      :      0.00s CPU      0.00s WALL (       1 calls)
     hinit0       :      0.07s CPU      0.07s WALL (       1 calls)

     Called by electrons:
     c_bands      :      0.18s CPU      0.21s WALL (       8 calls)
     sum_band     :      0.03s CPU      0.03s WALL (       8 calls)
     v_of_rho     :      0.01s CPU      0.01s WALL (       9 calls)
     newd         :      0.01s CPU      0.01s WALL (       9 calls)
     mix_rho      :      0.00s CPU      0.00s WALL (       8 calls)

     Called by c_bands:
     init_us_2    :      0.00s CPU      0.00s WALL (     152 calls)
     cegterg      :      0.17s CPU      0.20s WALL (      64 calls)

     Called by sum_band:
     sum_band:bec :      0.00s CPU      0.00s WALL (      64 calls)
     addusdens    :      0.00s CPU      0.01s WALL (       8 calls)

     Called by *egterg:
     h_psi        :      0.10s CPU      0.12s WALL (     228 calls)
     s_psi        :      0.00s CPU      0.00s WALL (     228 calls)
     g_psi        :      0.00s CPU      0.00s WALL (     156 calls)
     cdiaghg      :      0.05s CPU      0.06s WALL (     220 calls)

     Called by h_psi:
     h_psi:pot    :      0.10s CPU      0.12s WALL (     228 calls)
     h_psi:calbec :      0.01s CPU      0.01s WALL (     228 calls)
     vloc_psi     :      0.09s CPU      0.11s WALL (     228 calls)
     add_vuspsi   :      0.00s CPU      0.00s WALL (     228 calls)

     General routines
     calbec       :      0.01s CPU      0.01s WALL (     332 calls)
     fft          :      0.01s CPU      0.01s WALL (     125 calls)
     ffts         :      0.00s CPU      0.00s WALL (       8 calls)
     fftw         :      0.09s CPU      0.11s WALL (    4090 calls)

     Parallel routines
     fft_scatt_xy :      0.01s CPU      0.01s WALL (    4223 calls)
     fft_scatt_yz :      0.06s CPU      0.07s WALL (    4223 calls)

     PWSCF        :     1.15s CPU         1.26s WALL


   This run was terminated on:   0: 5: 8  27Mar2024            

=------------------------------------------------------------------------------=
   JOB DONE.
=------------------------------------------------------------------------------=
