
     Program PWSCF v.6.3MaX starts on 27Mar2024 at  0:40:58 

     This program is part of the open-source Quantum ESPRESSO suite
     for quantum simulation of materials; please cite
         "P. Giannozzi et al., J. Phys.:Condens. Matter 21 395502 (2009);
         "P. Giannozzi et al., J. Phys.:Condens. Matter 29 465901 (2017);
          URL http://www.quantum-espresso.org", 
     in publications or presentations arising from this work. More details at
     http://www.quantum-espresso.org/quote

     Parallel version (MPI), running on     5 processors

     MPI processes distributed on     1 nodes
     R & G space division:  proc/nbgrp/npool/nimage =       5
     Waiting for input...
     Reading input from standard input

     Current dimensions of program PWSCF are:
     Max number of different atomic species (ntypx) = 10
     Max number of k-points (npk) =  40000
     Max angular momentum in pseudopotentials (lmaxx) =  3
               file Ag.pbesol-n-kjpaw_psl.1.0.0.UPF: wavefunction(s)  5S 5P renormalized

     Subspace diagonalization in iterative solution of the eigenvalue problem:
     a serial algorithm will be used


     Parallelization info
     --------------------
     sticks:   dense  smooth     PW     G-vecs:    dense   smooth      PW
     Min         137     137     42                 2410     2410     416
     Max         139     139     43                 2411     2411     418
     Sum         691     691    211                12051    12051    2085



     bravais-lattice index     =            2
     lattice parameter (alat)  =       7.7200  a.u.
     unit-cell volume          =     115.0249 (a.u.)^3
     number of atoms/cell      =            1
     number of atomic types    =            1
     number of electrons       =        11.00
     number of Kohn-Sham states=           10
     kinetic-energy cutoff     =      85.0000  Ry
     charge density cutoff     =     340.0000  Ry
     convergence threshold     =      1.0E-08
     mixing beta               =       0.7000
     number of iterations used =            8  plain     mixing
     Exchange-correlation      = SLA PW PSX PSC ( 1  4 10  8 0 0)

     celldm(1)=   7.720000  celldm(2)=   0.000000  celldm(3)=   0.000000
     celldm(4)=   0.000000  celldm(5)=   0.000000  celldm(6)=   0.000000

     crystal axes: (cart. coord. in units of alat)
               a(1) = (  -0.500000   0.000000   0.500000 )  
               a(2) = (   0.000000   0.500000   0.500000 )  
               a(3) = (  -0.500000   0.500000   0.000000 )  

     reciprocal axes: (cart. coord. in units 2 pi/alat)
               b(1) = ( -1.000000 -1.000000  1.000000 )  
               b(2) = (  1.000000  1.000000  1.000000 )  
               b(3) = ( -1.000000  1.000000 -1.000000 )  


     PseudoPot. # 1 for Ag read from file:
     /home/lorenzo/pseudos/Ag/Ag.pbesol-n-kjpaw_psl.1.0.0.UPF
     MD5 check sum: 3b245e14fa22881b2ac493bfd23f605f
     Pseudo is Projector augmented-wave + core cor, Zval = 11.0
     Generated using "atomic" code by A. Dal Corso v.6.2.2
     Shape of augmentation charge: PSQ
     Using radial grid of 1237 points,  6 beta functions with: 
                l(1) =   0
                l(2) =   0
                l(3) =   1
                l(4) =   1
                l(5) =   2
                l(6) =   2
     Q(r) pseudized with 0 coefficients 


     atomic species   valence    mass     pseudopotential
        Ag            11.00   107.86820     Ag( 1.00)

     48 Sym. Ops., with inversion, found



   Cartesian axes

     site n.     atom                  positions (alat units)
         1           Ag  tau(   1) = (   0.0000000   0.0000000   0.0000000  )

     number of k points=    16  gaussian smearing, width (Ry)=  0.0100
                       cart. coord. in units 2pi/alat
        k(    1) = (   0.0000000   0.0000000   0.0000000), wk =   0.0092593
        k(    2) = (  -0.1666667   0.1666667  -0.1666667), wk =   0.0740741
        k(    3) = (  -0.3333333   0.3333333  -0.3333333), wk =   0.0740741
        k(    4) = (   0.5000000  -0.5000000   0.5000000), wk =   0.0370370
        k(    5) = (   0.0000000   0.3333333   0.0000000), wk =   0.0555556
        k(    6) = (  -0.1666667   0.5000000  -0.1666667), wk =   0.2222222
        k(    7) = (   0.6666667  -0.3333333   0.6666667), wk =   0.2222222
        k(    8) = (   0.5000000  -0.1666667   0.5000000), wk =   0.2222222
        k(    9) = (   0.3333333   0.0000000   0.3333333), wk =   0.1111111
        k(   10) = (   0.0000000   0.6666667   0.0000000), wk =   0.0555556
        k(   11) = (   0.8333333  -0.1666667   0.8333333), wk =   0.2222222
        k(   12) = (   0.6666667  -0.0000000   0.6666667), wk =   0.1111111
        k(   13) = (   0.0000000  -1.0000000   0.0000000), wk =   0.0277778
        k(   14) = (   0.6666667  -0.3333333   1.0000000), wk =   0.2222222
        k(   15) = (   0.5000000  -0.1666667   0.8333333), wk =   0.2222222
        k(   16) = (  -0.3333333  -1.0000000   0.0000000), wk =   0.1111111

     Dense  grid:    12051 G-vectors     FFT dimensions: (  36,  36,  36)

     Estimated max dynamical RAM per process >      11.80 MB

     Estimated total dynamical RAM >      58.99 MB

     Initial potential from superposition of free atoms

     starting charge   10.99964, renormalised to   11.00000
     Starting wfcs are    9 randomized atomic wfcs +    1 random wfcs
     Checking if some PAW data can be deallocated... 

     total cpu time spent up to now is        1.3 secs

     Self-consistent Calculation

     iteration #  1     ecut=    85.00 Ry     beta= 0.70
     Davidson diagonalization with overlap
     ethr =  1.00E-02,  avg # of iterations =  4.9

     Threshold (ethr) on eigenvalues was too large:
     Diagonalizing with lowered threshold

     Davidson diagonalization with overlap
     ethr =  4.59E-05,  avg # of iterations =  2.5

     total cpu time spent up to now is        2.2 secs

     total energy              =    -350.23333606 Ry
     Harris-Foulkes estimate   =    -350.23695937 Ry
     estimated scf accuracy    <       0.00545761 Ry

     iteration #  2     ecut=    85.00 Ry     beta= 0.70
     Davidson diagonalization with overlap
     ethr =  4.96E-05,  avg # of iterations =  2.0

     total cpu time spent up to now is        2.6 secs

     total energy              =    -350.23488311 Ry
     Harris-Foulkes estimate   =    -350.23689025 Ry
     estimated scf accuracy    <       0.00417629 Ry

     iteration #  3     ecut=    85.00 Ry     beta= 0.70
     Davidson diagonalization with overlap
     ethr =  3.80E-05,  avg # of iterations =  1.6

     total cpu time spent up to now is        2.9 secs

     total energy              =    -350.23568439 Ry
     Harris-Foulkes estimate   =    -350.23566780 Ry
     estimated scf accuracy    <       0.00001470 Ry

     iteration #  4     ecut=    85.00 Ry     beta= 0.70
     Davidson diagonalization with overlap
     ethr =  1.34E-07,  avg # of iterations =  3.2

     total cpu time spent up to now is        3.3 secs

     total energy              =    -350.23569318 Ry
     Harris-Foulkes estimate   =    -350.23569300 Ry
     estimated scf accuracy    <       0.00000052 Ry

     iteration #  5     ecut=    85.00 Ry     beta= 0.70
     Davidson diagonalization with overlap
     ethr =  4.70E-09,  avg # of iterations =  1.0

     total cpu time spent up to now is        3.6 secs

     End of self-consistent calculation

          k = 0.0000 0.0000 0.0000 (  1471 PWs)   bands (ev):

     4.8045   7.9146   7.9146   7.9146   8.9674   8.9674  29.5434  32.8290
    32.8290  32.8290

          k =-0.1667 0.1667-0.1667 (  1513 PWs)   bands (ev):

     5.6036   7.8044   8.0932   8.0932   8.9406   8.9406  27.1155  30.3021
    32.7103  32.7103

          k =-0.3333 0.3333-0.3333 (  1504 PWs)   bands (ev):

     6.3805   8.0292   8.0292   9.2973   9.3925   9.3925  20.6222  29.3129
    31.7175  31.7175

          k = 0.5000-0.5000 0.5000 (  1502 PWs)   bands (ev):

     6.2774   7.8936   7.8936   9.7704   9.7704  12.1888  16.2508  28.5894
    30.8272  30.8272

          k = 0.0000 0.3333 0.0000 (  1511 PWs)   bands (ev):

     5.8740   7.5001   8.3296   8.3296   8.6301   9.1533  29.5817  29.7193
    29.7193  30.2451

          k =-0.1667 0.5000-0.1667 (  1534 PWs)   bands (ev):

     6.7614   7.4955   8.1000   8.4984   9.5169   9.8678  23.2472  28.0517
    28.6989  30.3165

          k = 0.6667-0.3333 0.6667 (  1517 PWs)   bands (ev):

     6.6843   7.6539   8.3109   8.5648   9.7981  13.2238  17.3592  26.3214
    28.1604  29.4185

          k = 0.5000-0.1667 0.5000 (  1516 PWs)   bands (ev):

     6.8357   7.7381   8.2948   8.5013   9.2900  12.1345  19.2034  25.1259
    29.9349  30.5640

          k = 0.3333 0.0000 0.3333 (  1518 PWs)   bands (ev):

     6.6590   7.5276   8.1588   8.4501   8.6004   9.7892  25.3587  25.7059
    32.2698  33.3825

          k = 0.0000 0.6667 0.0000 (  1527 PWs)   bands (ev):

     6.6237   6.7434   9.3382   9.3382   9.5394  10.4366  24.9386  25.3524
    25.3524  29.6840

          k = 0.8333-0.1667 0.8333 (  1533 PWs)   bands (ev):

     6.5708   6.8257   8.9966   9.2581   9.8657  13.9190  20.4975  21.7740
    24.8567  29.6504

          k = 0.6667-0.0000 0.6667 (  1516 PWs)   bands (ev):

     6.9361   7.5135   8.1370   8.9224   9.4885  15.7940  18.4603  20.1904
    26.9528  29.6057

          k = 0.0000-1.0000 0.0000 (  1524 PWs)   bands (ev):

     6.2470   6.3950   9.7403   9.9791   9.9791  14.2109  19.3748  23.4477
    23.4477  29.7426

          k = 0.6667-0.3333 1.0000 (  1528 PWs)   bands (ev):

     7.1706   7.2389   7.8963   9.1606   9.3268  12.4571  22.2651  22.2822
    25.6723  33.4862

          k = 0.5000-0.1667 0.8333 (  1536 PWs)   bands (ev):

     7.2341   7.2800   7.9382   8.8407   9.7312  16.3054  17.0431  22.8804
    23.5171  32.9898

          k =-0.3333-1.0000 0.0000 (  1536 PWs)   bands (ev):

     6.7685   6.9495   8.5179   9.2171   9.9799  16.6051  19.5431  20.6811
    21.4093  33.0685

     the Fermi energy is    12.4879 ev

!    total energy              =    -350.23569320 Ry
     Harris-Foulkes estimate   =    -350.23569320 Ry
     estimated scf accuracy    <          4.2E-09 Ry

     total all-electron energy =    -10627.246102 Ry

     The total energy is the sum of the following terms:

     one-electron contribution =       1.61463958 Ry
     hartree contribution      =      14.56918067 Ry
     xc contribution           =     -22.14326420 Ry
     ewald contribution        =     -71.86118018 Ry
     one-center paw contrib.   =    -272.41447179 Ry
     smearing contrib. (-TS)   =      -0.00059728 Ry

     convergence has been achieved in   5 iterations

     Forces acting on atoms (cartesian axes, Ry/au):

     atom    1 type  1   force =     0.00000000    0.00000000    0.00000000

     Total force =     0.000000     Total SCF correction =     0.000000


     Computing stress (Cartesian axis) and pressure

          total   stress  (Ry/bohr**3)                   (kbar)     P=  -15.25
  -0.00010365  -0.00000000  -0.00000000        -15.25     -0.00     -0.00
  -0.00000000  -0.00010365   0.00000000         -0.00    -15.25      0.00
  -0.00000000   0.00000000  -0.00010365         -0.00      0.00    -15.25


     Writing output data file Ag.save/

     init_run     :      0.44s CPU      0.47s WALL (       1 calls)
     electrons    :      2.17s CPU      2.29s WALL (       1 calls)
     forces       :      0.05s CPU      0.05s WALL (       1 calls)
     stress       :      0.17s CPU      0.17s WALL (       1 calls)

     Called by init_run:
     wfcinit      :      0.09s CPU      0.09s WALL (       1 calls)
     potinit      :      0.12s CPU      0.14s WALL (       1 calls)
     hinit0       :      0.20s CPU      0.20s WALL (       1 calls)

     Called by electrons:
     c_bands      :      1.28s CPU      1.36s WALL (       6 calls)
     sum_band     :      0.31s CPU      0.33s WALL (       6 calls)
     v_of_rho     :      0.05s CPU      0.05s WALL (       6 calls)
     newd         :      0.07s CPU      0.07s WALL (       6 calls)
     PAW_pot      :      0.57s CPU      0.60s WALL (       6 calls)
     mix_rho      :      0.00s CPU      0.00s WALL (       6 calls)

     Called by c_bands:
     init_us_2    :      0.04s CPU      0.05s WALL (     240 calls)
     cegterg      :      1.23s CPU      1.31s WALL (      96 calls)

     Called by sum_band:
     sum_band:bec :      0.00s CPU      0.00s WALL (      96 calls)
     addusdens    :      0.07s CPU      0.07s WALL (       6 calls)

     Called by *egterg:
     h_psi        :      1.06s CPU      1.13s WALL (     357 calls)
     s_psi        :      0.03s CPU      0.03s WALL (     357 calls)
     g_psi        :      0.00s CPU      0.00s WALL (     245 calls)
     cdiaghg      :      0.07s CPU      0.08s WALL (     325 calls)

     Called by h_psi:
     h_psi:pot    :      1.06s CPU      1.13s WALL (     357 calls)
     h_psi:calbec :      0.04s CPU      0.05s WALL (     357 calls)
     vloc_psi     :      0.98s CPU      1.05s WALL (     357 calls)
     add_vuspsi   :      0.03s CPU      0.03s WALL (     357 calls)

     General routines
     calbec       :      0.07s CPU      0.08s WALL (     533 calls)
     fft          :      0.03s CPU      0.03s WALL (      93 calls)
     ffts         :      0.00s CPU      0.00s WALL (       6 calls)
     fftw         :      1.10s CPU      1.17s WALL (    5964 calls)

     Parallel routines
     fft_scatt_xy :      0.09s CPU      0.10s WALL (    6063 calls)
     fft_scatt_yz :      0.26s CPU      0.28s WALL (    6063 calls)

     PWSCF        :     3.74s CPU         3.93s WALL


   This run was terminated on:   0:41: 2  27Mar2024            

=------------------------------------------------------------------------------=
   JOB DONE.
=------------------------------------------------------------------------------=
