
     Program PWSCF v.6.3MaX starts on 27Mar2024 at  0:37:57 

     This program is part of the open-source Quantum ESPRESSO suite
     for quantum simulation of materials; please cite
         "P. Giannozzi et al., J. Phys.:Condens. Matter 21 395502 (2009);
         "P. Giannozzi et al., J. Phys.:Condens. Matter 29 465901 (2017);
          URL http://www.quantum-espresso.org", 
     in publications or presentations arising from this work. More details at
     http://www.quantum-espresso.org/quote

     Parallel version (MPI), running on     5 processors

     MPI processes distributed on     1 nodes
     R & G space division:  proc/nbgrp/npool/nimage =       5
     Waiting for input...
     Reading input from standard input

     Current dimensions of program PWSCF are:
     Max number of different atomic species (ntypx) = 10
     Max number of k-points (npk) =  40000
     Max angular momentum in pseudopotentials (lmaxx) =  3
               file Ag.pbesol-n-kjpaw_psl.1.0.0.UPF: wavefunction(s)  5S 5P renormalized

     Subspace diagonalization in iterative solution of the eigenvalue problem:
     a serial algorithm will be used


     Parallelization info
     --------------------
     sticks:   dense  smooth     PW     G-vecs:    dense   smooth      PW
     Min         131     131     39                 2222     2222     381
     Max         134     134     40                 2223     2223     384
     Sum         661     661    199                11113    11113    1917



     bravais-lattice index     =            2
     lattice parameter (alat)  =       7.7200  a.u.
     unit-cell volume          =     115.0249 (a.u.)^3
     number of atoms/cell      =            1
     number of atomic types    =            1
     number of electrons       =        11.00
     number of Kohn-Sham states=           10
     kinetic-energy cutoff     =      80.0000  Ry
     charge density cutoff     =     320.0000  Ry
     convergence threshold     =      1.0E-08
     mixing beta               =       0.7000
     number of iterations used =            8  plain     mixing
     Exchange-correlation      = SLA PW PSX PSC ( 1  4 10  8 0 0)

     celldm(1)=   7.720000  celldm(2)=   0.000000  celldm(3)=   0.000000
     celldm(4)=   0.000000  celldm(5)=   0.000000  celldm(6)=   0.000000

     crystal axes: (cart. coord. in units of alat)
               a(1) = (  -0.500000   0.000000   0.500000 )  
               a(2) = (   0.000000   0.500000   0.500000 )  
               a(3) = (  -0.500000   0.500000   0.000000 )  

     reciprocal axes: (cart. coord. in units 2 pi/alat)
               b(1) = ( -1.000000 -1.000000  1.000000 )  
               b(2) = (  1.000000  1.000000  1.000000 )  
               b(3) = ( -1.000000  1.000000 -1.000000 )  


     PseudoPot. # 1 for Ag read from file:
     /home/lorenzo/pseudos/Ag/Ag.pbesol-n-kjpaw_psl.1.0.0.UPF
     MD5 check sum: 3b245e14fa22881b2ac493bfd23f605f
     Pseudo is Projector augmented-wave + core cor, Zval = 11.0
     Generated using "atomic" code by A. Dal Corso v.6.2.2
     Shape of augmentation charge: PSQ
     Using radial grid of 1237 points,  6 beta functions with: 
                l(1) =   0
                l(2) =   0
                l(3) =   1
                l(4) =   1
                l(5) =   2
                l(6) =   2
     Q(r) pseudized with 0 coefficients 


     atomic species   valence    mass     pseudopotential
        Ag            11.00   107.86820     Ag( 1.00)

     48 Sym. Ops., with inversion, found



   Cartesian axes

     site n.     atom                  positions (alat units)
         1           Ag  tau(   1) = (   0.0000000   0.0000000   0.0000000  )

     number of k points=    20  gaussian smearing, width (Ry)=  0.0100
                       cart. coord. in units 2pi/alat
        k(    1) = (   0.0000000   0.0000000   0.0000000), wk =   0.0058309
        k(    2) = (  -0.1428571   0.1428571  -0.1428571), wk =   0.0466472
        k(    3) = (  -0.2857143   0.2857143  -0.2857143), wk =   0.0466472
        k(    4) = (  -0.4285714   0.4285714  -0.4285714), wk =   0.0466472
        k(    5) = (   0.0000000   0.2857143   0.0000000), wk =   0.0349854
        k(    6) = (  -0.1428571   0.4285714  -0.1428571), wk =   0.1399417
        k(    7) = (  -0.2857143   0.5714286  -0.2857143), wk =   0.1399417
        k(    8) = (   0.5714286  -0.2857143   0.5714286), wk =   0.1399417
        k(    9) = (   0.4285714  -0.1428571   0.4285714), wk =   0.1399417
        k(   10) = (   0.2857143  -0.0000000   0.2857143), wk =   0.0699708
        k(   11) = (   0.0000000   0.5714286   0.0000000), wk =   0.0349854
        k(   12) = (  -0.1428571   0.7142857  -0.1428571), wk =   0.1399417
        k(   13) = (   0.7142857  -0.1428571   0.7142857), wk =   0.1399417
        k(   14) = (   0.5714286   0.0000000   0.5714286), wk =   0.0699708
        k(   15) = (   0.0000000   0.8571429   0.0000000), wk =   0.0349854
        k(   16) = (   0.8571429  -0.0000000   0.8571429), wk =   0.0699708
        k(   17) = (  -0.2857143   0.5714286   0.0000000), wk =   0.1399417
        k(   18) = (   0.5714286  -0.2857143   0.8571429), wk =   0.2798834
        k(   19) = (   0.7142857  -0.1428571   1.0000000), wk =   0.1399417
        k(   20) = (   0.5714286   0.0000000   0.8571429), wk =   0.1399417

     Dense  grid:    11113 G-vectors     FFT dimensions: (  32,  32,  32)

     Estimated max dynamical RAM per process >      10.96 MB

     Estimated total dynamical RAM >      54.81 MB

     Initial potential from superposition of free atoms

     starting charge   10.99964, renormalised to   11.00000
     Starting wfcs are    9 randomized atomic wfcs +    1 random wfcs
     Checking if some PAW data can be deallocated... 

     total cpu time spent up to now is        1.3 secs

     Self-consistent Calculation

     iteration #  1     ecut=    80.00 Ry     beta= 0.70
     Davidson diagonalization with overlap
     ethr =  1.00E-02,  avg # of iterations =  4.6

     Threshold (ethr) on eigenvalues was too large:
     Diagonalizing with lowered threshold

     Davidson diagonalization with overlap
     ethr =  4.59E-05,  avg # of iterations =  2.3

     total cpu time spent up to now is        2.1 secs

     total energy              =    -350.24180891 Ry
     Harris-Foulkes estimate   =    -350.24541910 Ry
     estimated scf accuracy    <       0.00545378 Ry

     iteration #  2     ecut=    80.00 Ry     beta= 0.70
     Davidson diagonalization with overlap
     ethr =  4.96E-05,  avg # of iterations =  2.0

     total cpu time spent up to now is        2.5 secs

     total energy              =    -350.24336584 Ry
     Harris-Foulkes estimate   =    -350.24535061 Ry
     estimated scf accuracy    <       0.00412298 Ry

     iteration #  3     ecut=    80.00 Ry     beta= 0.70
     Davidson diagonalization with overlap
     ethr =  3.75E-05,  avg # of iterations =  1.7

     total cpu time spent up to now is        2.8 secs

     total energy              =    -350.24415447 Ry
     Harris-Foulkes estimate   =    -350.24413777 Ry
     estimated scf accuracy    <       0.00001518 Ry

     iteration #  4     ecut=    80.00 Ry     beta= 0.70
     Davidson diagonalization with overlap
     ethr =  1.38E-07,  avg # of iterations =  3.0

     total cpu time spent up to now is        3.2 secs

     total energy              =    -350.24416316 Ry
     Harris-Foulkes estimate   =    -350.24416299 Ry
     estimated scf accuracy    <       0.00000052 Ry

     iteration #  5     ecut=    80.00 Ry     beta= 0.70
     Davidson diagonalization with overlap
     ethr =  4.71E-09,  avg # of iterations =  1.4

     total cpu time spent up to now is        3.5 secs

     End of self-consistent calculation

          k = 0.0000 0.0000 0.0000 (  1411 PWs)   bands (ev):

     4.8056   7.9167   7.9167   7.9167   8.9680   8.9680  29.5462  32.8283
    32.8283  32.8283

          k =-0.1429 0.1429-0.1429 (  1399 PWs)   bands (ev):

     5.4110   7.8122   8.0637   8.0637   8.9331   8.9331  27.9930  30.3612
    32.7580  32.7580

          k =-0.2857 0.2857-0.2857 (  1387 PWs)   bands (ev):

     6.3476   8.0898   8.0898   8.5129   9.2150   9.2150  22.4349  29.6908
    32.1098  32.1098

          k =-0.4286 0.4286-0.4286 (  1401 PWs)   bands (ev):

     6.3090   7.9235   7.9235   9.6924   9.6924  11.2767  17.4318  28.7341
    31.0198  31.0198

          k = 0.0000 0.2857 0.0000 (  1399 PWs)   bands (ev):

     5.6156   7.6022   8.2249   8.2249   8.6886   9.1077  29.5734  30.3832
    30.3832  30.6508

          k =-0.1429 0.4286-0.1429 (  1387 PWs)   bands (ev):

     6.5718   7.4798   8.1526   8.4177   9.2558   9.3586  24.6964  28.8555
    29.4037  31.3289

          k =-0.2857 0.5714-0.2857 (  1392 PWs)   bands (ev):

     6.6498   7.7824   8.2814   8.4119   9.7534  11.5173  19.2648  27.8346
    28.3729  29.7678

          k = 0.5714-0.2857 0.5714 (  1392 PWs)   bands (ev):

     6.6204   7.7034   8.1735   8.9014   9.6684  13.4840  16.5854  26.3653
    29.4313  29.4393

          k = 0.4286-0.1429 0.4286 (  1390 PWs)   bands (ev):

     6.7965   7.8531   8.2765   8.3297   9.0647  10.8794  21.0467  26.0016
    30.5247  32.1522

          k = 0.2857-0.0000 0.2857 (  1376 PWs)   bands (ev):

     6.2769   7.5856   8.1933   8.3208   8.6580   9.4311  26.4946  26.7743
    32.7612  33.1324

          k = 0.0000 0.5714 0.0000 (  1367 PWs)   bands (ev):

     6.7161   6.9472   9.0307   9.0307   9.3966   9.4310  26.4546  26.4546
    27.0942  29.6550

          k =-0.1429 0.7143-0.1429 (  1390 PWs)   bands (ev):

     6.6787   6.9261   8.8042   9.0763   9.7935  11.9948  21.9581  24.1389
    25.4793  29.6755

          k = 0.7143-0.1429 0.7143 (  1381 PWs)   bands (ev):

     6.8093   7.3414   8.3679   8.8820   9.7234  15.7536  17.3441  21.9232
    26.3585  29.5354

          k = 0.5714 0.0000 0.5714 (  1388 PWs)   bands (ev):

     7.2124   7.7442   7.8392   8.6862   9.2089  13.5688  20.3915  21.0601
    28.8857  29.8317

          k = 0.0000 0.8571 0.0000 (  1379 PWs)   bands (ev):

     6.3325   6.4650   9.7008   9.8442   9.8442  13.0243  20.8942  23.8219
    23.8219  29.7322

          k = 0.8571-0.0000 0.8571 (  1376 PWs)   bands (ev):

     6.4307   6.6337   9.3661   9.5284   9.8862  15.2738  19.4179  20.9309
    24.1628  29.7036

          k =-0.2857 0.5714 0.0000 (  1387 PWs)   bands (ev):

     7.2060   7.2205   7.9127   9.0240   9.0893  11.0549  23.5239  23.7326
    27.6191  32.9139

          k = 0.5714-0.2857 0.8571 (  1400 PWs)   bands (ev):

     7.0934   7.4243   8.0084   8.7639   9.6227  14.0438  18.4941  23.7379
    25.2511  32.3365

          k = 0.7143-0.1429 1.0000 (  1395 PWs)   bands (ev):

     6.7507   6.8564   8.6081   9.3748   9.8405  14.6812  21.0507  21.5773
    22.1323  32.4015

          k = 0.5714 0.0000 0.8571 (  1390 PWs)   bands (ev):

     6.9995   7.3644   7.9747   8.9982   9.8343  17.4400  18.0757  20.0240
    23.0453  33.0229

     the Fermi energy is    13.0041 ev

!    total energy              =    -350.24416318 Ry
     Harris-Foulkes estimate   =    -350.24416318 Ry
     estimated scf accuracy    <          6.0E-09 Ry

     total all-electron energy =    -10627.254572 Ry

     The total energy is the sum of the following terms:

     one-electron contribution =       1.60392425 Ry
     hartree contribution      =      14.56990660 Ry
     xc contribution           =     -22.14309314 Ry
     ewald contribution        =     -71.86118018 Ry
     one-center paw contrib.   =    -272.41362418 Ry
     smearing contrib. (-TS)   =      -0.00009653 Ry

     convergence has been achieved in   5 iterations

     Forces acting on atoms (cartesian axes, Ry/au):

     atom    1 type  1   force =     0.00000000    0.00000000    0.00000000

     Total force =     0.000000     Total SCF correction =     0.000000


     Computing stress (Cartesian axis) and pressure

          total   stress  (Ry/bohr**3)                   (kbar)     P=  -26.28
  -0.00017866  -0.00000000   0.00000000        -26.28     -0.00      0.00
  -0.00000000  -0.00017866   0.00000000         -0.00    -26.28      0.00
   0.00000000  -0.00000000  -0.00017866          0.00     -0.00    -26.28


     Writing output data file Ag.save/

     init_run     :      0.39s CPU      0.42s WALL (       1 calls)
     electrons    :      2.11s CPU      2.25s WALL (       1 calls)
     forces       :      0.05s CPU      0.05s WALL (       1 calls)
     stress       :      0.17s CPU      0.17s WALL (       1 calls)

     Called by init_run:
     wfcinit      :      0.07s CPU      0.07s WALL (       1 calls)
     potinit      :      0.10s CPU      0.12s WALL (       1 calls)
     hinit0       :      0.19s CPU      0.19s WALL (       1 calls)

     Called by electrons:
     c_bands      :      1.26s CPU      1.36s WALL (       6 calls)
     sum_band     :      0.26s CPU      0.28s WALL (       6 calls)
     v_of_rho     :      0.04s CPU      0.04s WALL (       6 calls)
     newd         :      0.07s CPU      0.07s WALL (       6 calls)
     PAW_pot      :      0.57s CPU      0.61s WALL (       6 calls)
     mix_rho      :      0.00s CPU      0.00s WALL (       6 calls)

     Called by c_bands:
     init_us_2    :      0.04s CPU      0.05s WALL (     300 calls)
     cegterg      :      1.20s CPU      1.29s WALL (     120 calls)

     Called by sum_band:
     sum_band:bec :      0.00s CPU      0.00s WALL (     120 calls)
     addusdens    :      0.06s CPU      0.06s WALL (       6 calls)

     Called by *egterg:
     h_psi        :      0.94s CPU      1.03s WALL (     439 calls)
     s_psi        :      0.04s CPU      0.04s WALL (     439 calls)
     g_psi        :      0.00s CPU      0.00s WALL (     299 calls)
     cdiaghg      :      0.09s CPU      0.10s WALL (     399 calls)

     Called by h_psi:
     h_psi:pot    :      0.94s CPU      1.02s WALL (     439 calls)
     h_psi:calbec :      0.05s CPU      0.05s WALL (     439 calls)
     vloc_psi     :      0.85s CPU      0.92s WALL (     439 calls)
     add_vuspsi   :      0.04s CPU      0.04s WALL (     439 calls)

     General routines
     calbec       :      0.09s CPU      0.10s WALL (     659 calls)
     fft          :      0.03s CPU      0.03s WALL (      93 calls)
     ffts         :      0.00s CPU      0.00s WALL (       6 calls)
     fftw         :      0.92s CPU      1.01s WALL (    7448 calls)

     Parallel routines
     fft_scatt_xy :      0.09s CPU      0.10s WALL (    7547 calls)
     fft_scatt_yz :      0.28s CPU      0.30s WALL (    7547 calls)

     PWSCF        :     3.57s CPU         3.81s WALL


   This run was terminated on:   0:38: 1  27Mar2024            

=------------------------------------------------------------------------------=
   JOB DONE.
=------------------------------------------------------------------------------=
