
     Program PWSCF v.6.3MaX starts on 27Mar2024 at  0:27: 7 

     This program is part of the open-source Quantum ESPRESSO suite
     for quantum simulation of materials; please cite
         "P. Giannozzi et al., J. Phys.:Condens. Matter 21 395502 (2009);
         "P. Giannozzi et al., J. Phys.:Condens. Matter 29 465901 (2017);
          URL http://www.quantum-espresso.org", 
     in publications or presentations arising from this work. More details at
     http://www.quantum-espresso.org/quote

     Parallel version (MPI), running on     5 processors

     MPI processes distributed on     1 nodes
     R & G space division:  proc/nbgrp/npool/nimage =       5
     Waiting for input...
     Reading input from standard input

     Current dimensions of program PWSCF are:
     Max number of different atomic species (ntypx) = 10
     Max number of k-points (npk) =  40000
     Max angular momentum in pseudopotentials (lmaxx) =  3
               file Ag.pbesol-n-kjpaw_psl.1.0.0.UPF: wavefunction(s)  5S 5P renormalized

     Subspace diagonalization in iterative solution of the eigenvalue problem:
     a serial algorithm will be used


     Parallelization info
     --------------------
     sticks:   dense  smooth     PW     G-vecs:    dense   smooth      PW
     Min          99      99     32                 1446     1446     272
     Max         100     100     33                 1449     1449     273
     Sum         499     499    163                 7239     7239    1363



     bravais-lattice index     =            2
     lattice parameter (alat)  =       7.7200  a.u.
     unit-cell volume          =     115.0249 (a.u.)^3
     number of atoms/cell      =            1
     number of atomic types    =            1
     number of electrons       =        11.00
     number of Kohn-Sham states=           10
     kinetic-energy cutoff     =      60.0000  Ry
     charge density cutoff     =     240.0000  Ry
     convergence threshold     =      1.0E-08
     mixing beta               =       0.7000
     number of iterations used =            8  plain     mixing
     Exchange-correlation      = SLA PW PSX PSC ( 1  4 10  8 0 0)

     celldm(1)=   7.720000  celldm(2)=   0.000000  celldm(3)=   0.000000
     celldm(4)=   0.000000  celldm(5)=   0.000000  celldm(6)=   0.000000

     crystal axes: (cart. coord. in units of alat)
               a(1) = (  -0.500000   0.000000   0.500000 )  
               a(2) = (   0.000000   0.500000   0.500000 )  
               a(3) = (  -0.500000   0.500000   0.000000 )  

     reciprocal axes: (cart. coord. in units 2 pi/alat)
               b(1) = ( -1.000000 -1.000000  1.000000 )  
               b(2) = (  1.000000  1.000000  1.000000 )  
               b(3) = ( -1.000000  1.000000 -1.000000 )  


     PseudoPot. # 1 for Ag read from file:
     /home/lorenzo/pseudos/Ag/Ag.pbesol-n-kjpaw_psl.1.0.0.UPF
     MD5 check sum: 3b245e14fa22881b2ac493bfd23f605f
     Pseudo is Projector augmented-wave + core cor, Zval = 11.0
     Generated using "atomic" code by A. Dal Corso v.6.2.2
     Shape of augmentation charge: PSQ
     Using radial grid of 1237 points,  6 beta functions with: 
                l(1) =   0
                l(2) =   0
                l(3) =   1
                l(4) =   1
                l(5) =   2
                l(6) =   2
     Q(r) pseudized with 0 coefficients 


     atomic species   valence    mass     pseudopotential
        Ag            11.00   107.86820     Ag( 1.00)

     48 Sym. Ops., with inversion, found



   Cartesian axes

     site n.     atom                  positions (alat units)
         1           Ag  tau(   1) = (   0.0000000   0.0000000   0.0000000  )

     number of k points=    29  gaussian smearing, width (Ry)=  0.0100
                       cart. coord. in units 2pi/alat
        k(    1) = (   0.0000000   0.0000000   0.0000000), wk =   0.0039062
        k(    2) = (  -0.1250000   0.1250000  -0.1250000), wk =   0.0312500
        k(    3) = (  -0.2500000   0.2500000  -0.2500000), wk =   0.0312500
        k(    4) = (  -0.3750000   0.3750000  -0.3750000), wk =   0.0312500
        k(    5) = (   0.5000000  -0.5000000   0.5000000), wk =   0.0156250
        k(    6) = (   0.0000000   0.2500000   0.0000000), wk =   0.0234375
        k(    7) = (  -0.1250000   0.3750000  -0.1250000), wk =   0.0937500
        k(    8) = (  -0.2500000   0.5000000  -0.2500000), wk =   0.0937500
        k(    9) = (   0.6250000  -0.3750000   0.6250000), wk =   0.0937500
        k(   10) = (   0.5000000  -0.2500000   0.5000000), wk =   0.0937500
        k(   11) = (   0.3750000  -0.1250000   0.3750000), wk =   0.0937500
        k(   12) = (   0.2500000   0.0000000   0.2500000), wk =   0.0468750
        k(   13) = (   0.0000000   0.5000000   0.0000000), wk =   0.0234375
        k(   14) = (  -0.1250000   0.6250000  -0.1250000), wk =   0.0937500
        k(   15) = (   0.7500000  -0.2500000   0.7500000), wk =   0.0937500
        k(   16) = (   0.6250000  -0.1250000   0.6250000), wk =   0.0937500
        k(   17) = (   0.5000000   0.0000000   0.5000000), wk =   0.0468750
        k(   18) = (   0.0000000   0.7500000   0.0000000), wk =   0.0234375
        k(   19) = (   0.8750000  -0.1250000   0.8750000), wk =   0.0937500
        k(   20) = (   0.7500000   0.0000000   0.7500000), wk =   0.0468750
        k(   21) = (   0.0000000  -1.0000000   0.0000000), wk =   0.0117188
        k(   22) = (  -0.2500000   0.5000000   0.0000000), wk =   0.0937500
        k(   23) = (   0.6250000  -0.3750000   0.8750000), wk =   0.1875000
        k(   24) = (   0.5000000  -0.2500000   0.7500000), wk =   0.0937500
        k(   25) = (   0.7500000  -0.2500000   1.0000000), wk =   0.0937500
        k(   26) = (   0.6250000  -0.1250000   0.8750000), wk =   0.1875000
        k(   27) = (   0.5000000   0.0000000   0.7500000), wk =   0.0937500
        k(   28) = (  -0.2500000  -1.0000000   0.0000000), wk =   0.0468750
        k(   29) = (  -0.5000000  -1.0000000   0.0000000), wk =   0.0234375

     Dense  grid:     7239 G-vectors     FFT dimensions: (  27,  27,  27)

     Estimated max dynamical RAM per process >       7.75 MB

     Estimated total dynamical RAM >      38.74 MB

     Initial potential from superposition of free atoms

     starting charge   10.99964, renormalised to   11.00000
     Starting wfcs are    9 randomized atomic wfcs +    1 random wfcs
     Checking if some PAW data can be deallocated... 

     total cpu time spent up to now is        1.3 secs

     Self-consistent Calculation

     iteration #  1     ecut=    60.00 Ry     beta= 0.70
     Davidson diagonalization with overlap
     ethr =  1.00E-02,  avg # of iterations =  4.7

     Threshold (ethr) on eigenvalues was too large:
     Diagonalizing with lowered threshold

     Davidson diagonalization with overlap
     ethr =  4.41E-05,  avg # of iterations =  2.6

     total cpu time spent up to now is        2.1 secs

     total energy              =    -350.23523092 Ry
     Harris-Foulkes estimate   =    -350.23867933 Ry
     estimated scf accuracy    <       0.00522606 Ry

     iteration #  2     ecut=    60.00 Ry     beta= 0.70
     Davidson diagonalization with overlap
     ethr =  4.75E-05,  avg # of iterations =  2.0

     total cpu time spent up to now is        2.5 secs

     total energy              =    -350.23671884 Ry
     Harris-Foulkes estimate   =    -350.23863533 Ry
     estimated scf accuracy    <       0.00399163 Ry

     iteration #  3     ecut=    60.00 Ry     beta= 0.70
     Davidson diagonalization with overlap
     ethr =  3.63E-05,  avg # of iterations =  1.7

     total cpu time spent up to now is        2.9 secs

     total energy              =    -350.23748292 Ry
     Harris-Foulkes estimate   =    -350.23746615 Ry
     estimated scf accuracy    <       0.00001441 Ry

     iteration #  4     ecut=    60.00 Ry     beta= 0.70
     Davidson diagonalization with overlap
     ethr =  1.31E-07,  avg # of iterations =  2.9

     total cpu time spent up to now is        3.3 secs

     total energy              =    -350.23749112 Ry
     Harris-Foulkes estimate   =    -350.23749094 Ry
     estimated scf accuracy    <       0.00000050 Ry

     iteration #  5     ecut=    60.00 Ry     beta= 0.70
     Davidson diagonalization with overlap
     ethr =  4.50E-09,  avg # of iterations =  1.1

     total cpu time spent up to now is        3.7 secs

     End of self-consistent calculation

          k = 0.0000 0.0000 0.0000 (   893 PWs)   bands (ev):

     4.8057   7.9224   7.9224   7.9224   8.9762   8.9762  29.5443  32.8298
    32.8298  37.1489

          k =-0.1250 0.1250-0.1250 (   914 PWs)   bands (ev):

     5.2773   7.8314   8.0425   8.0425   8.9413   8.9413  28.5834  30.4443
    32.7848  32.7848

          k =-0.2500 0.2500-0.2500 (   902 PWs)   bands (ev):

     6.2256   8.1143   8.1269   8.1269   9.1024   9.1024  23.8387  29.9530
    32.3607  32.3607

          k =-0.3750 0.3750-0.3750 (   911 PWs)   bands (ev):

     6.3595   7.9838   7.9838   9.5506   9.5506  10.1387  19.1301  29.0155
    31.3755  31.3755

          k = 0.5000-0.5000 0.5000 (   886 PWs)   bands (ev):

     6.2834   7.9015   7.9015   9.7801   9.7801  12.1897  16.2557  28.5895
    30.8291  30.8291

          k = 0.0000 0.2500 0.0000 (   909 PWs)   bands (ev):

     5.4363   7.6761   8.1600   8.1600   8.7473   9.0841  29.5661  30.8646
    30.8646  30.9686

          k =-0.1250 0.3750-0.1250 (   905 PWs)   bands (ev):

     6.3060   7.5174   8.2153   8.3531   8.9626   9.2567  25.8043  29.5100
    29.6820  32.1513

          k =-0.2500 0.5000-0.2500 (   908 PWs)   bands (ev):

     6.6424   7.9153   8.2022   8.2796   9.6310  10.4262  20.9066  28.7236
    28.7997  30.5017

          k = 0.6250-0.3750 0.6250 (   901 PWs)   bands (ev):

     6.5460   7.7481   8.1420   8.9383   9.7960  12.9289  16.8633  27.4551
    29.0707  29.4888

          k = 0.5000-0.2500 0.5000 (   908 PWs)   bands (ev):

     6.6040   7.8021   8.1371   8.9424   9.4908  12.1561  18.0443  26.6957
    29.7058  30.6437

          k = 0.3750-0.1250 0.3750 (   903 PWs)   bands (ev):

     6.7155   7.8575   8.1981   8.2875   8.9180  10.1662  22.5323  26.7732
    31.1090  33.4203

          k = 0.2500 0.0000 0.2500 (   915 PWs)   bands (ev):

     5.9824   7.6431   8.1965   8.2370   8.7160   9.2505  27.3831  27.5396
    32.3780  33.8411

          k = 0.0000 0.5000 0.0000 (   902 PWs)   bands (ev):

     6.6460   7.1182   8.8070   8.8070   8.8796   9.3525  27.3841  27.3841
    28.4717  29.6329

          k =-0.1250 0.6250-0.1250 (   898 PWs)   bands (ev):

     6.7823   7.0437   8.5936   8.9240   9.6683  10.7440  23.2314  26.0797
    26.2393  29.7599

          k = 0.7500-0.2500 0.7500 (   898 PWs)   bands (ev):

     6.7721   7.3451   8.3892   8.7725   9.8377  13.6550  18.7762  23.8975
    26.3778  29.5165

          k = 0.6250-0.1250 0.6250 (   905 PWs)   bands (ev):

     6.9997   7.5712   8.1953   8.6485   9.5180  14.8282  17.6487  22.4522
    27.9077  29.5872

          k = 0.5000 0.0000 0.5000 (   907 PWs)   bands (ev):

     7.3332   7.5765   7.9561   8.5903   8.9853  12.1226  21.9352  22.0476
    30.2420  30.4970

          k = 0.0000 0.7500 0.0000 (   910 PWs)   bands (ev):

     6.4923   6.6039   9.5983   9.5983   9.6307  11.5405  23.0617  24.5576
    24.5576  29.7119

          k = 0.8750-0.1250 0.8750 (   911 PWs)   bands (ev):

     6.4604   6.6338   9.3717   9.4806   9.8992  14.0277  20.6368  21.6801
    24.2670  29.7098

          k = 0.7500 0.0000 0.7500 (   902 PWs)   bands (ev):

     6.6970   7.1173   8.6328   9.1987   9.7041  16.9296  17.9225  19.7968
    25.5250  29.6056

          k = 0.0000-1.0000 0.0000 (   934 PWs)   bands (ev):

     6.2525   6.4017   9.7491   9.9883   9.9883  14.2123  19.3787  23.4491
    23.4491  29.7469

          k =-0.2500 0.5000 0.0000 (   904 PWs)   bands (ev):

     7.0382   7.2802   8.0006   8.8043   8.9911  10.2499  24.6088  24.9009
    29.1125  32.5043

          k = 0.6250-0.3750 0.8750 (   903 PWs)   bands (ev):

     7.0141   7.6092   7.9319   8.7095   9.4865  12.3875  20.0262  24.4911
    26.8772  32.1497

          k = 0.5000-0.2500 0.7500 (   890 PWs)   bands (ev):

     6.9581   7.4638   8.3405   8.5348   9.7039  14.9249  16.6044  25.1264
    25.3429  31.6133

          k = 0.7500-0.2500 1.0000 (   896 PWs)   bands (ev):

     6.8428   6.8783   8.5179   9.4456   9.5910  12.8651  22.4711  22.6234
    23.6070  32.0007

          k = 0.6250-0.1250 0.8750 (   906 PWs)   bands (ev):

     6.9283   7.2236   8.1808   9.0743   9.8205  15.9890  18.4966  21.4602
    23.2640  32.3183

          k = 0.5000 0.0000 0.7500 (   903 PWs)   bands (ev):

     7.2353   7.5836   7.6530   8.9295   9.5880  15.0882  19.5805  20.6124
    24.7910  32.8091

          k =-0.2500-1.0000 0.0000 (   916 PWs)   bands (ev):

     6.5769   6.7150   9.0142   9.4250   9.9890  15.7165  19.4686  21.6745
    21.9839  31.8195

          k =-0.5000-1.0000 0.0000 (   892 PWs)   bands (ev):

     7.0148   7.6334   7.6334   8.9827   9.9901  18.6030  18.6030  19.6806
    20.8509  36.0154

     the Fermi energy is    12.4890 ev

!    total energy              =    -350.23749115 Ry
     Harris-Foulkes estimate   =    -350.23749115 Ry
     estimated scf accuracy    <          5.3E-09 Ry

     total all-electron energy =    -10627.247900 Ry

     The total energy is the sum of the following terms:

     one-electron contribution =       1.60878625 Ry
     hartree contribution      =      14.57414687 Ry
     xc contribution           =     -22.14452374 Ry
     ewald contribution        =     -71.86118019 Ry
     one-center paw contrib.   =    -272.41441602 Ry
     smearing contrib. (-TS)   =      -0.00030431 Ry

     convergence has been achieved in   5 iterations

     Forces acting on atoms (cartesian axes, Ry/au):

     atom    1 type  1   force =     0.00000000    0.00000000    0.00000000

     Total force =     0.000000     Total SCF correction =     0.000000


     Computing stress (Cartesian axis) and pressure

          total   stress  (Ry/bohr**3)                   (kbar)     P=  -24.83
  -0.00016879   0.00000000   0.00000000        -24.83      0.00      0.00
   0.00000000  -0.00016879  -0.00000000          0.00    -24.83     -0.00
   0.00000000  -0.00000000  -0.00016879          0.00     -0.00    -24.83


     Writing output data file Ag.save/

     init_run     :      0.40s CPU      0.44s WALL (       1 calls)
     electrons    :      2.23s CPU      2.36s WALL (       1 calls)
     forces       :      0.04s CPU      0.04s WALL (       1 calls)
     stress       :      0.12s CPU      0.12s WALL (       1 calls)

     Called by init_run:
     wfcinit      :      0.10s CPU      0.11s WALL (       1 calls)
     potinit      :      0.10s CPU      0.12s WALL (       1 calls)
     hinit0       :      0.17s CPU      0.17s WALL (       1 calls)

     Called by electrons:
     c_bands      :      1.37s CPU      1.43s WALL (       6 calls)
     sum_band     :      0.29s CPU      0.30s WALL (       6 calls)
     v_of_rho     :      0.03s CPU      0.03s WALL (       6 calls)
     newd         :      0.05s CPU      0.05s WALL (       6 calls)
     PAW_pot      :      0.60s CPU      0.66s WALL (       6 calls)
     mix_rho      :      0.00s CPU      0.00s WALL (       6 calls)

     Called by c_bands:
     init_us_2    :      0.05s CPU      0.05s WALL (     435 calls)
     cegterg      :      1.30s CPU      1.37s WALL (     174 calls)

     Called by sum_band:
     sum_band:bec :      0.00s CPU      0.00s WALL (     174 calls)
     addusdens    :      0.04s CPU      0.04s WALL (       6 calls)

     Called by *egterg:
     h_psi        :      1.06s CPU      1.12s WALL (     637 calls)
     s_psi        :      0.03s CPU      0.03s WALL (     637 calls)
     g_psi        :      0.00s CPU      0.00s WALL (     434 calls)
     cdiaghg      :      0.12s CPU      0.13s WALL (     579 calls)

     Called by h_psi:
     h_psi:pot    :      1.06s CPU      1.12s WALL (     637 calls)
     h_psi:calbec :      0.05s CPU      0.05s WALL (     637 calls)
     vloc_psi     :      0.98s CPU      1.03s WALL (     637 calls)
     add_vuspsi   :      0.03s CPU      0.03s WALL (     637 calls)

     General routines
     calbec       :      0.08s CPU      0.08s WALL (     956 calls)
     fft          :      0.02s CPU      0.02s WALL (      93 calls)
     ffts         :      0.00s CPU      0.00s WALL (       6 calls)
     fftw         :      1.09s CPU      1.15s WALL (   10792 calls)

     Parallel routines
     fft_scatt_xy :      0.09s CPU      0.10s WALL (   10891 calls)
     fft_scatt_yz :      0.28s CPU      0.29s WALL (   10891 calls)

     PWSCF        :     3.68s CPU         3.91s WALL


   This run was terminated on:   0:27:11  27Mar2024            

=------------------------------------------------------------------------------=
   JOB DONE.
=------------------------------------------------------------------------------=
