
     Program PWSCF v.6.3MaX starts on 27Mar2024 at  0:20: 7 

     This program is part of the open-source Quantum ESPRESSO suite
     for quantum simulation of materials; please cite
         "P. Giannozzi et al., J. Phys.:Condens. Matter 21 395502 (2009);
         "P. Giannozzi et al., J. Phys.:Condens. Matter 29 465901 (2017);
          URL http://www.quantum-espresso.org", 
     in publications or presentations arising from this work. More details at
     http://www.quantum-espresso.org/quote

     Parallel version (MPI), running on     5 processors

     MPI processes distributed on     1 nodes
     R & G space division:  proc/nbgrp/npool/nimage =       5
     Waiting for input...
     Reading input from standard input

     Current dimensions of program PWSCF are:
     Max number of different atomic species (ntypx) = 10
     Max number of k-points (npk) =  40000
     Max angular momentum in pseudopotentials (lmaxx) =  3
               file Ag.pbesol-n-kjpaw_psl.1.0.0.UPF: wavefunction(s)  5S 5P renormalized

     Subspace diagonalization in iterative solution of the eigenvalue problem:
     a serial algorithm will be used


     Parallelization info
     --------------------
     sticks:   dense  smooth     PW     G-vecs:    dense   smooth      PW
     Min          73      73     24                  928      928     178
     Max          74      74     25                  930      930     181
     Sum         367     367    121                 4645     4645     893



     bravais-lattice index     =            2
     lattice parameter (alat)  =       7.7200  a.u.
     unit-cell volume          =     115.0249 (a.u.)^3
     number of atoms/cell      =            1
     number of atomic types    =            1
     number of electrons       =        11.00
     number of Kohn-Sham states=           10
     kinetic-energy cutoff     =      45.0000  Ry
     charge density cutoff     =     180.0000  Ry
     convergence threshold     =      1.0E-08
     mixing beta               =       0.7000
     number of iterations used =            8  plain     mixing
     Exchange-correlation      = SLA PW PSX PSC ( 1  4 10  8 0 0)

     celldm(1)=   7.720000  celldm(2)=   0.000000  celldm(3)=   0.000000
     celldm(4)=   0.000000  celldm(5)=   0.000000  celldm(6)=   0.000000

     crystal axes: (cart. coord. in units of alat)
               a(1) = (  -0.500000   0.000000   0.500000 )  
               a(2) = (   0.000000   0.500000   0.500000 )  
               a(3) = (  -0.500000   0.500000   0.000000 )  

     reciprocal axes: (cart. coord. in units 2 pi/alat)
               b(1) = ( -1.000000 -1.000000  1.000000 )  
               b(2) = (  1.000000  1.000000  1.000000 )  
               b(3) = ( -1.000000  1.000000 -1.000000 )  


     PseudoPot. # 1 for Ag read from file:
     /home/lorenzo/pseudos/Ag/Ag.pbesol-n-kjpaw_psl.1.0.0.UPF
     MD5 check sum: 3b245e14fa22881b2ac493bfd23f605f
     Pseudo is Projector augmented-wave + core cor, Zval = 11.0
     Generated using "atomic" code by A. Dal Corso v.6.2.2
     Shape of augmentation charge: PSQ
     Using radial grid of 1237 points,  6 beta functions with: 
                l(1) =   0
                l(2) =   0
                l(3) =   1
                l(4) =   1
                l(5) =   2
                l(6) =   2
     Q(r) pseudized with 0 coefficients 


     atomic species   valence    mass     pseudopotential
        Ag            11.00   107.86820     Ag( 1.00)

     48 Sym. Ops., with inversion, found



   Cartesian axes

     site n.     atom                  positions (alat units)
         1           Ag  tau(   1) = (   0.0000000   0.0000000   0.0000000  )

     number of k points=    35  gaussian smearing, width (Ry)=  0.0100
                       cart. coord. in units 2pi/alat
        k(    1) = (   0.0000000   0.0000000   0.0000000), wk =   0.0027435
        k(    2) = (  -0.1111111   0.1111111  -0.1111111), wk =   0.0219479
        k(    3) = (  -0.2222222   0.2222222  -0.2222222), wk =   0.0219479
        k(    4) = (  -0.3333333   0.3333333  -0.3333333), wk =   0.0219479
        k(    5) = (  -0.4444444   0.4444444  -0.4444444), wk =   0.0219479
        k(    6) = (   0.0000000   0.2222222   0.0000000), wk =   0.0164609
        k(    7) = (  -0.1111111   0.3333333  -0.1111111), wk =   0.0658436
        k(    8) = (  -0.2222222   0.4444444  -0.2222222), wk =   0.0658436
        k(    9) = (  -0.3333333   0.5555556  -0.3333333), wk =   0.0658436
        k(   10) = (   0.5555556  -0.3333333   0.5555556), wk =   0.0658436
        k(   11) = (   0.4444444  -0.2222222   0.4444444), wk =   0.0658436
        k(   12) = (   0.3333333  -0.1111111   0.3333333), wk =   0.0658436
        k(   13) = (   0.2222222  -0.0000000   0.2222222), wk =   0.0329218
        k(   14) = (   0.0000000   0.4444444   0.0000000), wk =   0.0164609
        k(   15) = (  -0.1111111   0.5555556  -0.1111111), wk =   0.0658436
        k(   16) = (  -0.2222222   0.6666667  -0.2222222), wk =   0.0658436
        k(   17) = (   0.6666667  -0.2222222   0.6666667), wk =   0.0658436
        k(   18) = (   0.5555556  -0.1111111   0.5555556), wk =   0.0658436
        k(   19) = (   0.4444444   0.0000000   0.4444444), wk =   0.0329218
        k(   20) = (   0.0000000   0.6666667   0.0000000), wk =   0.0164609
        k(   21) = (  -0.1111111   0.7777778  -0.1111111), wk =   0.0658436
        k(   22) = (   0.7777778  -0.1111111   0.7777778), wk =   0.0658436
        k(   23) = (   0.6666667  -0.0000000   0.6666667), wk =   0.0329218
        k(   24) = (   0.0000000   0.8888889   0.0000000), wk =   0.0164609
        k(   25) = (   0.8888889   0.0000000   0.8888889), wk =   0.0329218
        k(   26) = (  -0.2222222   0.4444444   0.0000000), wk =   0.0658436
        k(   27) = (  -0.3333333   0.5555556  -0.1111111), wk =   0.1316872
        k(   28) = (   0.5555556  -0.3333333   0.7777778), wk =   0.1316872
        k(   29) = (  -0.2222222   0.6666667   0.0000000), wk =   0.0658436
        k(   30) = (   0.6666667  -0.2222222   0.8888889), wk =   0.1316872
        k(   31) = (   0.5555556  -0.1111111   0.7777778), wk =   0.1316872
        k(   32) = (   0.4444444   0.0000000   0.6666667), wk =   0.0658436
        k(   33) = (   0.7777778  -0.1111111   1.0000000), wk =   0.0658436
        k(   34) = (   0.6666667  -0.0000000   0.8888889), wk =   0.0658436
        k(   35) = (   0.5555556  -0.1111111   1.0000000), wk =   0.0658436

     Dense  grid:     4645 G-vectors     FFT dimensions: (  24,  24,  24)

     Estimated max dynamical RAM per process >       5.44 MB

     Estimated total dynamical RAM >      27.18 MB

     Initial potential from superposition of free atoms

     starting charge   10.99964, renormalised to   11.00000
     Starting wfcs are    9 randomized atomic wfcs +    1 random wfcs
     Checking if some PAW data can be deallocated... 

     total cpu time spent up to now is        1.3 secs

     Self-consistent Calculation

     iteration #  1     ecut=    45.00 Ry     beta= 0.70
     Davidson diagonalization with overlap
     ethr =  1.00E-02,  avg # of iterations =  4.6

     Threshold (ethr) on eigenvalues was too large:
     Diagonalizing with lowered threshold

     Davidson diagonalization with overlap
     ethr =  4.81E-05,  avg # of iterations =  2.3

     total cpu time spent up to now is        2.2 secs

     total energy              =    -350.23292697 Ry
     Harris-Foulkes estimate   =    -350.23655933 Ry
     estimated scf accuracy    <       0.00568376 Ry

     iteration #  2     ecut=    45.00 Ry     beta= 0.70
     Davidson diagonalization with overlap
     ethr =  5.17E-05,  avg # of iterations =  2.0

     total cpu time spent up to now is        2.7 secs

     total energy              =    -350.23448691 Ry
     Harris-Foulkes estimate   =    -350.23651225 Ry
     estimated scf accuracy    <       0.00416221 Ry

     iteration #  3     ecut=    45.00 Ry     beta= 0.70
     Davidson diagonalization with overlap
     ethr =  3.78E-05,  avg # of iterations =  1.7

     total cpu time spent up to now is        3.1 secs

     total energy              =    -350.23530551 Ry
     Harris-Foulkes estimate   =    -350.23528668 Ry
     estimated scf accuracy    <       0.00001609 Ry

     iteration #  4     ecut=    45.00 Ry     beta= 0.70
     Davidson diagonalization with overlap
     ethr =  1.46E-07,  avg # of iterations =  2.9

     total cpu time spent up to now is        3.6 secs

     total energy              =    -350.23531426 Ry
     Harris-Foulkes estimate   =    -350.23531403 Ry
     estimated scf accuracy    <       0.00000045 Ry

     iteration #  5     ecut=    45.00 Ry     beta= 0.70
     Davidson diagonalization with overlap
     ethr =  4.07E-09,  avg # of iterations =  1.3

     total cpu time spent up to now is        4.0 secs

     End of self-consistent calculation

          k = 0.0000 0.0000 0.0000 (   561 PWs)   bands (ev):

     4.8066   7.9225   7.9225   7.9225   8.9740   8.9740  29.5460  32.8304
    32.8304  37.1536

          k =-0.1111 0.1111-0.1111 (   576 PWs)   bands (ev):

     5.1832   7.8450   8.0214   8.0214   8.9427   8.9427  28.9626  30.5752
    32.7994  32.7994

          k =-0.2222 0.2222-0.2222 (   582 PWs)   bands (ev):

     6.0562   7.9295   8.1352   8.1352   9.0265   9.0265  24.9406  30.1184
    32.5142  32.5143

          k =-0.3333 0.3333-0.3333 (   589 PWs)   bands (ev):

     6.3858   8.0363   8.0363   9.3010   9.3994   9.3994  20.6259  29.3149
    31.7204  31.7204

          k =-0.4444 0.4444-0.4444 (   592 PWs)   bands (ev):

     6.3017   7.9181   7.9181   9.7287   9.7287  11.5884  17.0194  28.6789
    30.9473  30.9473

          k = 0.0000 0.2222 0.0000 (   569 PWs)   bands (ev):

     5.3100   7.7252   8.1109   8.1109   8.7866   9.0604  29.5623  31.2203
    31.2203  31.2252

          k =-0.1111 0.3333-0.1111 (   580 PWs)   bands (ev):

     6.0594   7.5671   8.2338   8.2914   8.8256   9.1815  26.6651  29.8378
    30.0317  32.5621

          k =-0.2222 0.4444-0.2222 (   592 PWs)   bands (ev):

     6.6018   7.9968   8.0198   8.2740   9.4927   9.7554  22.2593  29.1843
    29.2596  31.4007

          k =-0.3333 0.5556-0.3333 (   588 PWs)   bands (ev):

     6.5319   7.8186   8.1406   8.8233   9.7684  11.7197  18.2511  28.2318
    29.1058  29.9288

          k = 0.5556-0.3333 0.5556 (   583 PWs)   bands (ev):

     6.4988   7.7765   8.0727   9.1635   9.7130  13.0739  16.4398  27.4073
    29.4811  29.8841

          k = 0.4444-0.2222 0.4444 (   588 PWs)   bands (ev):

     6.6028   7.8897   8.1383   8.8064   9.3143  11.1113  19.5316  27.1221
    30.0902  31.7160

          k = 0.3333-0.1111 0.3333 (   587 PWs)   bands (ev):

     6.5674   7.7717   8.1798   8.2844   8.8258   9.7459  23.7312  27.4171
    31.5901  34.2324

          k = 0.2222-0.0000 0.2222 (   578 PWs)   bands (ev):

     5.7617   7.6872   8.1738   8.1761   8.7562   9.1463  28.0899  28.0909
    32.1476  34.4186

          k = 0.0000 0.4444 0.0000 (   576 PWs)   bands (ev):

     6.4605   7.2513   8.6363   8.6363   8.6708   9.2837  28.1477  28.1477
    29.2288  29.6148

          k =-0.1111 0.5556-0.1111 (   587 PWs)   bands (ev):

     6.8163   7.1310   8.4277   8.7883   9.5375   9.9467  24.3009  26.9735
    27.5845  29.9097

          k =-0.2222 0.6667-0.2222 (   587 PWs)   bands (ev):

     6.7774   7.4105   8.3017   8.6794   9.8094  12.1677  20.1270  25.5520
    26.6962  29.5811

          k = 0.6667-0.2222 0.6667 (   580 PWs)   bands (ev):

     6.8453   7.5331   8.3637   8.5520   9.7359  14.8465  16.7703  23.9912
    27.4898  29.4526

          k = 0.5556-0.1111 0.5556 (   591 PWs)   bands (ev):

     7.0728   7.6255   8.2119   8.5131   9.3115  13.2594  19.0367  23.1360
    29.3056  29.8003

          k = 0.4444 0.0000 0.4444 (   586 PWs)   bands (ev):

     7.2751   7.5114   8.0165   8.5563   8.8029  11.1648  23.0116  23.1755
    30.7434  31.8234

          k = 0.0000 0.6667 0.0000 (   576 PWs)   bands (ev):

     6.6287   6.7511   9.3458   9.3458   9.5459  10.4400  24.9423  25.3546
    25.3546  29.6868

          k =-0.1111 0.7778-0.1111 (   593 PWs)   bands (ev):

     6.5550   6.7073   9.2181   9.3415   9.8320  12.5490  22.2218  22.8170
    24.7255  29.7103

          k = 0.7778-0.1111 0.7778 (   588 PWs)   bands (ev):

     6.6524   7.0253   8.7427   9.1748   9.8057  15.4304  18.8200  20.9412
    25.2963  29.6054

          k = 0.6667-0.0000 0.6667 (   598 PWs)   bands (ev):

     6.9425   7.5190   8.1436   8.9285   9.4959  15.7976  18.4636  20.1942
    26.9554  29.6087

          k = 0.0000 0.8889 0.0000 (   596 PWs)   bands (ev):

     6.3040   6.4436   9.7220   9.9023   9.9023  13.4288  20.3639  23.6772
    23.6772  29.7380

          k = 0.8889 0.0000 0.8889 (   598 PWs)   bands (ev):

     6.3727   6.5401   9.5803   9.6131   9.9288  14.8898  19.4095  21.7266
    23.8869  29.7358

          k =-0.2222 0.4444 0.0000 (   587 PWs)   bands (ev):

     6.7836   7.3553   8.0900   8.6361   8.8934   9.7842  25.5249  25.8279
    30.2489  32.2004

          k =-0.3333 0.5556-0.1111 (   586 PWs)   bands (ev):

     6.9712   7.7346   7.8420   8.6284   9.3329  11.2851  21.3476  25.2319
    28.1993  32.1690

          k = 0.5556-0.3333 0.7778 (   586 PWs)   bands (ev):

     6.8586   7.5698   8.3353   8.5206   9.6688  13.6308  17.5497  25.4969
    26.5425  31.3572

          k =-0.2222 0.6667 0.0000 (   587 PWs)   bands (ev):

     6.9297   6.9448   8.4027   9.3377   9.4062  11.5904  23.4434  23.6160
    25.2679  31.7271

          k = 0.6667-0.2222 0.8889 (   583 PWs)   bands (ev):

     6.9110   7.2061   8.1986   9.0877   9.7359  14.0962  19.6211  23.1635
    23.7828  31.8662

          k = 0.5556-0.1111 0.7778 (   587 PWs)   bands (ev):

     7.1003   7.4130   7.9898   8.8604   9.6868  16.1069  17.4050  21.8494
    24.6734  32.0683

          k = 0.4444 0.0000 0.6667 (   579 PWs)   bands (ev):

     7.4419   7.4822   7.6019   8.9160   9.3441  13.4282  20.9140  21.3513
    26.2716  32.8478

          k = 0.7778-0.1111 1.0000 (   587 PWs)   bands (ev):

     6.5700   6.6849   9.0349   9.5215   9.9010  14.5646  20.5049  22.1843
    22.3898  31.4727

          k = 0.6667-0.0000 0.8889 (   594 PWs)   bands (ev):

     6.7715   7.0484   8.4908   9.1895   9.8950  16.8460  18.9048  19.8223
    23.1183  31.8610

          k = 0.5556-0.1111 1.0000 (   587 PWs)   bands (ev):

     7.0428   7.3945   7.8510   9.0239   9.8975  16.6678  19.4970  20.3675
    21.7466  35.0369

     the Fermi energy is    12.9261 ev

!    total energy              =    -350.23531429 Ry
     Harris-Foulkes estimate   =    -350.23531429 Ry
     estimated scf accuracy    <          1.8E-09 Ry

     total all-electron energy =    -10627.245723 Ry

     The total energy is the sum of the following terms:

     one-electron contribution =       1.61523892 Ry
     hartree contribution      =      14.56421617 Ry
     xc contribution           =     -22.14140716 Ry
     ewald contribution        =     -71.86118027 Ry
     one-center paw contrib.   =    -272.41212431 Ry
     smearing contrib. (-TS)   =      -0.00005765 Ry

     convergence has been achieved in   5 iterations

     Forces acting on atoms (cartesian axes, Ry/au):

     atom    1 type  1   force =     0.00000000    0.00000000    0.00000000

     Total force =     0.000000     Total SCF correction =     0.000000


     Computing stress (Cartesian axis) and pressure

          total   stress  (Ry/bohr**3)                   (kbar)     P=  -29.03
  -0.00019731  -0.00000000  -0.00000000        -29.03     -0.00     -0.00
  -0.00000000  -0.00019731   0.00000000         -0.00    -29.03      0.00
  -0.00000000   0.00000000  -0.00019731         -0.00      0.00    -29.03


     Writing output data file Ag.save/

     init_run     :      0.38s CPU      0.41s WALL (       1 calls)
     electrons    :      2.51s CPU      2.71s WALL (       1 calls)
     forces       :      0.04s CPU      0.04s WALL (       1 calls)
     stress       :      0.13s CPU      0.13s WALL (       1 calls)

     Called by init_run:
     wfcinit      :      0.09s CPU      0.09s WALL (       1 calls)
     potinit      :      0.12s CPU      0.13s WALL (       1 calls)
     hinit0       :      0.15s CPU      0.15s WALL (       1 calls)

     Called by electrons:
     c_bands      :      1.58s CPU      1.67s WALL (       6 calls)
     sum_band     :      0.29s CPU      0.31s WALL (       6 calls)
     v_of_rho     :      0.02s CPU      0.02s WALL (       6 calls)
     newd         :      0.04s CPU      0.04s WALL (       6 calls)
     PAW_pot      :      0.70s CPU      0.80s WALL (       6 calls)
     mix_rho      :      0.00s CPU      0.00s WALL (       6 calls)

     Called by c_bands:
     init_us_2    :      0.05s CPU      0.05s WALL (     525 calls)
     cegterg      :      1.50s CPU      1.59s WALL (     210 calls)

     Called by sum_band:
     sum_band:bec :      0.00s CPU      0.00s WALL (     210 calls)
     addusdens    :      0.03s CPU      0.03s WALL (       6 calls)

     Called by *egterg:
     h_psi        :      1.14s CPU      1.22s WALL (     765 calls)
     s_psi        :      0.03s CPU      0.04s WALL (     765 calls)
     g_psi        :      0.00s CPU      0.00s WALL (     520 calls)
     cdiaghg      :      0.19s CPU      0.20s WALL (     695 calls)

     Called by h_psi:
     h_psi:pot    :      1.14s CPU      1.21s WALL (     765 calls)
     h_psi:calbec :      0.06s CPU      0.07s WALL (     765 calls)
     vloc_psi     :      1.03s CPU      1.10s WALL (     765 calls)
     add_vuspsi   :      0.03s CPU      0.04s WALL (     765 calls)

     General routines
     calbec       :      0.11s CPU      0.11s WALL (    1150 calls)
     fft          :      0.02s CPU      0.02s WALL (      93 calls)
     ffts         :      0.00s CPU      0.00s WALL (       6 calls)
     fftw         :      1.15s CPU      1.22s WALL (   13002 calls)

     Parallel routines
     fft_scatt_xy :      0.10s CPU      0.11s WALL (   13101 calls)
     fft_scatt_yz :      0.46s CPU      0.48s WALL (   13101 calls)

     PWSCF        :     4.04s CPU         4.33s WALL


   This run was terminated on:   0:20:11  27Mar2024            

=------------------------------------------------------------------------------=
   JOB DONE.
=------------------------------------------------------------------------------=
