
     Program PWSCF v.6.3MaX starts on 27Mar2024 at  0:34: 9 

     This program is part of the open-source Quantum ESPRESSO suite
     for quantum simulation of materials; please cite
         "P. Giannozzi et al., J. Phys.:Condens. Matter 21 395502 (2009);
         "P. Giannozzi et al., J. Phys.:Condens. Matter 29 465901 (2017);
          URL http://www.quantum-espresso.org", 
     in publications or presentations arising from this work. More details at
     http://www.quantum-espresso.org/quote

     Parallel version (MPI), running on     5 processors

     MPI processes distributed on     1 nodes
     R & G space division:  proc/nbgrp/npool/nimage =       5
     Waiting for input...
     Reading input from standard input

     Current dimensions of program PWSCF are:
     Max number of different atomic species (ntypx) = 10
     Max number of k-points (npk) =  40000
     Max angular momentum in pseudopotentials (lmaxx) =  3

     Subspace diagonalization in iterative solution of the eigenvalue problem:
     a serial algorithm will be used


     Parallelization info
     --------------------
     sticks:   dense  smooth     PW     G-vecs:    dense   smooth      PW
     Min         122     122     37                 2016     2016     327
     Max         123     123     38                 2017     2017     329
     Sum         613     613    187                10081    10081    1639



     bravais-lattice index     =            2
     lattice parameter (alat)  =       7.7200  a.u.
     unit-cell volume          =     115.0249 (a.u.)^3
     number of atoms/cell      =            1
     number of atomic types    =            1
     number of electrons       =        11.00
     number of Kohn-Sham states=           10
     kinetic-energy cutoff     =      75.0000  Ry
     charge density cutoff     =     300.0000  Ry
     convergence threshold     =      1.0E-08
     mixing beta               =       0.7000
     number of iterations used =            8  plain     mixing
     Exchange-correlation      = PBESOL ( 1  4 10  8 0 0)

     celldm(1)=   7.720000  celldm(2)=   0.000000  celldm(3)=   0.000000
     celldm(4)=   0.000000  celldm(5)=   0.000000  celldm(6)=   0.000000

     crystal axes: (cart. coord. in units of alat)
               a(1) = (  -0.500000   0.000000   0.500000 )  
               a(2) = (   0.000000   0.500000   0.500000 )  
               a(3) = (  -0.500000   0.500000   0.000000 )  

     reciprocal axes: (cart. coord. in units 2 pi/alat)
               b(1) = ( -1.000000 -1.000000  1.000000 )  
               b(2) = (  1.000000  1.000000  1.000000 )  
               b(3) = ( -1.000000  1.000000 -1.000000 )  


     PseudoPot. # 1 for Ag read from file:
     /home/lorenzo/pseudos/Ag/Ag.pbesol-n-rrkjus_psl.1.0.0.UPF
     MD5 check sum: 3b43e8aa747a56f565f44d11355b8b45
     Pseudo is Ultrasoft + core correction, Zval = 11.0
     Generated using "atomic" code by A. Dal Corso v.6.2.2
     Using radial grid of 1237 points,  6 beta functions with: 
                l(1) =   0
                l(2) =   0
                l(3) =   1
                l(4) =   1
                l(5) =   2
                l(6) =   2
     Q(r) pseudized with 0 coefficients 


     atomic species   valence    mass     pseudopotential
        Ag            11.00   107.86820     Ag( 1.00)

     48 Sym. Ops., with inversion, found



   Cartesian axes

     site n.     atom                  positions (alat units)
         1           Ag  tau(   1) = (   0.0000000   0.0000000   0.0000000  )

     number of k points=     3  gaussian smearing, width (Ry)=  0.0100
                       cart. coord. in units 2pi/alat
        k(    1) = (   0.0000000   0.0000000   0.0000000), wk =   0.2500000
        k(    2) = (   0.5000000  -0.5000000   0.5000000), wk =   1.0000000
        k(    3) = (   0.0000000  -1.0000000   0.0000000), wk =   0.7500000

     Dense  grid:    10081 G-vectors     FFT dimensions: (  32,  32,  32)

     Estimated max dynamical RAM per process >       9.44 MB

     Estimated total dynamical RAM >      47.22 MB

     Initial potential from superposition of free atoms

     starting charge   10.99964, renormalised to   11.00000
     Starting wfcs are    9 randomized atomic wfcs +    1 random wfcs

     total cpu time spent up to now is        1.0 secs

     Self-consistent Calculation

     iteration #  1     ecut=    75.00 Ry     beta= 0.70
     Davidson diagonalization with overlap
     ethr =  1.00E-02,  avg # of iterations =  5.3

     Threshold (ethr) on eigenvalues was too large:
     Diagonalizing with lowered threshold

     Davidson diagonalization with overlap
     ethr =  1.87E-05,  avg # of iterations =  5.0

     total cpu time spent up to now is        1.1 secs

     total energy              =     -84.03338945 Ry
     Harris-Foulkes estimate   =     -84.03375059 Ry
     estimated scf accuracy    <       0.00186056 Ry

     iteration #  2     ecut=    75.00 Ry     beta= 0.70
     Davidson diagonalization with overlap
     ethr =  1.69E-05,  avg # of iterations =  3.0

     total cpu time spent up to now is        1.2 secs

     total energy              =     -84.03349024 Ry
     Harris-Foulkes estimate   =     -84.03362507 Ry
     estimated scf accuracy    <       0.00028154 Ry

     iteration #  3     ecut=    75.00 Ry     beta= 0.70
     Davidson diagonalization with overlap
     ethr =  2.56E-06,  avg # of iterations =  2.0

     total cpu time spent up to now is        1.3 secs

     total energy              =     -84.03354835 Ry
     Harris-Foulkes estimate   =     -84.03357876 Ry
     estimated scf accuracy    <       0.00006699 Ry

     iteration #  4     ecut=    75.00 Ry     beta= 0.70
     Davidson diagonalization with overlap
     ethr =  6.09E-07,  avg # of iterations =  2.0

     total cpu time spent up to now is        1.3 secs

     total energy              =     -84.03355936 Ry
     Harris-Foulkes estimate   =     -84.03355936 Ry
     estimated scf accuracy    <       0.00000006 Ry

     iteration #  5     ecut=    75.00 Ry     beta= 0.70
     Davidson diagonalization with overlap
     ethr =  5.36E-10,  avg # of iterations =  4.0

     total cpu time spent up to now is        1.4 secs

     total energy              =     -84.03355975 Ry
     Harris-Foulkes estimate   =     -84.03355976 Ry
     estimated scf accuracy    <       0.00000005 Ry

     iteration #  6     ecut=    75.00 Ry     beta= 0.70
     Davidson diagonalization with overlap
     ethr =  4.44E-10,  avg # of iterations =  1.0

     total cpu time spent up to now is        1.5 secs

     total energy              =     -84.03355974 Ry
     Harris-Foulkes estimate   =     -84.03355975 Ry
     estimated scf accuracy    <       0.00000002 Ry

     iteration #  7     ecut=    75.00 Ry     beta= 0.70
     Davidson diagonalization with overlap
     ethr =  2.19E-10,  avg # of iterations =  2.0

     total cpu time spent up to now is        1.5 secs

     End of self-consistent calculation

          k = 0.0000 0.0000 0.0000 (  1243 PWs)   bands (ev):

     4.8196   8.2205   8.2205   8.2205   9.3207   9.3207  29.4886  32.8647
    32.8647  32.8647

          k = 0.5000-0.5000 0.5000 (  1260 PWs)   bands (ev):

     6.4830   8.2054   8.2054  10.1352  10.1352  12.2027  16.4351  28.5524
    30.8916  30.8916

          k = 0.0000-1.0000 0.0000 (  1266 PWs)   bands (ev):

     6.4854   6.6474  10.1144  10.3429  10.3429  14.2287  19.5390  23.4918
    23.4918  29.8715

     the Fermi energy is    12.2676 ev

!    total energy              =     -84.03355975 Ry
     Harris-Foulkes estimate   =     -84.03355975 Ry
     estimated scf accuracy    <          8.6E-11 Ry

     The total energy is the sum of the following terms:

     one-electron contribution =      -4.75440740 Ry
     hartree contribution      =      14.79099682 Ry
     xc contribution           =     -22.20672197 Ry
     ewald contribution        =     -71.86118018 Ry
     smearing contrib. (-TS)   =      -0.00224702 Ry

     convergence has been achieved in   7 iterations

     Forces acting on atoms (cartesian axes, Ry/au):

     atom    1 type  1   force =     0.00000000    0.00000000    0.00000000

     Total force =     0.000000     Total SCF correction =     0.000000


     Computing stress (Cartesian axis) and pressure

          total   stress  (Ry/bohr**3)                   (kbar)     P=  221.17
   0.00150352   0.00000000   0.00000000        221.17      0.00      0.00
   0.00000000   0.00150352  -0.00000000          0.00    221.17     -0.00
   0.00000000  -0.00000000   0.00150352          0.00     -0.00    221.17


     Writing output data file Ag.save/

     init_run     :      0.25s CPU      0.25s WALL (       1 calls)
     electrons    :      0.49s CPU      0.52s WALL (       1 calls)
     forces       :      0.03s CPU      0.03s WALL (       1 calls)
     stress       :      0.11s CPU      0.11s WALL (       1 calls)

     Called by init_run:
     wfcinit      :      0.01s CPU      0.01s WALL (       1 calls)
     potinit      :      0.01s CPU      0.01s WALL (       1 calls)
     hinit0       :      0.20s CPU      0.20s WALL (       1 calls)

     Called by electrons:
     c_bands      :      0.25s CPU      0.26s WALL (       8 calls)
     sum_band     :      0.13s CPU      0.14s WALL (       8 calls)
     v_of_rho     :      0.05s CPU      0.05s WALL (       8 calls)
     newd         :      0.08s CPU      0.09s WALL (       8 calls)
     mix_rho      :      0.00s CPU      0.00s WALL (       8 calls)

     Called by c_bands:
     init_us_2    :      0.01s CPU      0.01s WALL (      57 calls)
     cegterg      :      0.23s CPU      0.25s WALL (      24 calls)

     Called by sum_band:
     sum_band:bec :      0.00s CPU      0.00s WALL (      24 calls)
     addusdens    :      0.08s CPU      0.08s WALL (       8 calls)

     Called by *egterg:
     h_psi        :      0.18s CPU      0.20s WALL (     100 calls)
     s_psi        :      0.01s CPU      0.01s WALL (     100 calls)
     g_psi        :      0.00s CPU      0.00s WALL (      73 calls)
     cdiaghg      :      0.02s CPU      0.02s WALL (      94 calls)

     Called by h_psi:
     h_psi:pot    :      0.18s CPU      0.19s WALL (     100 calls)
     h_psi:calbec :      0.01s CPU      0.01s WALL (     100 calls)
     vloc_psi     :      0.16s CPU      0.18s WALL (     100 calls)
     add_vuspsi   :      0.01s CPU      0.01s WALL (     100 calls)

     General routines
     calbec       :      0.01s CPU      0.01s WALL (     139 calls)
     fft          :      0.03s CPU      0.03s WALL (     115 calls)
     ffts         :      0.00s CPU      0.00s WALL (       8 calls)
     fftw         :      0.18s CPU      0.20s WALL (    1522 calls)

     Parallel routines
     fft_scatt_xy :      0.02s CPU      0.02s WALL (    1645 calls)
     fft_scatt_yz :      0.06s CPU      0.07s WALL (    1645 calls)

     PWSCF        :     1.63s CPU         1.70s WALL


   This run was terminated on:   0:34:10  27Mar2024            

=------------------------------------------------------------------------------=
   JOB DONE.
=------------------------------------------------------------------------------=
