
     Program PWSCF v.6.3MaX starts on 27Mar2024 at  0:21: 2 

     This program is part of the open-source Quantum ESPRESSO suite
     for quantum simulation of materials; please cite
         "P. Giannozzi et al., J. Phys.:Condens. Matter 21 395502 (2009);
         "P. Giannozzi et al., J. Phys.:Condens. Matter 29 465901 (2017);
          URL http://www.quantum-espresso.org", 
     in publications or presentations arising from this work. More details at
     http://www.quantum-espresso.org/quote

     Parallel version (MPI), running on     5 processors

     MPI processes distributed on     1 nodes
     R & G space division:  proc/nbgrp/npool/nimage =       5
     Waiting for input...
     Reading input from standard input

     Current dimensions of program PWSCF are:
     Max number of different atomic species (ntypx) = 10
     Max number of k-points (npk) =  40000
     Max angular momentum in pseudopotentials (lmaxx) =  3
               file Ag.pbe-n-kjpaw_psl.1.0.0.UPF: wavefunction(s)  5S 5P renormalized

     Subspace diagonalization in iterative solution of the eigenvalue problem:
     a serial algorithm will be used


     Parallelization info
     --------------------
     sticks:   dense  smooth     PW     G-vecs:    dense   smooth      PW
     Min          84      84     24                 1115     1115     187
     Max          85      85     25                 1117     1117     191
     Sum         421     421    121                 5577     5577     941



     bravais-lattice index     =            2
     lattice parameter (alat)  =       7.7200  a.u.
     unit-cell volume          =     115.0249 (a.u.)^3
     number of atoms/cell      =            1
     number of atomic types    =            1
     number of electrons       =        11.00
     number of Kohn-Sham states=           10
     kinetic-energy cutoff     =      50.0000  Ry
     charge density cutoff     =     200.0000  Ry
     convergence threshold     =      1.0E-08
     mixing beta               =       0.7000
     number of iterations used =            8  plain     mixing
     Exchange-correlation      = SLA PW PBX PBC ( 1  4  3  4 0 0)

     celldm(1)=   7.720000  celldm(2)=   0.000000  celldm(3)=   0.000000
     celldm(4)=   0.000000  celldm(5)=   0.000000  celldm(6)=   0.000000

     crystal axes: (cart. coord. in units of alat)
               a(1) = (  -0.500000   0.000000   0.500000 )  
               a(2) = (   0.000000   0.500000   0.500000 )  
               a(3) = (  -0.500000   0.500000   0.000000 )  

     reciprocal axes: (cart. coord. in units 2 pi/alat)
               b(1) = ( -1.000000 -1.000000  1.000000 )  
               b(2) = (  1.000000  1.000000  1.000000 )  
               b(3) = ( -1.000000  1.000000 -1.000000 )  


     PseudoPot. # 1 for Ag read from file:
     /home/lorenzo/pseudos/Ag/Ag.pbe-n-kjpaw_psl.1.0.0.UPF
     MD5 check sum: 51099775af2a3182a6a1caffb86952a3
     Pseudo is Projector augmented-wave + core cor, Zval = 11.0
     Generated using "atomic" code by A. Dal Corso v.6.2.2
     Shape of augmentation charge: PSQ
     Using radial grid of 1237 points,  6 beta functions with: 
                l(1) =   0
                l(2) =   0
                l(3) =   1
                l(4) =   1
                l(5) =   2
                l(6) =   2
     Q(r) pseudized with 0 coefficients 


     atomic species   valence    mass     pseudopotential
        Ag            11.00   107.86820     Ag( 1.00)

     48 Sym. Ops., with inversion, found



   Cartesian axes

     site n.     atom                  positions (alat units)
         1           Ag  tau(   1) = (   0.0000000   0.0000000   0.0000000  )

     number of k points=     3  gaussian smearing, width (Ry)=  0.0100
                       cart. coord. in units 2pi/alat
        k(    1) = (   0.0000000   0.0000000   0.0000000), wk =   0.2500000
        k(    2) = (   0.5000000  -0.5000000   0.5000000), wk =   1.0000000
        k(    3) = (   0.0000000  -1.0000000   0.0000000), wk =   0.7500000

     Dense  grid:     5577 G-vectors     FFT dimensions: (  25,  25,  25)

     Estimated max dynamical RAM per process >       5.62 MB

     Estimated total dynamical RAM >      28.10 MB

     Initial potential from superposition of free atoms

     starting charge   10.99960, renormalised to   11.00000
     Starting wfcs are    9 randomized atomic wfcs +    1 random wfcs
     Checking if some PAW data can be deallocated... 

     total cpu time spent up to now is        1.2 secs

     Self-consistent Calculation

     iteration #  1     ecut=    50.00 Ry     beta= 0.70
     Davidson diagonalization with overlap
     ethr =  1.00E-02,  avg # of iterations =  5.3

     Threshold (ethr) on eigenvalues was too large:
     Diagonalizing with lowered threshold

     Davidson diagonalization with overlap
     ethr =  2.12E-05,  avg # of iterations =  5.0

     total cpu time spent up to now is        1.4 secs

     total energy              =    -355.15500450 Ry
     Harris-Foulkes estimate   =    -355.15487475 Ry
     estimated scf accuracy    <       0.00213560 Ry

     iteration #  2     ecut=    50.00 Ry     beta= 0.70
     Davidson diagonalization with overlap
     ethr =  1.94E-05,  avg # of iterations =  1.7

     total cpu time spent up to now is        1.5 secs

     total energy              =    -355.15521395 Ry
     Harris-Foulkes estimate   =    -355.15532170 Ry
     estimated scf accuracy    <       0.00029006 Ry

     iteration #  3     ecut=    50.00 Ry     beta= 0.70
     Davidson diagonalization with overlap
     ethr =  2.64E-06,  avg # of iterations =  3.7

     total cpu time spent up to now is        1.7 secs

     total energy              =    -355.15529382 Ry
     Harris-Foulkes estimate   =    -355.15530833 Ry
     estimated scf accuracy    <       0.00006818 Ry

     iteration #  4     ecut=    50.00 Ry     beta= 0.70
     Davidson diagonalization with overlap
     ethr =  6.20E-07,  avg # of iterations =  1.7

     total cpu time spent up to now is        1.8 secs

     total energy              =    -355.15530213 Ry
     Harris-Foulkes estimate   =    -355.15530217 Ry
     estimated scf accuracy    <       0.00000013 Ry

     iteration #  5     ecut=    50.00 Ry     beta= 0.70
     Davidson diagonalization with overlap
     ethr =  1.22E-09,  avg # of iterations =  4.0

     total cpu time spent up to now is        1.9 secs

     total energy              =    -355.15530257 Ry
     Harris-Foulkes estimate   =    -355.15530259 Ry
     estimated scf accuracy    <       0.00000008 Ry

     iteration #  6     ecut=    50.00 Ry     beta= 0.70
     Davidson diagonalization with overlap
     ethr =  7.51E-10,  avg # of iterations =  1.0

     total cpu time spent up to now is        2.1 secs

     total energy              =    -355.15530255 Ry
     Harris-Foulkes estimate   =    -355.15530257 Ry
     estimated scf accuracy    <       0.00000003 Ry

     iteration #  7     ecut=    50.00 Ry     beta= 0.70
     Davidson diagonalization with overlap
     ethr =  3.09E-10,  avg # of iterations =  2.0

     total cpu time spent up to now is        2.2 secs

     End of self-consistent calculation

          k = 0.0000 0.0000 0.0000 (   701 PWs)   bands (ev):

     5.0748   8.3611   8.3611   8.3611   9.4482   9.4482  29.7700  33.1059
    33.1059  33.1059

          k = 0.5000-0.5000 0.5000 (   700 PWs)   bands (ev):

     6.6646   8.3460   8.3460  10.2540  10.2540  12.4487  16.6355  28.7923
    31.1556  31.1556

          k = 0.0000-1.0000 0.0000 (   692 PWs)   bands (ev):

     6.6475   6.8089  10.2341  10.4603  10.4603  14.4938  19.7396  23.7495
    23.7495  30.0966

     the Fermi energy is    12.5135 ev

!    total energy              =    -355.15530256 Ry
     Harris-Foulkes estimate   =    -355.15530256 Ry
     estimated scf accuracy    <          1.6E-10 Ry

     total all-electron energy =    -10632.121356 Ry

     The total energy is the sum of the following terms:

     one-electron contribution =       1.59329001 Ry
     hartree contribution      =      14.89001542 Ry
     xc contribution           =     -22.42048075 Ry
     ewald contribution        =     -71.86118022 Ry
     one-center paw contrib.   =    -277.35469999 Ry
     smearing contrib. (-TS)   =      -0.00224702 Ry

     convergence has been achieved in   7 iterations

     Forces acting on atoms (cartesian axes, Ry/au):

     atom    1 type  1   force =     0.00000000    0.00000000    0.00000000

     Total force =     0.000000     Total SCF correction =     0.000000


     Computing stress (Cartesian axis) and pressure

          total   stress  (Ry/bohr**3)                   (kbar)     P=  264.96
   0.00180118  -0.00000000  -0.00000000        264.96     -0.00     -0.00
  -0.00000000   0.00180118   0.00000000         -0.00    264.96      0.00
  -0.00000000   0.00000000   0.00180118         -0.00      0.00    264.96


     Writing output data file Ag.save/

     init_run     :      0.28s CPU      0.30s WALL (       1 calls)
     electrons    :      0.94s CPU      1.05s WALL (       1 calls)
     forces       :      0.02s CPU      0.02s WALL (       1 calls)
     stress       :      0.05s CPU      0.06s WALL (       1 calls)

     Called by init_run:
     wfcinit      :      0.01s CPU      0.01s WALL (       1 calls)
     potinit      :      0.11s CPU      0.13s WALL (       1 calls)
     hinit0       :      0.14s CPU      0.14s WALL (       1 calls)

     Called by electrons:
     c_bands      :      0.15s CPU      0.17s WALL (       8 calls)
     sum_band     :      0.08s CPU      0.08s WALL (       8 calls)
     v_of_rho     :      0.03s CPU      0.03s WALL (       8 calls)
     newd         :      0.04s CPU      0.05s WALL (       8 calls)
     PAW_pot      :      0.75s CPU      0.84s WALL (       8 calls)
     mix_rho      :      0.00s CPU      0.00s WALL (       8 calls)

     Called by c_bands:
     init_us_2    :      0.01s CPU      0.01s WALL (      57 calls)
     cegterg      :      0.14s CPU      0.16s WALL (      24 calls)

     Called by sum_band:
     sum_band:bec :      0.00s CPU      0.00s WALL (      24 calls)
     addusdens    :      0.04s CPU      0.04s WALL (       8 calls)

     Called by *egterg:
     h_psi        :      0.11s CPU      0.12s WALL (     100 calls)
     s_psi        :      0.00s CPU      0.00s WALL (     100 calls)
     g_psi        :      0.00s CPU      0.00s WALL (      73 calls)
     cdiaghg      :      0.02s CPU      0.02s WALL (      94 calls)

     Called by h_psi:
     h_psi:pot    :      0.11s CPU      0.12s WALL (     100 calls)
     h_psi:calbec :      0.01s CPU      0.01s WALL (     100 calls)
     vloc_psi     :      0.10s CPU      0.11s WALL (     100 calls)
     add_vuspsi   :      0.00s CPU      0.00s WALL (     100 calls)

     General routines
     calbec       :      0.01s CPU      0.01s WALL (     139 calls)
     fft          :      0.02s CPU      0.02s WALL (     115 calls)
     ffts         :      0.00s CPU      0.00s WALL (       8 calls)
     fftw         :      0.11s CPU      0.12s WALL (    1516 calls)

     Parallel routines
     fft_scatt_xy :      0.01s CPU      0.01s WALL (    1639 calls)
     fft_scatt_yz :      0.04s CPU      0.04s WALL (    1639 calls)

     PWSCF        :     2.17s CPU         2.35s WALL


   This run was terminated on:   0:21: 4  27Mar2024            

=------------------------------------------------------------------------------=
   JOB DONE.
=------------------------------------------------------------------------------=
