
     Program PWSCF v.6.3MaX starts on 27Mar2024 at  0:13:13 

     This program is part of the open-source Quantum ESPRESSO suite
     for quantum simulation of materials; please cite
         "P. Giannozzi et al., J. Phys.:Condens. Matter 21 395502 (2009);
         "P. Giannozzi et al., J. Phys.:Condens. Matter 29 465901 (2017);
          URL http://www.quantum-espresso.org", 
     in publications or presentations arising from this work. More details at
     http://www.quantum-espresso.org/quote

     Parallel version (MPI), running on     5 processors

     MPI processes distributed on     1 nodes
     R & G space division:  proc/nbgrp/npool/nimage =       5
     Waiting for input...
     Reading input from standard input

     Current dimensions of program PWSCF are:
     Max number of different atomic species (ntypx) = 10
     Max number of k-points (npk) =  40000
     Max angular momentum in pseudopotentials (lmaxx) =  3
               file Ag.pbesol-n-kjpaw_psl.1.0.0.UPF: wavefunction(s)  5S 5P renormalized

     Subspace diagonalization in iterative solution of the eigenvalue problem:
     a serial algorithm will be used


     Parallelization info
     --------------------
     sticks:   dense  smooth     PW     G-vecs:    dense   smooth      PW
     Min          50      50     17                  527      527     106
     Max          51      51     17                  528      528     107
     Sum         253     253     85                 2637     2637     531



     bravais-lattice index     =            2
     lattice parameter (alat)  =       7.7200  a.u.
     unit-cell volume          =     115.0249 (a.u.)^3
     number of atoms/cell      =            1
     number of atomic types    =            1
     number of electrons       =        11.00
     number of Kohn-Sham states=           10
     kinetic-energy cutoff     =      30.0000  Ry
     charge density cutoff     =     120.0000  Ry
     convergence threshold     =      1.0E-08
     mixing beta               =       0.7000
     number of iterations used =            8  plain     mixing
     Exchange-correlation      = SLA PW PSX PSC ( 1  4 10  8 0 0)

     celldm(1)=   7.720000  celldm(2)=   0.000000  celldm(3)=   0.000000
     celldm(4)=   0.000000  celldm(5)=   0.000000  celldm(6)=   0.000000

     crystal axes: (cart. coord. in units of alat)
               a(1) = (  -0.500000   0.000000   0.500000 )  
               a(2) = (   0.000000   0.500000   0.500000 )  
               a(3) = (  -0.500000   0.500000   0.000000 )  

     reciprocal axes: (cart. coord. in units 2 pi/alat)
               b(1) = ( -1.000000 -1.000000  1.000000 )  
               b(2) = (  1.000000  1.000000  1.000000 )  
               b(3) = ( -1.000000  1.000000 -1.000000 )  


     PseudoPot. # 1 for Ag read from file:
     /home/lorenzo/pseudos/Ag/Ag.pbesol-n-kjpaw_psl.1.0.0.UPF
     MD5 check sum: 3b245e14fa22881b2ac493bfd23f605f
     Pseudo is Projector augmented-wave + core cor, Zval = 11.0
     Generated using "atomic" code by A. Dal Corso v.6.2.2
     Shape of augmentation charge: PSQ
     Using radial grid of 1237 points,  6 beta functions with: 
                l(1) =   0
                l(2) =   0
                l(3) =   1
                l(4) =   1
                l(5) =   2
                l(6) =   2
     Q(r) pseudized with 0 coefficients 


     atomic species   valence    mass     pseudopotential
        Ag            11.00   107.86820     Ag( 1.00)

     48 Sym. Ops., with inversion, found



   Cartesian axes

     site n.     atom                  positions (alat units)
         1           Ag  tau(   1) = (   0.0000000   0.0000000   0.0000000  )

     number of k points=    16  gaussian smearing, width (Ry)=  0.0100
                       cart. coord. in units 2pi/alat
        k(    1) = (   0.0000000   0.0000000   0.0000000), wk =   0.0092593
        k(    2) = (  -0.1666667   0.1666667  -0.1666667), wk =   0.0740741
        k(    3) = (  -0.3333333   0.3333333  -0.3333333), wk =   0.0740741
        k(    4) = (   0.5000000  -0.5000000   0.5000000), wk =   0.0370370
        k(    5) = (   0.0000000   0.3333333   0.0000000), wk =   0.0555556
        k(    6) = (  -0.1666667   0.5000000  -0.1666667), wk =   0.2222222
        k(    7) = (   0.6666667  -0.3333333   0.6666667), wk =   0.2222222
        k(    8) = (   0.5000000  -0.1666667   0.5000000), wk =   0.2222222
        k(    9) = (   0.3333333   0.0000000   0.3333333), wk =   0.1111111
        k(   10) = (   0.0000000   0.6666667   0.0000000), wk =   0.0555556
        k(   11) = (   0.8333333  -0.1666667   0.8333333), wk =   0.2222222
        k(   12) = (   0.6666667  -0.0000000   0.6666667), wk =   0.1111111
        k(   13) = (   0.0000000  -1.0000000   0.0000000), wk =   0.0277778
        k(   14) = (   0.6666667  -0.3333333   1.0000000), wk =   0.2222222
        k(   15) = (   0.5000000  -0.1666667   0.8333333), wk =   0.2222222
        k(   16) = (  -0.3333333  -1.0000000   0.0000000), wk =   0.1111111

     Dense  grid:     2637 G-vectors     FFT dimensions: (  20,  20,  20)

     Estimated max dynamical RAM per process >       3.21 MB

     Estimated total dynamical RAM >      16.05 MB

     Initial potential from superposition of free atoms

     starting charge   10.99964, renormalised to   11.00000
     Starting wfcs are    9 randomized atomic wfcs +    1 random wfcs
     Checking if some PAW data can be deallocated... 

     total cpu time spent up to now is        1.1 secs

     Self-consistent Calculation

     iteration #  1     ecut=    30.00 Ry     beta= 0.70
     Davidson diagonalization with overlap
     ethr =  1.00E-02,  avg # of iterations =  4.9

     Threshold (ethr) on eigenvalues was too large:
     Diagonalizing with lowered threshold

     Davidson diagonalization with overlap
     ethr =  1.39E-04,  avg # of iterations =  1.2

     total cpu time spent up to now is        1.4 secs

     total energy              =    -350.13014696 Ry
     Harris-Foulkes estimate   =    -350.14162533 Ry
     estimated scf accuracy    <       0.01608464 Ry

     iteration #  2     ecut=    30.00 Ry     beta= 0.70
     Davidson diagonalization with overlap
     ethr =  1.46E-04,  avg # of iterations =  2.1

     total cpu time spent up to now is        1.6 secs

     total energy              =    -350.13575551 Ry
     Harris-Foulkes estimate   =    -350.14202026 Ry
     estimated scf accuracy    <       0.01364664 Ry

     iteration #  3     ecut=    30.00 Ry     beta= 0.70
     Davidson diagonalization with overlap
     ethr =  1.24E-04,  avg # of iterations =  1.4

     total cpu time spent up to now is        1.8 secs

     total energy              =    -350.13816626 Ry
     Harris-Foulkes estimate   =    -350.13809253 Ry
     estimated scf accuracy    <       0.00006801 Ry

     iteration #  4     ecut=    30.00 Ry     beta= 0.70
     Davidson diagonalization with overlap
     ethr =  6.18E-07,  avg # of iterations =  3.2

     total cpu time spent up to now is        2.0 secs

     total energy              =    -350.13821049 Ry
     Harris-Foulkes estimate   =    -350.13821060 Ry
     estimated scf accuracy    <       0.00000316 Ry

     iteration #  5     ecut=    30.00 Ry     beta= 0.70
     Davidson diagonalization with overlap
     ethr =  2.87E-08,  avg # of iterations =  1.1

     total cpu time spent up to now is        2.1 secs

     total energy              =    -350.13820960 Ry
     Harris-Foulkes estimate   =    -350.13821054 Ry
     estimated scf accuracy    <       0.00000267 Ry

     iteration #  6     ecut=    30.00 Ry     beta= 0.70
     Davidson diagonalization with overlap
     ethr =  2.43E-08,  avg # of iterations =  1.6

     total cpu time spent up to now is        2.3 secs

     total energy              =    -350.13820993 Ry
     Harris-Foulkes estimate   =    -350.13821009 Ry
     estimated scf accuracy    <       0.00000042 Ry

     iteration #  7     ecut=    30.00 Ry     beta= 0.70
     Davidson diagonalization with overlap
     ethr =  3.83E-09,  avg # of iterations =  1.0

     total cpu time spent up to now is        2.5 secs

     total energy              =    -350.13820995 Ry
     Harris-Foulkes estimate   =    -350.13820997 Ry
     estimated scf accuracy    <       0.00000004 Ry

     iteration #  8     ecut=    30.00 Ry     beta= 0.70
     Davidson diagonalization with overlap
     ethr =  4.03E-10,  avg # of iterations =  2.0

     total cpu time spent up to now is        2.7 secs

     End of self-consistent calculation

          k = 0.0000 0.0000 0.0000 (   331 PWs)   bands (ev):

     4.7989   7.8224   7.8224   7.8224   8.8610   8.8610  29.5571  32.8178
    32.8178  32.8178

          k =-0.1667 0.1667-0.1667 (   320 PWs)   bands (ev):

     5.5949   7.7526   8.0218   8.0218   8.8883   8.8883  27.1141  30.3158
    32.6992  32.6992

          k =-0.3333 0.3333-0.3333 (   308 PWs)   bands (ev):

     6.3520   7.9995   7.9995   9.2762   9.4275   9.4275  20.6113  29.3304
    31.6995  31.6995

          k = 0.5000-0.5000 0.5000 (   332 PWs)   bands (ev):

     6.2352   7.8173   7.8173   9.6864   9.6864  12.1733  16.2232  28.6048
    30.7928  30.7928

          k = 0.0000 0.3333 0.0000 (   315 PWs)   bands (ev):

     5.8656   7.4465   8.2988   8.2988   8.5934   9.1047  29.6063  29.7140
    29.7140  30.2654

          k =-0.1667 0.5000-0.1667 (   322 PWs)   bands (ev):

     6.7227   7.4496   8.0576   8.4400   9.4601   9.8185  23.2348  28.0334
    28.7193  30.3109

          k = 0.6667-0.3333 0.6667 (   321 PWs)   bands (ev):

     6.6506   7.6096   8.2626   8.5304   9.7530  13.2008  17.3490  26.3209
    28.1394  29.4243

          k = 0.5000-0.1667 0.5000 (   321 PWs)   bands (ev):

     6.7974   7.6858   8.2551   8.4670   9.2511  12.1069  19.1879  25.1178
    29.9394  30.5504

          k = 0.3333 0.0000 0.3333 (   317 PWs)   bands (ev):

     6.6435   7.4853   8.1010   8.3834   8.5862   9.7535  25.3472  25.7089
    32.2728  33.3865

          k = 0.0000 0.6667 0.0000 (   323 PWs)   bands (ev):

     6.5766   6.6859   9.2800   9.2800   9.4779  10.4080  24.9266  25.3288
    25.3288  29.7173

          k = 0.8333-0.1667 0.8333 (   318 PWs)   bands (ev):

     6.5324   6.7851   8.9860   9.2236   9.8249  13.9112  20.4758  21.7689
    24.8336  29.6786

          k = 0.6667-0.0000 0.6667 (   323 PWs)   bands (ev):

     6.8850   7.4871   8.0922   8.8817   9.4402  15.7827  18.4405  20.1733
    26.9337  29.6246

          k = 0.0000-1.0000 0.0000 (   326 PWs)   bands (ev):

     6.2337   6.3303   9.6520   9.9189   9.9189  14.1889  19.3811  23.4213
    23.4213  29.7674

          k = 0.6667-0.3333 1.0000 (   318 PWs)   bands (ev):

     7.1277   7.1990   7.8543   9.1377   9.3090  12.4324  22.2506  22.2646
    25.6708  33.5233

          k = 0.5000-0.1667 0.8333 (   318 PWs)   bands (ev):

     7.1956   7.2603   7.9146   8.8086   9.6900  16.2981  17.0347  22.8631
    23.5192  32.9905

          k =-0.3333-1.0000 0.0000 (   320 PWs)   bands (ev):

     6.7385   6.9024   8.4974   9.1719   9.9610  16.5902  19.5317  20.6608
    21.4032  33.1049

     the Fermi energy is    12.4631 ev

!    total energy              =    -350.13820996 Ry
     Harris-Foulkes estimate   =    -350.13820996 Ry
     estimated scf accuracy    <          7.6E-10 Ry

     total all-electron energy =    -10627.148619 Ry

     The total energy is the sum of the following terms:

     one-electron contribution =       1.75002935 Ry
     hartree contribution      =      14.45444644 Ry
     xc contribution           =     -22.12219103 Ry
     ewald contribution        =     -71.86118020 Ry
     one-center paw contrib.   =    -272.35871705 Ry
     smearing contrib. (-TS)   =      -0.00059747 Ry

     convergence has been achieved in   8 iterations

     Forces acting on atoms (cartesian axes, Ry/au):

     atom    1 type  1   force =     0.00000000    0.00000000    0.00000000

     Total force =     0.000000     Total SCF correction =     0.000000


     Computing stress (Cartesian axis) and pressure

          total   stress  (Ry/bohr**3)                   (kbar)     P= -870.46
  -0.00591724   0.00000000  -0.00000000       -870.46      0.00     -0.00
   0.00000000  -0.00591724  -0.00000000          0.00   -870.46     -0.00
  -0.00000000  -0.00000000  -0.00591724         -0.00     -0.00   -870.46


     Writing output data file Ag.save/

     init_run     :      0.25s CPU      0.27s WALL (       1 calls)
     electrons    :      1.39s CPU      1.56s WALL (       1 calls)
     forces       :      0.01s CPU      0.01s WALL (       1 calls)
     stress       :      0.04s CPU      0.04s WALL (       1 calls)

     Called by init_run:
     wfcinit      :      0.02s CPU      0.02s WALL (       1 calls)
     potinit      :      0.11s CPU      0.12s WALL (       1 calls)
     hinit0       :      0.11s CPU      0.11s WALL (       1 calls)

     Called by electrons:
     c_bands      :      0.52s CPU      0.55s WALL (       9 calls)
     sum_band     :      0.10s CPU      0.11s WALL (       9 calls)
     v_of_rho     :      0.01s CPU      0.01s WALL (       9 calls)
     newd         :      0.02s CPU      0.02s WALL (       9 calls)
     PAW_pot      :      0.84s CPU      0.95s WALL (       9 calls)
     mix_rho      :      0.00s CPU      0.00s WALL (       9 calls)

     Called by c_bands:
     init_us_2    :      0.01s CPU      0.02s WALL (     336 calls)
     cegterg      :      0.49s CPU      0.53s WALL (     144 calls)

     Called by sum_band:
     sum_band:bec :      0.00s CPU      0.00s WALL (     144 calls)
     addusdens    :      0.02s CPU      0.02s WALL (       9 calls)

     Called by *egterg:
     h_psi        :      0.36s CPU      0.39s WALL (     456 calls)
     s_psi        :      0.01s CPU      0.01s WALL (     456 calls)
     g_psi        :      0.00s CPU      0.00s WALL (     296 calls)
     cdiaghg      :      0.08s CPU      0.08s WALL (     424 calls)

     Called by h_psi:
     h_psi:pot    :      0.36s CPU      0.38s WALL (     456 calls)
     h_psi:calbec :      0.02s CPU      0.02s WALL (     456 calls)
     vloc_psi     :      0.32s CPU      0.35s WALL (     456 calls)
     add_vuspsi   :      0.01s CPU      0.01s WALL (     456 calls)

     General routines
     calbec       :      0.03s CPU      0.03s WALL (     680 calls)
     fft          :      0.01s CPU      0.01s WALL (     126 calls)
     ffts         :      0.00s CPU      0.00s WALL (       9 calls)
     fftw         :      0.35s CPU      0.38s WALL (    8484 calls)

     Parallel routines
     fft_scatt_xy :      0.03s CPU      0.04s WALL (    8619 calls)
     fft_scatt_yz :      0.12s CPU      0.13s WALL (    8619 calls)

     PWSCF        :     2.56s CPU         2.79s WALL


   This run was terminated on:   0:13:15  27Mar2024            

=------------------------------------------------------------------------------=
   JOB DONE.
=------------------------------------------------------------------------------=
