
     Program PWSCF v.6.3MaX starts on 27Mar2024 at  0:27: 3 

     This program is part of the open-source Quantum ESPRESSO suite
     for quantum simulation of materials; please cite
         "P. Giannozzi et al., J. Phys.:Condens. Matter 21 395502 (2009);
         "P. Giannozzi et al., J. Phys.:Condens. Matter 29 465901 (2017);
          URL http://www.quantum-espresso.org", 
     in publications or presentations arising from this work. More details at
     http://www.quantum-espresso.org/quote

     Parallel version (MPI), running on     5 processors

     MPI processes distributed on     1 nodes
     R & G space division:  proc/nbgrp/npool/nimage =       5
     Waiting for input...
     Reading input from standard input

     Current dimensions of program PWSCF are:
     Max number of different atomic species (ntypx) = 10
     Max number of k-points (npk) =  40000
     Max angular momentum in pseudopotentials (lmaxx) =  3

     Subspace diagonalization in iterative solution of the eigenvalue problem:
     a serial algorithm will be used


     Parallelization info
     --------------------
     sticks:   dense  smooth     PW     G-vecs:    dense   smooth      PW
     Min          99      99     32                 1446     1446     272
     Max         100     100     33                 1449     1449     273
     Sum         499     499    163                 7239     7239    1363



     bravais-lattice index     =            2
     lattice parameter (alat)  =       7.7200  a.u.
     unit-cell volume          =     115.0249 (a.u.)^3
     number of atoms/cell      =            1
     number of atomic types    =            1
     number of electrons       =        11.00
     number of Kohn-Sham states=           10
     kinetic-energy cutoff     =      60.0000  Ry
     charge density cutoff     =     240.0000  Ry
     convergence threshold     =      1.0E-08
     mixing beta               =       0.7000
     number of iterations used =            8  plain     mixing
     Exchange-correlation      = PBE ( 1  4  3  4 0 0)

     celldm(1)=   7.720000  celldm(2)=   0.000000  celldm(3)=   0.000000
     celldm(4)=   0.000000  celldm(5)=   0.000000  celldm(6)=   0.000000

     crystal axes: (cart. coord. in units of alat)
               a(1) = (  -0.500000   0.000000   0.500000 )  
               a(2) = (   0.000000   0.500000   0.500000 )  
               a(3) = (  -0.500000   0.500000   0.000000 )  

     reciprocal axes: (cart. coord. in units 2 pi/alat)
               b(1) = ( -1.000000 -1.000000  1.000000 )  
               b(2) = (  1.000000  1.000000  1.000000 )  
               b(3) = ( -1.000000  1.000000 -1.000000 )  


     PseudoPot. # 1 for Ag read from file:
     /home/lorenzo/pseudos/Ag/Ag.pbe-n-rrkjus_psl.1.0.0.UPF
     MD5 check sum: d841cbfac2b0861aec33b46768a516bf
     Pseudo is Ultrasoft + core correction, Zval = 11.0
     Generated using "atomic" code by A. Dal Corso v.6.2.2
     Using radial grid of 1237 points,  6 beta functions with: 
                l(1) =   0
                l(2) =   0
                l(3) =   1
                l(4) =   1
                l(5) =   2
                l(6) =   2
     Q(r) pseudized with 0 coefficients 


     atomic species   valence    mass     pseudopotential
        Ag            11.00   107.86820     Ag( 1.00)

     48 Sym. Ops., with inversion, found



   Cartesian axes

     site n.     atom                  positions (alat units)
         1           Ag  tau(   1) = (   0.0000000   0.0000000   0.0000000  )

     number of k points=    29  gaussian smearing, width (Ry)=  0.0100
                       cart. coord. in units 2pi/alat
        k(    1) = (   0.0000000   0.0000000   0.0000000), wk =   0.0039062
        k(    2) = (  -0.1250000   0.1250000  -0.1250000), wk =   0.0312500
        k(    3) = (  -0.2500000   0.2500000  -0.2500000), wk =   0.0312500
        k(    4) = (  -0.3750000   0.3750000  -0.3750000), wk =   0.0312500
        k(    5) = (   0.5000000  -0.5000000   0.5000000), wk =   0.0156250
        k(    6) = (   0.0000000   0.2500000   0.0000000), wk =   0.0234375
        k(    7) = (  -0.1250000   0.3750000  -0.1250000), wk =   0.0937500
        k(    8) = (  -0.2500000   0.5000000  -0.2500000), wk =   0.0937500
        k(    9) = (   0.6250000  -0.3750000   0.6250000), wk =   0.0937500
        k(   10) = (   0.5000000  -0.2500000   0.5000000), wk =   0.0937500
        k(   11) = (   0.3750000  -0.1250000   0.3750000), wk =   0.0937500
        k(   12) = (   0.2500000   0.0000000   0.2500000), wk =   0.0468750
        k(   13) = (   0.0000000   0.5000000   0.0000000), wk =   0.0234375
        k(   14) = (  -0.1250000   0.6250000  -0.1250000), wk =   0.0937500
        k(   15) = (   0.7500000  -0.2500000   0.7500000), wk =   0.0937500
        k(   16) = (   0.6250000  -0.1250000   0.6250000), wk =   0.0937500
        k(   17) = (   0.5000000   0.0000000   0.5000000), wk =   0.0468750
        k(   18) = (   0.0000000   0.7500000   0.0000000), wk =   0.0234375
        k(   19) = (   0.8750000  -0.1250000   0.8750000), wk =   0.0937500
        k(   20) = (   0.7500000   0.0000000   0.7500000), wk =   0.0468750
        k(   21) = (   0.0000000  -1.0000000   0.0000000), wk =   0.0117188
        k(   22) = (  -0.2500000   0.5000000   0.0000000), wk =   0.0937500
        k(   23) = (   0.6250000  -0.3750000   0.8750000), wk =   0.1875000
        k(   24) = (   0.5000000  -0.2500000   0.7500000), wk =   0.0937500
        k(   25) = (   0.7500000  -0.2500000   1.0000000), wk =   0.0937500
        k(   26) = (   0.6250000  -0.1250000   0.8750000), wk =   0.1875000
        k(   27) = (   0.5000000   0.0000000   0.7500000), wk =   0.0937500
        k(   28) = (  -0.2500000  -1.0000000   0.0000000), wk =   0.0468750
        k(   29) = (  -0.5000000  -1.0000000   0.0000000), wk =   0.0234375

     Dense  grid:     7239 G-vectors     FFT dimensions: (  27,  27,  27)

     Estimated max dynamical RAM per process >       7.75 MB

     Estimated total dynamical RAM >      38.74 MB

     Initial potential from superposition of free atoms

     starting charge   10.99960, renormalised to   11.00000
     Starting wfcs are    9 randomized atomic wfcs +    1 random wfcs

     total cpu time spent up to now is        1.1 secs

     Self-consistent Calculation

     iteration #  1     ecut=    60.00 Ry     beta= 0.70
     Davidson diagonalization with overlap
     ethr =  1.00E-02,  avg # of iterations =  4.6

     Threshold (ethr) on eigenvalues was too large:
     Diagonalizing with lowered threshold

     Davidson diagonalization with overlap
     ethr =  2.20E-05,  avg # of iterations =  3.1

     total cpu time spent up to now is        2.2 secs

     total energy              =     -84.26959927 Ry
     Harris-Foulkes estimate   =     -84.27107878 Ry
     estimated scf accuracy    <       0.00270759 Ry

     iteration #  2     ecut=    60.00 Ry     beta= 0.70
     Davidson diagonalization with overlap
     ethr =  2.46E-05,  avg # of iterations =  2.0

     total cpu time spent up to now is        2.5 secs

     total energy              =     -84.27016601 Ry
     Harris-Foulkes estimate   =     -84.27106204 Ry
     estimated scf accuracy    <       0.00164553 Ry

     iteration #  3     ecut=    60.00 Ry     beta= 0.70
     Davidson diagonalization with overlap
     ethr =  1.50E-05,  avg # of iterations =  2.0

     total cpu time spent up to now is        2.7 secs

     total energy              =     -84.27055400 Ry
     Harris-Foulkes estimate   =     -84.27055383 Ry
     estimated scf accuracy    <       0.00002729 Ry

     iteration #  4     ecut=    60.00 Ry     beta= 0.70
     Davidson diagonalization with overlap
     ethr =  2.48E-07,  avg # of iterations =  2.1

     total cpu time spent up to now is        3.0 secs

     total energy              =     -84.27055946 Ry
     Harris-Foulkes estimate   =     -84.27055936 Ry
     estimated scf accuracy    <       0.00000018 Ry

     iteration #  5     ecut=    60.00 Ry     beta= 0.70
     Davidson diagonalization with overlap
     ethr =  1.62E-09,  avg # of iterations =  2.7

     total cpu time spent up to now is        3.3 secs

     total energy              =     -84.27055955 Ry
     Harris-Foulkes estimate   =     -84.27055957 Ry
     estimated scf accuracy    <       0.00000005 Ry

     iteration #  6     ecut=    60.00 Ry     beta= 0.70
     Davidson diagonalization with overlap
     ethr =  4.73E-10,  avg # of iterations =  2.2

     total cpu time spent up to now is        3.6 secs

     End of self-consistent calculation

          k = 0.0000 0.0000 0.0000 (   893 PWs)   bands (ev):

     5.0702   8.0979   8.0979   8.0979   9.1366   9.1366  29.8030  33.0931
    33.0931  33.0931

          k =-0.1250 0.1250-0.1250 (   914 PWs)   bands (ev):

     5.5412   8.0094   8.2172   8.2172   9.1023   9.1023  28.8361  30.7017
    33.0461  33.0461

          k =-0.2500 0.2500-0.2500 (   902 PWs)   bands (ev):

     6.4663   8.2992   8.2992   8.3200   9.2645   9.2645  24.0868  30.2050
    32.6241  32.6241

          k =-0.3750 0.3750-0.3750 (   911 PWs)   bands (ev):

     6.5672   8.1556   8.1556   9.7110   9.7110  10.3846  19.3720  29.2679
    31.6491  31.6491

          k = 0.5000-0.5000 0.5000 (   886 PWs)   bands (ev):

     6.4862   8.0736   8.0736   9.9388   9.9388  12.4530  16.4854  28.8423
    31.1072  31.1072

          k = 0.0000 0.2500 0.0000 (   909 PWs)   bands (ev):

     5.7001   7.8539   8.3344   8.3344   8.9110   9.2437  29.8181  31.1254
    31.1254  31.2189

          k =-0.1250 0.3750-0.1250 (   905 PWs)   bands (ev):

     6.5581   7.7013   8.3866   8.5253   9.1386   9.4163  26.0553  29.7717
    29.9283  32.4075

          k =-0.2500 0.5000-0.2500 (   908 PWs)   bands (ev):

     6.8502   8.0882   8.3989   8.4501   9.7901  10.6356  21.1534  28.9694
    29.0652  30.7653

          k = 0.6250-0.3750 0.6250 (   901 PWs)   bands (ev):

     6.7463   7.9221   8.3126   9.1175   9.9547  13.1693  17.1002  27.7069
    29.3400  29.7505

          k = 0.5000-0.2500 0.5000 (   908 PWs)   bands (ev):

     6.8057   7.9760   8.3074   9.1262   9.6524  12.3848  18.2851  26.9498
    29.9664  30.9133

          k = 0.3750-0.1250 0.3750 (   903 PWs)   bands (ev):

     6.9362   8.0436   8.3880   8.4573   9.0833  10.3506  22.7803  27.0254
    31.3695  33.6873

          k = 0.2500 0.0000 0.2500 (   915 PWs)   bands (ev):

     6.2426   7.8225   8.3714   8.4104   8.8790   9.4143  27.6371  27.7887
    32.6399  34.1005

          k = 0.0000 0.5000 0.0000 (   902 PWs)   bands (ev):

     6.8768   7.3006   8.9775   8.9775   9.0831   9.5101  27.6471  27.6471
    28.7113  29.8737

          k =-0.1250 0.6250-0.1250 (   898 PWs)   bands (ev):

     6.9782   7.2328   8.7799   9.0907   9.8265  10.9630  23.4873  26.3264
    26.5050  30.0045

          k = 0.7500-0.2500 0.7500 (   898 PWs)   bands (ev):

     6.9622   7.5281   8.5752   8.9385   9.9964  13.8884  19.0263  24.1451
    26.6448  29.7618

          k = 0.6250-0.1250 0.6250 (   905 PWs)   bands (ev):

     7.1892   7.7544   8.3800   8.8144   9.6806  15.0652  17.8913  22.7019
    28.1731  29.8358

          k = 0.5000 0.0000 0.5000 (   907 PWs)   bands (ev):

     7.5302   7.7608   8.1464   8.7552   9.1533  12.3360  22.1805  22.3003
    30.4957  30.7605

          k = 0.0000 0.7500 0.0000 (   910 PWs)   bands (ev):

     6.6850   6.7901   9.7625   9.7625   9.7862  11.7918  23.3070  24.8265
    24.8265  29.9452

          k = 0.8750-0.1250 0.8750 (   911 PWs)   bands (ev):

     6.6487   6.8211   9.5448   9.6393  10.0587  14.2777  20.8861  21.9323
    24.5372  29.9469

          k = 0.7500 0.0000 0.7500 (   902 PWs)   bands (ev):

     6.8828   7.3041   8.8136   9.3589   9.8666  17.1785  18.1756  20.0336
    25.7925  29.8464

          k = 0.0000-1.0000 0.0000 (   934 PWs)   bands (ev):

     6.4417   6.5893   9.9036  10.1486  10.1486  14.4815  19.6125  23.7219
    23.7219  29.9778

          k =-0.2500 0.5000 0.0000 (   904 PWs)   bands (ev):

     7.2667   7.4631   8.1758   8.9744   9.1614  10.4388  24.8641  25.1503
    29.3649  32.7594

          k = 0.6250-0.3750 0.8750 (   903 PWs)   bands (ev):

     7.2092   7.7861   8.1226   8.8794   9.6497  12.6091  20.2741  24.7459
    27.1289  32.4126

          k = 0.5000-0.2500 0.7500 (   890 PWs)   bands (ev):

     7.1532   7.6412   8.5243   8.7025   9.8645  15.1646  16.8438  25.3897
    25.5874  31.8777

          k = 0.7500-0.2500 1.0000 (   896 PWs)   bands (ev):

     7.0318   7.0643   8.6997   9.6072   9.7551  13.0982  22.7373  22.8787
    23.8462  32.2492

          k = 0.6250-0.1250 0.8750 (   906 PWs)   bands (ev):

     7.1131   7.4097   8.3643   9.2371   9.9820  16.2311  18.7481  21.7085
    23.5149  32.5727

          k = 0.5000 0.0000 0.7500 (   903 PWs)   bands (ev):

     7.4156   7.7749   7.8378   9.0931   9.7518  15.3255  19.8280  20.8630
    25.0414  33.0690

          k =-0.2500-1.0000 0.0000 (   916 PWs)   bands (ev):

     6.7636   6.9023   9.1905   9.5833  10.1493  15.9712  19.7106  21.9339
    22.2373  32.0656

          k =-0.5000-1.0000 0.0000 (   892 PWs)   bands (ev):

     7.1978   7.8184   7.8184   9.1462  10.1503  18.8537  18.8537  19.9437
    21.0778  36.2760

     the Fermi energy is    12.7107 ev

!    total energy              =     -84.27055956 Ry
     Harris-Foulkes estimate   =     -84.27055956 Ry
     estimated scf accuracy    <          3.3E-10 Ry

     The total energy is the sum of the following terms:

     one-electron contribution =      -4.71744605 Ry
     hartree contribution      =      14.66100920 Ry
     xc contribution           =     -22.35263762 Ry
     ewald contribution        =     -71.86118019 Ry
     smearing contrib. (-TS)   =      -0.00030490 Ry

     convergence has been achieved in   6 iterations

     Forces acting on atoms (cartesian axes, Ry/au):

     atom    1 type  1   force =     0.00000000    0.00000000    0.00000000

     Total force =     0.000000     Total SCF correction =     0.000000


     Computing stress (Cartesian axis) and pressure

          total   stress  (Ry/bohr**3)                   (kbar)     P=   48.82
   0.00033188  -0.00000000  -0.00000000         48.82     -0.00     -0.00
  -0.00000000   0.00033188   0.00000000         -0.00     48.82      0.00
  -0.00000000   0.00000000   0.00033188         -0.00      0.00     48.82


     Writing output data file Ag.save/

     init_run     :      0.32s CPU      0.33s WALL (       1 calls)
     electrons    :      2.40s CPU      2.51s WALL (       1 calls)
     forces       :      0.04s CPU      0.04s WALL (       1 calls)
     stress       :      0.12s CPU      0.13s WALL (       1 calls)

     Called by init_run:
     wfcinit      :      0.13s CPU      0.14s WALL (       1 calls)
     potinit      :      0.01s CPU      0.01s WALL (       1 calls)
     hinit0       :      0.16s CPU      0.16s WALL (       1 calls)

     Called by electrons:
     c_bands      :      1.95s CPU      2.04s WALL (       7 calls)
     sum_band     :      0.38s CPU      0.39s WALL (       7 calls)
     v_of_rho     :      0.03s CPU      0.03s WALL (       7 calls)
     newd         :      0.05s CPU      0.05s WALL (       7 calls)
     mix_rho      :      0.00s CPU      0.00s WALL (       7 calls)

     Called by c_bands:
     init_us_2    :      0.06s CPU      0.06s WALL (     493 calls)
     cegterg      :      1.87s CPU      1.96s WALL (     203 calls)

     Called by sum_band:
     sum_band:bec :      0.00s CPU      0.00s WALL (     203 calls)
     addusdens    :      0.06s CPU      0.06s WALL (       7 calls)

     Called by *egterg:
     h_psi        :      1.52s CPU      1.59s WALL (     777 calls)
     s_psi        :      0.05s CPU      0.05s WALL (     777 calls)
     g_psi        :      0.00s CPU      0.00s WALL (     545 calls)
     cdiaghg      :      0.18s CPU      0.19s WALL (     719 calls)

     Called by h_psi:
     h_psi:pot    :      1.51s CPU      1.58s WALL (     777 calls)
     h_psi:calbec :      0.07s CPU      0.07s WALL (     777 calls)
     vloc_psi     :      1.38s CPU      1.45s WALL (     777 calls)
     add_vuspsi   :      0.05s CPU      0.05s WALL (     777 calls)

     General routines
     calbec       :      0.10s CPU      0.11s WALL (    1125 calls)
     fft          :      0.02s CPU      0.02s WALL (     104 calls)
     ffts         :      0.00s CPU      0.00s WALL (       7 calls)
     fftw         :      1.54s CPU      1.60s WALL (   12776 calls)

     Parallel routines
     fft_scatt_xy :      0.14s CPU      0.14s WALL (   12887 calls)
     fft_scatt_yz :      0.29s CPU      0.31s WALL (   12887 calls)

     PWSCF        :     3.66s CPU         3.83s WALL


   This run was terminated on:   0:27: 7  27Mar2024            

=------------------------------------------------------------------------------=
   JOB DONE.
=------------------------------------------------------------------------------=
