
     Program PWSCF v.6.3MaX starts on 27Mar2024 at  0:48: 0 

     This program is part of the open-source Quantum ESPRESSO suite
     for quantum simulation of materials; please cite
         "P. Giannozzi et al., J. Phys.:Condens. Matter 21 395502 (2009);
         "P. Giannozzi et al., J. Phys.:Condens. Matter 29 465901 (2017);
          URL http://www.quantum-espresso.org", 
     in publications or presentations arising from this work. More details at
     http://www.quantum-espresso.org/quote

     Parallel version (MPI), running on     5 processors

     MPI processes distributed on     1 nodes
     R & G space division:  proc/nbgrp/npool/nimage =       5
     Waiting for input...
     Reading input from standard input

     Current dimensions of program PWSCF are:
     Max number of different atomic species (ntypx) = 10
     Max number of k-points (npk) =  40000
     Max angular momentum in pseudopotentials (lmaxx) =  3
               file Ag.pbe-n-kjpaw_psl.1.0.0.UPF: wavefunction(s)  5S 5P renormalized

     Subspace diagonalization in iterative solution of the eigenvalue problem:
     a serial algorithm will be used


     Parallelization info
     --------------------
     sticks:   dense  smooth     PW     G-vecs:    dense   smooth      PW
     Min         153     153     48                 2863     2863     484
     Max         154     154     49                 2867     2867     485
     Sum         769     769    241                14331    14331    2421



     bravais-lattice index     =            2
     lattice parameter (alat)  =       7.7200  a.u.
     unit-cell volume          =     115.0249 (a.u.)^3
     number of atoms/cell      =            1
     number of atomic types    =            1
     number of electrons       =        11.00
     number of Kohn-Sham states=           10
     kinetic-energy cutoff     =      95.0000  Ry
     charge density cutoff     =     380.0000  Ry
     convergence threshold     =      1.0E-08
     mixing beta               =       0.7000
     number of iterations used =            8  plain     mixing
     Exchange-correlation      = SLA PW PBX PBC ( 1  4  3  4 0 0)

     celldm(1)=   7.720000  celldm(2)=   0.000000  celldm(3)=   0.000000
     celldm(4)=   0.000000  celldm(5)=   0.000000  celldm(6)=   0.000000

     crystal axes: (cart. coord. in units of alat)
               a(1) = (  -0.500000   0.000000   0.500000 )  
               a(2) = (   0.000000   0.500000   0.500000 )  
               a(3) = (  -0.500000   0.500000   0.000000 )  

     reciprocal axes: (cart. coord. in units 2 pi/alat)
               b(1) = ( -1.000000 -1.000000  1.000000 )  
               b(2) = (  1.000000  1.000000  1.000000 )  
               b(3) = ( -1.000000  1.000000 -1.000000 )  


     PseudoPot. # 1 for Ag read from file:
     /home/lorenzo/pseudos/Ag/Ag.pbe-n-kjpaw_psl.1.0.0.UPF
     MD5 check sum: 51099775af2a3182a6a1caffb86952a3
     Pseudo is Projector augmented-wave + core cor, Zval = 11.0
     Generated using "atomic" code by A. Dal Corso v.6.2.2
     Shape of augmentation charge: PSQ
     Using radial grid of 1237 points,  6 beta functions with: 
                l(1) =   0
                l(2) =   0
                l(3) =   1
                l(4) =   1
                l(5) =   2
                l(6) =   2
     Q(r) pseudized with 0 coefficients 


     atomic species   valence    mass     pseudopotential
        Ag            11.00   107.86820     Ag( 1.00)

     48 Sym. Ops., with inversion, found



   Cartesian axes

     site n.     atom                  positions (alat units)
         1           Ag  tau(   1) = (   0.0000000   0.0000000   0.0000000  )

     number of k points=    16  gaussian smearing, width (Ry)=  0.0100
                       cart. coord. in units 2pi/alat
        k(    1) = (   0.0000000   0.0000000   0.0000000), wk =   0.0092593
        k(    2) = (  -0.1666667   0.1666667  -0.1666667), wk =   0.0740741
        k(    3) = (  -0.3333333   0.3333333  -0.3333333), wk =   0.0740741
        k(    4) = (   0.5000000  -0.5000000   0.5000000), wk =   0.0370370
        k(    5) = (   0.0000000   0.3333333   0.0000000), wk =   0.0555556
        k(    6) = (  -0.1666667   0.5000000  -0.1666667), wk =   0.2222222
        k(    7) = (   0.6666667  -0.3333333   0.6666667), wk =   0.2222222
        k(    8) = (   0.5000000  -0.1666667   0.5000000), wk =   0.2222222
        k(    9) = (   0.3333333   0.0000000   0.3333333), wk =   0.1111111
        k(   10) = (   0.0000000   0.6666667   0.0000000), wk =   0.0555556
        k(   11) = (   0.8333333  -0.1666667   0.8333333), wk =   0.2222222
        k(   12) = (   0.6666667  -0.0000000   0.6666667), wk =   0.1111111
        k(   13) = (   0.0000000  -1.0000000   0.0000000), wk =   0.0277778
        k(   14) = (   0.6666667  -0.3333333   1.0000000), wk =   0.2222222
        k(   15) = (   0.5000000  -0.1666667   0.8333333), wk =   0.2222222
        k(   16) = (  -0.3333333  -1.0000000   0.0000000), wk =   0.1111111

     Dense  grid:    14331 G-vectors     FFT dimensions: (  36,  36,  36)

     Estimated max dynamical RAM per process >      13.65 MB

     Estimated total dynamical RAM >      68.24 MB

     Initial potential from superposition of free atoms

     starting charge   10.99960, renormalised to   11.00000
     Starting wfcs are    9 randomized atomic wfcs +    1 random wfcs
     Checking if some PAW data can be deallocated... 

     total cpu time spent up to now is        1.3 secs

     Self-consistent Calculation

     iteration #  1     ecut=    95.00 Ry     beta= 0.70
     Davidson diagonalization with overlap
     ethr =  1.00E-02,  avg # of iterations =  4.8

     Threshold (ethr) on eigenvalues was too large:
     Diagonalizing with lowered threshold

     Davidson diagonalization with overlap
     ethr =  2.63E-05,  avg # of iterations =  3.4

     total cpu time spent up to now is        2.2 secs

     total energy              =    -355.30058310 Ry
     Harris-Foulkes estimate   =    -355.30241449 Ry
     estimated scf accuracy    <       0.00321893 Ry

     iteration #  2     ecut=    95.00 Ry     beta= 0.70
     Davidson diagonalization with overlap
     ethr =  2.93E-05,  avg # of iterations =  2.2

     total cpu time spent up to now is        2.6 secs

     total energy              =    -355.30149995 Ry
     Harris-Foulkes estimate   =    -355.30260219 Ry
     estimated scf accuracy    <       0.00237049 Ry

     iteration #  3     ecut=    95.00 Ry     beta= 0.70
     Davidson diagonalization with overlap
     ethr =  2.15E-05,  avg # of iterations =  1.6

     total cpu time spent up to now is        3.1 secs

     total energy              =    -355.30196110 Ry
     Harris-Foulkes estimate   =    -355.30194011 Ry
     estimated scf accuracy    <       0.00001447 Ry

     iteration #  4     ecut=    95.00 Ry     beta= 0.70
     Davidson diagonalization with overlap
     ethr =  1.32E-07,  avg # of iterations =  2.8

     total cpu time spent up to now is        3.5 secs

     total energy              =    -355.30196699 Ry
     Harris-Foulkes estimate   =    -355.30196676 Ry
     estimated scf accuracy    <       0.00000031 Ry

     iteration #  5     ecut=    95.00 Ry     beta= 0.70
     Davidson diagonalization with overlap
     ethr =  2.83E-09,  avg # of iterations =  1.5

     total cpu time spent up to now is        3.9 secs

     End of self-consistent calculation

          k = 0.0000 0.0000 0.0000 (  1807 PWs)   bands (ev):

     5.0645   8.0796   8.0796   8.0796   9.1196   9.1196  29.8002  33.0871
    33.0871  33.0871

          k =-0.1667 0.1667-0.1667 (  1808 PWs)   bands (ev):

     5.8604   7.9757   8.2567   8.2567   9.0938   9.0938  27.3594  30.5542
    32.9640  32.9640

          k =-0.3333 0.3333-0.3333 (  1820 PWs)   bands (ev):

     6.5862   8.1918   8.1918   9.5272   9.5437   9.5437  20.8582  29.5619
    31.9797  31.9797

          k = 0.5000-0.5000 0.5000 (  1802 PWs)   bands (ev):

     6.4720   8.0570   8.0570   9.9185   9.9185  12.4461  16.4711  28.8394
    31.0981  31.0981

          k = 0.0000 0.3333 0.0000 (  1800 PWs)   bands (ev):

     6.1302   7.6692   8.4923   8.4923   8.7907   9.3041  29.8254  29.9725
    29.9725  30.4860

          k =-0.1667 0.5000-0.1667 (  1804 PWs)   bands (ev):

     6.9688   7.6812   8.2700   8.6585   9.6664  10.0578  23.4896  28.3077
    28.9375  30.5666

          k = 0.6667-0.3333 0.6667 (  1795 PWs)   bands (ev):

     6.8733   7.8218   8.4715   8.7390   9.9461  13.4512  17.5919  26.5665
    28.4207  29.6674

          k = 0.5000-0.1667 0.5000 (  1800 PWs)   bands (ev):

     7.0277   7.9047   8.4550   8.6831   9.4430  12.3459  19.4390  25.3714
    30.1870  30.8228

          k = 0.3333 0.0000 0.3333 (  1817 PWs)   bands (ev):

     6.9014   7.6991   8.3262   8.6110   8.7567   9.9536  25.6051  25.9451
    32.5243  33.6396

          k = 0.0000 0.6667 0.0000 (  1768 PWs)   bands (ev):

     6.8152   6.9192   9.4931   9.4931   9.6872  10.6727  25.1773  25.6118
    25.6118  29.9116

          k = 0.8333-0.1667 0.8333 (  1785 PWs)   bands (ev):

     6.7511   7.0042   9.1649   9.4104  10.0136  14.1537  20.7514  22.0051
    25.1187  29.8819

          k = 0.6667-0.0000 0.6667 (  1790 PWs)   bands (ev):

     7.1128   7.6929   8.3106   9.0770   9.6408  16.0278  18.6980  20.4272
    27.2110  29.8442

          k = 0.0000-1.0000 0.0000 (  1772 PWs)   bands (ev):

     6.4297   6.5736   9.8863  10.1271  10.1271  14.4740  19.6004  23.7140
    23.7140  29.9647

          k = 0.6667-0.3333 1.0000 (  1806 PWs)   bands (ev):

     7.3462   7.4219   8.0750   9.3174   9.4813  12.6714  22.5064  22.5323
    25.9130  33.7340

          k = 0.5000-0.1667 0.8333 (  1792 PWs)   bands (ev):

     7.4071   7.4610   8.1135   8.9971   9.8814  16.5377  17.2805  23.1343
    23.7499  33.2464

          k =-0.3333-1.0000 0.0000 (  1786 PWs)   bands (ev):

     6.9469   7.1269   8.6879   9.3697  10.1279  16.8489  19.7844  20.9284
    21.6456  33.3139

     the Fermi energy is    12.7023 ev

!    total energy              =    -355.30196701 Ry
     Harris-Foulkes estimate   =    -355.30196701 Ry
     estimated scf accuracy    <          6.6E-09 Ry

     total all-electron energy =    -10632.268021 Ry

     The total energy is the sum of the following terms:

     one-electron contribution =       1.56458295 Ry
     hartree contribution      =      14.66743119 Ry
     xc contribution           =     -22.35436470 Ry
     ewald contribution        =     -71.86118018 Ry
     one-center paw contrib.   =    -277.31783713 Ry
     smearing contrib. (-TS)   =      -0.00059914 Ry

     convergence has been achieved in   5 iterations

     Forces acting on atoms (cartesian axes, Ry/au):

     atom    1 type  1   force =     0.00000000    0.00000000    0.00000000

     Total force =     0.000000     Total SCF correction =     0.000000


     Computing stress (Cartesian axis) and pressure

          total   stress  (Ry/bohr**3)                   (kbar)     P=   58.83
   0.00039990   0.00000000   0.00000000         58.83      0.00      0.00
   0.00000000   0.00039990  -0.00000000          0.00     58.83     -0.00
   0.00000000  -0.00000000   0.00039990          0.00     -0.00     58.83


     Writing output data file Ag.save/

     init_run     :      0.46s CPU      0.48s WALL (       1 calls)
     electrons    :      2.47s CPU      2.61s WALL (       1 calls)
     forces       :      0.06s CPU      0.06s WALL (       1 calls)
     stress       :      0.21s CPU      0.21s WALL (       1 calls)

     Called by init_run:
     wfcinit      :      0.08s CPU      0.09s WALL (       1 calls)
     potinit      :      0.12s CPU      0.14s WALL (       1 calls)
     hinit0       :      0.21s CPU      0.21s WALL (       1 calls)

     Called by electrons:
     c_bands      :      1.48s CPU      1.57s WALL (       6 calls)
     sum_band     :      0.37s CPU      0.39s WALL (       6 calls)
     v_of_rho     :      0.05s CPU      0.06s WALL (       6 calls)
     newd         :      0.10s CPU      0.10s WALL (       6 calls)
     PAW_pot      :      0.59s CPU      0.62s WALL (       6 calls)
     mix_rho      :      0.00s CPU      0.00s WALL (       6 calls)

     Called by c_bands:
     init_us_2    :      0.05s CPU      0.05s WALL (     240 calls)
     cegterg      :      1.42s CPU      1.50s WALL (      96 calls)

     Called by sum_band:
     sum_band:bec :      0.00s CPU      0.00s WALL (      96 calls)
     addusdens    :      0.08s CPU      0.08s WALL (       6 calls)

     Called by *egterg:
     h_psi        :      1.20s CPU      1.28s WALL (     373 calls)
     s_psi        :      0.03s CPU      0.04s WALL (     373 calls)
     g_psi        :      0.00s CPU      0.00s WALL (     261 calls)
     cdiaghg      :      0.08s CPU      0.08s WALL (     341 calls)

     Called by h_psi:
     h_psi:pot    :      1.19s CPU      1.27s WALL (     373 calls)
     h_psi:calbec :      0.06s CPU      0.06s WALL (     373 calls)
     vloc_psi     :      1.10s CPU      1.17s WALL (     373 calls)
     add_vuspsi   :      0.04s CPU      0.04s WALL (     373 calls)

     General routines
     calbec       :      0.09s CPU      0.10s WALL (     549 calls)
     fft          :      0.04s CPU      0.04s WALL (      93 calls)
     ffts         :      0.00s CPU      0.00s WALL (       6 calls)
     fftw         :      1.24s CPU      1.32s WALL (    6008 calls)

     Parallel routines
     fft_scatt_xy :      0.10s CPU      0.10s WALL (    6107 calls)
     fft_scatt_yz :      0.37s CPU      0.39s WALL (    6107 calls)

     PWSCF        :     4.08s CPU         4.29s WALL


   This run was terminated on:   0:48: 5  27Mar2024            

=------------------------------------------------------------------------------=
   JOB DONE.
=------------------------------------------------------------------------------=
