
     Program PWSCF v.6.3MaX starts on 27Mar2024 at  0: 9:59 

     This program is part of the open-source Quantum ESPRESSO suite
     for quantum simulation of materials; please cite
         "P. Giannozzi et al., J. Phys.:Condens. Matter 21 395502 (2009);
         "P. Giannozzi et al., J. Phys.:Condens. Matter 29 465901 (2017);
          URL http://www.quantum-espresso.org", 
     in publications or presentations arising from this work. More details at
     http://www.quantum-espresso.org/quote

     Parallel version (MPI), running on     5 processors

     MPI processes distributed on     1 nodes
     R & G space division:  proc/nbgrp/npool/nimage =       5
     Waiting for input...
     Reading input from standard input

     Current dimensions of program PWSCF are:
     Max number of different atomic species (ntypx) = 10
     Max number of k-points (npk) =  40000
     Max angular momentum in pseudopotentials (lmaxx) =  3

     Subspace diagonalization in iterative solution of the eigenvalue problem:
     a serial algorithm will be used


     Parallelization info
     --------------------
     sticks:   dense  smooth     PW     G-vecs:    dense   smooth      PW
     Min          39      39     14                  381      381      82
     Max          40      40     15                  384      384      83
     Sum         199     199     73                 1917     1917     411



     bravais-lattice index     =            2
     lattice parameter (alat)  =       7.7200  a.u.
     unit-cell volume          =     115.0249 (a.u.)^3
     number of atoms/cell      =            1
     number of atomic types    =            1
     number of electrons       =        11.00
     number of Kohn-Sham states=           10
     kinetic-energy cutoff     =      25.0000  Ry
     charge density cutoff     =     100.0000  Ry
     convergence threshold     =      1.0E-08
     mixing beta               =       0.7000
     number of iterations used =            8  plain     mixing
     Exchange-correlation      = PBE ( 1  4  3  4 0 0)

     celldm(1)=   7.720000  celldm(2)=   0.000000  celldm(3)=   0.000000
     celldm(4)=   0.000000  celldm(5)=   0.000000  celldm(6)=   0.000000

     crystal axes: (cart. coord. in units of alat)
               a(1) = (  -0.500000   0.000000   0.500000 )  
               a(2) = (   0.000000   0.500000   0.500000 )  
               a(3) = (  -0.500000   0.500000   0.000000 )  

     reciprocal axes: (cart. coord. in units 2 pi/alat)
               b(1) = ( -1.000000 -1.000000  1.000000 )  
               b(2) = (  1.000000  1.000000  1.000000 )  
               b(3) = ( -1.000000  1.000000 -1.000000 )  


     PseudoPot. # 1 for Ag read from file:
     /home/lorenzo/pseudos/Ag/Ag.pbe-n-rrkjus_psl.1.0.0.UPF
     MD5 check sum: d841cbfac2b0861aec33b46768a516bf
     Pseudo is Ultrasoft + core correction, Zval = 11.0
     Generated using "atomic" code by A. Dal Corso v.6.2.2
     Using radial grid of 1237 points,  6 beta functions with: 
                l(1) =   0
                l(2) =   0
                l(3) =   1
                l(4) =   1
                l(5) =   2
                l(6) =   2
     Q(r) pseudized with 0 coefficients 


     atomic species   valence    mass     pseudopotential
        Ag            11.00   107.86820     Ag( 1.00)

     48 Sym. Ops., with inversion, found



   Cartesian axes

     site n.     atom                  positions (alat units)
         1           Ag  tau(   1) = (   0.0000000   0.0000000   0.0000000  )

     number of k points=    56  gaussian smearing, width (Ry)=  0.0100
                       cart. coord. in units 2pi/alat
        k(    1) = (   0.0000000   0.0000000   0.0000000), wk =   0.0015026
        k(    2) = (  -0.0909091   0.0909091  -0.0909091), wk =   0.0120210
        k(    3) = (  -0.1818182   0.1818182  -0.1818182), wk =   0.0120210
        k(    4) = (  -0.2727273   0.2727273  -0.2727273), wk =   0.0120210
        k(    5) = (  -0.3636364   0.3636364  -0.3636364), wk =   0.0120210
        k(    6) = (  -0.4545455   0.4545455  -0.4545455), wk =   0.0120210
        k(    7) = (   0.0000000   0.1818182   0.0000000), wk =   0.0090158
        k(    8) = (  -0.0909091   0.2727273  -0.0909091), wk =   0.0360631
        k(    9) = (  -0.1818182   0.3636364  -0.1818182), wk =   0.0360631
        k(   10) = (  -0.2727273   0.4545455  -0.2727273), wk =   0.0360631
        k(   11) = (  -0.3636364   0.5454545  -0.3636364), wk =   0.0360631
        k(   12) = (   0.5454545  -0.3636364   0.5454545), wk =   0.0360631
        k(   13) = (   0.4545455  -0.2727273   0.4545455), wk =   0.0360631
        k(   14) = (   0.3636364  -0.1818182   0.3636364), wk =   0.0360631
        k(   15) = (   0.2727273  -0.0909091   0.2727273), wk =   0.0360631
        k(   16) = (   0.1818182  -0.0000000   0.1818182), wk =   0.0180316
        k(   17) = (   0.0000000   0.3636364   0.0000000), wk =   0.0090158
        k(   18) = (  -0.0909091   0.4545455  -0.0909091), wk =   0.0360631
        k(   19) = (  -0.1818182   0.5454545  -0.1818182), wk =   0.0360631
        k(   20) = (  -0.2727273   0.6363636  -0.2727273), wk =   0.0360631
        k(   21) = (   0.6363636  -0.2727273   0.6363636), wk =   0.0360631
        k(   22) = (   0.5454545  -0.1818182   0.5454545), wk =   0.0360631
        k(   23) = (   0.4545455  -0.0909091   0.4545455), wk =   0.0360631
        k(   24) = (   0.3636364   0.0000000   0.3636364), wk =   0.0180316
        k(   25) = (   0.0000000   0.5454545   0.0000000), wk =   0.0090158
        k(   26) = (  -0.0909091   0.6363636  -0.0909091), wk =   0.0360631
        k(   27) = (  -0.1818182   0.7272727  -0.1818182), wk =   0.0360631
        k(   28) = (   0.7272727  -0.1818182   0.7272727), wk =   0.0360631
        k(   29) = (   0.6363636  -0.0909091   0.6363636), wk =   0.0360631
        k(   30) = (   0.5454545   0.0000000   0.5454545), wk =   0.0180316
        k(   31) = (   0.0000000   0.7272727   0.0000000), wk =   0.0090158
        k(   32) = (  -0.0909091   0.8181818  -0.0909091), wk =   0.0360631
        k(   33) = (   0.8181818  -0.0909091   0.8181818), wk =   0.0360631
        k(   34) = (   0.7272727   0.0000000   0.7272727), wk =   0.0180316
        k(   35) = (   0.0000000   0.9090909   0.0000000), wk =   0.0090158
        k(   36) = (   0.9090909  -0.0000000   0.9090909), wk =   0.0180316
        k(   37) = (  -0.1818182   0.3636364   0.0000000), wk =   0.0360631
        k(   38) = (  -0.2727273   0.4545455  -0.0909091), wk =   0.0721262
        k(   39) = (  -0.3636364   0.5454545  -0.1818182), wk =   0.0721262
        k(   40) = (   0.5454545  -0.3636364   0.7272727), wk =   0.0721262
        k(   41) = (  -0.1818182   0.5454545   0.0000000), wk =   0.0360631
        k(   42) = (  -0.2727273   0.6363636  -0.0909091), wk =   0.0721262
        k(   43) = (   0.6363636  -0.2727273   0.8181818), wk =   0.0721262
        k(   44) = (   0.5454545  -0.1818182   0.7272727), wk =   0.0721262
        k(   45) = (   0.4545455  -0.0909091   0.6363636), wk =   0.0721262
        k(   46) = (   0.3636364   0.0000000   0.5454545), wk =   0.0360631
        k(   47) = (  -0.1818182   0.7272727   0.0000000), wk =   0.0360631
        k(   48) = (   0.7272727  -0.1818182   0.9090909), wk =   0.0721262
        k(   49) = (   0.6363636  -0.0909091   0.8181818), wk =   0.0721262
        k(   50) = (   0.5454545   0.0000000   0.7272727), wk =   0.0360631
        k(   51) = (   0.8181818  -0.0909091   1.0000000), wk =   0.0360631
        k(   52) = (   0.7272727   0.0000000   0.9090909), wk =   0.0360631
        k(   53) = (   0.6363636  -0.2727273   1.0000000), wk =   0.0360631
        k(   54) = (   0.5454545  -0.1818182   0.9090909), wk =   0.0721262
        k(   55) = (   0.6363636  -0.0909091   1.0000000), wk =   0.0360631
        k(   56) = (   0.5454545   0.0000000   0.9090909), wk =   0.0360631

     Dense  grid:     1917 G-vectors     FFT dimensions: (  18,  18,  18)

     Estimated max dynamical RAM per process >       2.83 MB

     Estimated total dynamical RAM >      14.17 MB

     Initial potential from superposition of free atoms

     starting charge   10.99960, renormalised to   11.00000
     Starting wfcs are    9 randomized atomic wfcs +    1 random wfcs

     total cpu time spent up to now is        1.0 secs

     Self-consistent Calculation

     iteration #  1     ecut=    25.00 Ry     beta= 0.70
     Davidson diagonalization with overlap
     ethr =  1.00E-02,  avg # of iterations =  4.8

     Threshold (ethr) on eigenvalues was too large:
     Diagonalizing with lowered threshold

     Davidson diagonalization with overlap
     ethr =  7.40E-04,  avg # of iterations =  1.0

     total cpu time spent up to now is        1.5 secs

     total energy              =     -83.76735538 Ry
     Harris-Foulkes estimate   =     -83.82519549 Ry
     estimated scf accuracy    <       0.08366486 Ry

     iteration #  2     ecut=    25.00 Ry     beta= 0.70
     Davidson diagonalization with overlap
     ethr =  7.61E-04,  avg # of iterations =  2.0

     total cpu time spent up to now is        1.7 secs

     total energy              =     -83.79332439 Ry
     Harris-Foulkes estimate   =     -83.82135506 Ry
     estimated scf accuracy    <       0.05466309 Ry

     iteration #  3     ecut=    25.00 Ry     beta= 0.70
     Davidson diagonalization with overlap
     ethr =  4.97E-04,  avg # of iterations =  1.6

     total cpu time spent up to now is        1.9 secs

     total energy              =     -83.80386469 Ry
     Harris-Foulkes estimate   =     -83.80370189 Ry
     estimated scf accuracy    <       0.00030808 Ry

     iteration #  4     ecut=    25.00 Ry     beta= 0.70
     Davidson diagonalization with overlap
     ethr =  2.80E-06,  avg # of iterations =  3.2

     total cpu time spent up to now is        2.2 secs

     total energy              =     -83.80408871 Ry
     Harris-Foulkes estimate   =     -83.80408906 Ry
     estimated scf accuracy    <       0.00003028 Ry

     iteration #  5     ecut=    25.00 Ry     beta= 0.70
     Davidson diagonalization with overlap
     ethr =  2.75E-07,  avg # of iterations =  1.0

     total cpu time spent up to now is        2.4 secs

     total energy              =     -83.80407668 Ry
     Harris-Foulkes estimate   =     -83.80408881 Ry
     estimated scf accuracy    <       0.00002911 Ry

     iteration #  6     ecut=    25.00 Ry     beta= 0.70
     Davidson diagonalization with overlap
     ethr =  2.65E-07,  avg # of iterations =  2.0

     total cpu time spent up to now is        2.6 secs

     total energy              =     -83.80408151 Ry
     Harris-Foulkes estimate   =     -83.80409513 Ry
     estimated scf accuracy    <       0.00002989 Ry

     iteration #  7     ecut=    25.00 Ry     beta= 0.70
     Davidson diagonalization with overlap
     ethr =  2.65E-07,  avg # of iterations =  1.2

     total cpu time spent up to now is        2.8 secs

     total energy              =     -83.80408531 Ry
     Harris-Foulkes estimate   =     -83.80408565 Ry
     estimated scf accuracy    <       0.00000083 Ry

     iteration #  8     ecut=    25.00 Ry     beta= 0.70
     Davidson diagonalization with overlap
     ethr =  7.50E-09,  avg # of iterations =  2.1

     total cpu time spent up to now is        3.0 secs

     total energy              =     -83.80408555 Ry
     Harris-Foulkes estimate   =     -83.80408554 Ry
     estimated scf accuracy    <       0.00000002 Ry

     iteration #  9     ecut=    25.00 Ry     beta= 0.70
     Davidson diagonalization with overlap
     ethr =  1.69E-10,  avg # of iterations =  2.1

     total cpu time spent up to now is        3.3 secs

     total energy              =     -83.80408555 Ry
     Harris-Foulkes estimate   =     -83.80408555 Ry
     estimated scf accuracy    <       0.00000001 Ry

     iteration # 10     ecut=    25.00 Ry     beta= 0.70
     Davidson diagonalization with overlap
     ethr =  1.12E-10,  avg # of iterations =  1.0

     total cpu time spent up to now is        3.4 secs

     End of self-consistent calculation

          k = 0.0000 0.0000 0.0000 (   259 PWs)   bands (ev):

     5.0532   7.7405   7.7405   7.7405   8.9706   8.9706  29.8826  33.0522
    33.0522  37.4773

          k =-0.0909 0.0909-0.0909 (   256 PWs)   bands (ev):

     5.3060   7.8238   7.8238   7.8506   8.9723   8.9723  29.6530  31.1792
    33.0318  33.0318

          k =-0.1818 0.1818-0.1818 (   250 PWs)   bands (ev):

     5.9652   7.9488   8.0227   8.0227   9.0286   9.0286  26.8138  30.6137
    32.8844  32.8844

          k =-0.2727 0.2727-0.2727 (   247 PWs)   bands (ev):

     6.4542   8.0694   8.0694   8.4549   9.2913   9.2913  23.1457  30.1395
    32.4009  32.4009

          k =-0.3636 0.3636-0.3636 (   247 PWs)   bands (ev):

     6.4371   7.9185   7.9185   9.6336   9.6336  10.0703  19.6929  29.4347
    31.6329  31.6329

          k =-0.4545 0.4545-0.4545 (   242 PWs)   bands (ev):

     6.3169   7.9108   7.9108   9.9323   9.9323  11.9676  16.8974  28.9891
    31.0501  31.0501

          k = 0.0000 0.1818 0.0000 (   258 PWs)   bands (ev):

     5.3913   7.6203   7.8805   7.8805   8.9344   9.0343  29.8850  31.8797
    31.9006  31.9006

          k =-0.0909 0.2727-0.0909 (   249 PWs)   bands (ev):

     5.9285   7.6334   8.1397   8.2282   8.8300   9.2283  28.1659  30.3444
    31.0178  33.0582

          k =-0.1818 0.3636-0.1818 (   246 PWs)   bands (ev):

     6.5663   7.7801   8.1409   8.3160   9.1587   9.4418  24.5517  30.0155
    30.2982  33.1748

          k =-0.2727 0.4545-0.2727 (   242 PWs)   bands (ev):

     6.6414   7.9265   8.2404   8.6198   9.7962  10.2364  20.9744  29.3866
    29.8133  31.5322

          k =-0.3636 0.5455-0.3636 (   241 PWs)   bands (ev):

     6.5306   7.8838   8.0802   9.2013   9.9685  12.0010  17.8423  28.7427
    29.7432  30.2895

          k = 0.5455-0.3636 0.5455 (   246 PWs)   bands (ev):

     6.4459   7.8262   7.9554   9.3668   9.8348  13.0183  16.4731  28.2377
    29.8166  30.3140

          k = 0.4545-0.2727 0.4545 (   245 PWs)   bands (ev):

     6.5504   7.9026   7.9737   9.2806   9.5390  11.4468  18.8042  28.0598
    30.1573  31.6241

          k = 0.3636-0.1818 0.3636 (   246 PWs)   bands (ev):

     6.6663   7.9823   8.0959   8.5275   9.1298  10.1490  22.1330  28.2393
    31.1409  33.5755

          k = 0.2727-0.0909 0.2727 (   243 PWs)   bands (ev):

     6.4073   7.8972   8.1730   8.2267   8.9154   9.4968  25.7945  28.6963
    32.3091  34.4223

          k = 0.1818-0.0000 0.1818 (   249 PWs)   bands (ev):

     5.7054   7.8060   7.9361   8.1377   8.9388   9.1805  29.1145  29.3738
    32.2011  34.2725

          k = 0.0000 0.3636 0.0000 (   246 PWs)   bands (ev):

     6.2747   7.3644   8.5098   8.5098   8.7134   9.2534  29.5286  29.5286
    29.9363  30.3544

          k =-0.0909 0.4545-0.0909 (   242 PWs)   bands (ev):

     6.7886   7.3242   8.4322   8.7137   9.2337   9.4563  26.1940  28.4486
    29.6511  30.8432

          k =-0.1818 0.5455-0.1818 (   241 PWs)   bands (ev):

     6.8801   7.5785   8.2425   8.6446   9.8412  10.4904  22.5693  27.8193
    28.2948  30.2191

          k =-0.2727 0.6364-0.2727 (   242 PWs)   bands (ev):

     6.8264   7.7010   8.4159   8.4322   9.9268  12.3980  19.2096  26.7812
    27.7642  29.8508

          k = 0.6364-0.2727 0.6364 (   242 PWs)   bands (ev):

     6.8055   7.7022   8.3180   8.6681   9.8494  14.3835  16.6960  25.6108
    28.4406  29.7213

          k = 0.5455-0.1818 0.5455 (   244 PWs)   bands (ev):

     6.9159   7.7335   8.2557   8.6332   9.5062  13.2177  18.3258  24.9241
    29.8198  29.9920

          k = 0.4545-0.0909 0.4545 (   249 PWs)   bands (ev):

     7.0673   7.7590   8.2104   8.3291   9.0028  11.4018  21.5103  24.7693
    30.7832  31.7766

          k = 0.3636 0.0000 0.3636 (   246 PWs)   bands (ev):

     7.0437   7.6662   8.1457   8.4767   8.6225  10.2311  24.8647  25.3316
    32.0783  34.1093

          k = 0.0000 0.5455 0.0000 (   234 PWs)   bands (ev):

     6.8816   7.0890   9.2329   9.2329   9.3453   9.6214  27.0265  27.0265
    28.0014  30.1039

          k =-0.0909 0.6364-0.0909 (   240 PWs)   bands (ev):

     6.8022   6.9909   8.9983   9.1948   9.7606  10.7254  24.2963  25.9844
    26.1171  30.1287

          k =-0.1818 0.7273-0.1818 (   240 PWs)   bands (ev):

     6.8097   7.0689   8.7445   9.0879  10.0058  12.7244  20.9623  24.2394
    25.9270  29.9839

          k = 0.7273-0.1818 0.7273 (   241 PWs)   bands (ev):

     6.9044   7.3722   8.4683   8.8705   9.9044  15.1510  17.9980  22.8273
    26.5045  29.8980

          k = 0.6364-0.0909 0.6364 (   241 PWs)   bands (ev):

     7.1036   7.6487   8.2072   8.7590   9.5739  15.2655  18.1833  21.8598
    27.8160  29.9561

          k = 0.5455 0.0000 0.5455 (   240 PWs)   bands (ev):

     7.3651   7.7464   8.0511   8.6694   9.2722  13.1826  21.1663  21.5993
    29.6725  30.2949

          k = 0.0000 0.7273 0.0000 (   242 PWs)   bands (ev):

     6.5643   6.6778   9.6428   9.6597   9.6597  11.3931  23.7542  24.9473
    24.9473  30.0912

          k =-0.0909 0.8182-0.0909 (   238 PWs)   bands (ev):

     6.5376   6.6541   9.5668   9.6875   9.9966  13.1068  21.8450  22.9794
    24.5072  30.0984

          k = 0.8182-0.0909 0.8182 (   239 PWs)   bands (ev):

     6.6113   6.8678   9.1157   9.5536   9.9657  15.3317  19.8883  20.7994
    24.9110  30.0100

          k = 0.7273 0.0000 0.7273 (   240 PWs)   bands (ev):

     6.8370   7.3029   8.5429   9.2012   9.7951  17.4998  17.5166  20.1074
    26.0811  29.9521

          k = 0.0000 0.9091 0.0000 (   242 PWs)   bands (ev):

     6.3415   6.4842   9.7483  10.0173  10.0173  13.8493  20.2343  23.7781
    23.7781  30.0959

          k = 0.9091-0.0000 0.9091 (   236 PWs)   bands (ev):

     6.4908   6.5648   9.7955   9.8779  10.0648  14.8724  19.6390  22.4071
    23.9229  30.1493

          k =-0.1818 0.3636 0.0000 (   246 PWs)   bands (ev):

     6.5179   7.5105   8.1700   8.4611   8.8758   9.4959  27.1607  27.4735
    32.0603  32.1073

          k =-0.2727 0.4545-0.0909 (   244 PWs)   bands (ev):

     6.9490   7.6722   8.1166   8.5279   9.1256  10.2094  23.6696  26.7669
    30.3990  32.6140

          k =-0.3636 0.5455-0.1818 (   244 PWs)   bands (ev):

     6.8342   7.8544   8.1853   8.5026   9.5947  11.5748  20.1840  26.5438
    28.8592  31.7658

          k = 0.5455-0.3636 0.7273 (   243 PWs)   bands (ev):

     6.7638   7.7014   8.2383   8.7777   9.8212  13.5031  17.2491  26.8192
    27.6380  31.1000

          k =-0.1818 0.5455 0.0000 (   239 PWs)   bands (ev):

     7.0554   7.1749   8.4069   9.0889   9.4158  10.2907  25.2528  25.5331
    28.2115  31.7617

          k =-0.2727 0.6364-0.0909 (   244 PWs)   bands (ev):

     6.9458   7.3290   8.1750   9.0398   9.6310  11.8137  21.8749  25.0117
    26.4095  31.7685

          k = 0.6364-0.2727 0.8182 (   243 PWs)   bands (ev):

     6.9590   7.5213   8.1914   8.7814   9.8053  13.9481  18.6925  24.8233
    25.3252  31.5527

          k = 0.5455-0.1818 0.7273 (   245 PWs)   bands (ev):

     7.0305   7.4920   8.2758   8.5943   9.7043  15.4148  17.0211  23.7797
    26.0634  31.6746

          k = 0.4545-0.0909 0.6364 (   244 PWs)   bands (ev):

     7.2501   7.5920   7.9823   8.6895   9.4671  13.3162  19.8381  23.2083
    27.3126  32.3812

          k = 0.3636 0.0000 0.5455 (   239 PWs)   bands (ev):

     7.4891   7.4931   7.9364   8.9907   9.0778  11.5374  23.1259  23.3107
    28.8413  33.6174

          k =-0.1818 0.7273 0.0000 (   239 PWs)   bands (ev):

     6.7820   6.8836   8.9246   9.6688   9.6889  12.2027  23.4422  23.7958
    24.2050  31.5429

          k = 0.7273-0.1818 0.9091 (   239 PWs)   bands (ev):

     6.8265   6.9802   8.6920   9.4753   9.9125  14.3103  20.5771  22.3823
    23.8797  31.6051

          k = 0.6364-0.0909 0.8182 (   243 PWs)   bands (ev):

     6.9453   7.2950   8.3053   9.0574   9.8633  16.8223  17.8107  21.1261
    24.5924  31.6582

          k = 0.5455 0.0000 0.7273 (   240 PWs)   bands (ev):

     7.2539   7.6707   7.8684   8.9024   9.7001  15.4077  19.4183  20.6747
    25.8374  32.0138

          k = 0.8182-0.0909 1.0000 (   240 PWs)   bands (ev):

     6.5369   6.6356   9.4062   9.7083  10.0036  14.6671  20.3305  22.7341
    22.8469  31.3943

          k = 0.7273 0.0000 0.9091 (   240 PWs)   bands (ev):

     6.7082   6.8629   8.9663   9.4657  10.0170  16.3230  19.5790  20.4122
    23.4026  31.5775

          k = 0.6364-0.2727 1.0000 (   243 PWs)   bands (ev):

     7.2027   7.2430   7.9616   9.2268   9.6388  13.6540  21.6076  21.8145
    24.7417  34.2527

          k = 0.5455-0.1818 0.9091 (   241 PWs)   bands (ev):

     7.2256   7.4621   7.9048   9.0017   9.8522  15.9318  18.6627  22.1128
    23.4433  33.9056

          k = 0.6364-0.0909 1.0000 (   243 PWs)   bands (ev):

     6.9963   7.0678   8.3736   9.1797   9.9683  16.3570  20.4852  20.6191
    21.7599  33.9808

          k = 0.5455 0.0000 0.9091 (   245 PWs)   bands (ev):

     7.0829   7.4614   7.8440   9.0108   9.9863  18.1931  18.3457  20.1644
    22.1357  34.5619

     the Fermi energy is    13.0528 ev

!    total energy              =     -83.80408555 Ry
     Harris-Foulkes estimate   =     -83.80408555 Ry
     estimated scf accuracy    <          7.1E-09 Ry

     The total energy is the sum of the following terms:

     one-electron contribution =      -3.80944080 Ry
     hartree contribution      =      14.10525725 Ry
     xc contribution           =     -22.23849048 Ry
     ewald contribution        =     -71.86118028 Ry
     smearing contrib. (-TS)   =      -0.00023124 Ry

     convergence has been achieved in  10 iterations

     Forces acting on atoms (cartesian axes, Ry/au):

     atom    1 type  1   force =     0.00000000    0.00000000    0.00000000

     Total force =     0.000000     Total SCF correction =     0.000000


     Computing stress (Cartesian axis) and pressure

          total   stress  (Ry/bohr**3)                   (kbar)     P=-2814.14
  -0.01913017  -0.00000000  -0.00000000      -2814.14     -0.00     -0.00
  -0.00000000  -0.01913017  -0.00000000         -0.00  -2814.14     -0.00
  -0.00000000   0.00000000  -0.01913017         -0.00      0.00  -2814.14


     Writing output data file Ag.save/

     init_run     :      0.16s CPU      0.17s WALL (       1 calls)
     electrons    :      2.18s CPU      2.43s WALL (       1 calls)
     forces       :      0.03s CPU      0.03s WALL (       1 calls)
     stress       :      0.08s CPU      0.09s WALL (       1 calls)

     Called by init_run:
     wfcinit      :      0.06s CPU      0.07s WALL (       1 calls)
     potinit      :      0.00s CPU      0.00s WALL (       1 calls)
     hinit0       :      0.10s CPU      0.10s WALL (       1 calls)

     Called by electrons:
     c_bands      :      1.82s CPU      2.04s WALL (      11 calls)
     sum_band     :      0.32s CPU      0.35s WALL (      11 calls)
     v_of_rho     :      0.01s CPU      0.01s WALL (      11 calls)
     newd         :      0.02s CPU      0.02s WALL (      11 calls)
     mix_rho      :      0.00s CPU      0.00s WALL (      11 calls)

     Called by c_bands:
     init_us_2    :      0.05s CPU      0.05s WALL (    1400 calls)
     cegterg      :      1.75s CPU      1.96s WALL (     616 calls)

     Called by sum_band:
     sum_band:bec :      0.00s CPU      0.01s WALL (     616 calls)
     addusdens    :      0.02s CPU      0.02s WALL (      11 calls)

     Called by *egterg:
     h_psi        :      1.27s CPU      1.42s WALL (    1904 calls)
     s_psi        :      0.04s CPU      0.04s WALL (    1904 calls)
     g_psi        :      0.00s CPU      0.00s WALL (    1232 calls)
     cdiaghg      :      0.30s CPU      0.33s WALL (    1792 calls)

     Called by h_psi:
     h_psi:pot    :      1.26s CPU      1.41s WALL (    1904 calls)
     h_psi:calbec :      0.06s CPU      0.06s WALL (    1904 calls)
     vloc_psi     :      1.15s CPU      1.29s WALL (    1904 calls)
     add_vuspsi   :      0.04s CPU      0.04s WALL (    1904 calls)

     General routines
     calbec       :      0.08s CPU      0.09s WALL (    2800 calls)
     fft          :      0.01s CPU      0.01s WALL (     148 calls)
     ffts         :      0.00s CPU      0.00s WALL (      11 calls)
     fftw         :      1.28s CPU      1.43s WALL (   36640 calls)

     Parallel routines
     fft_scatt_xy :      0.12s CPU      0.14s WALL (   36799 calls)
     fft_scatt_yz :      0.39s CPU      0.43s WALL (   36799 calls)

     PWSCF        :     3.33s CPU         3.66s WALL


   This run was terminated on:   0:10: 3  27Mar2024            

=------------------------------------------------------------------------------=
   JOB DONE.
=------------------------------------------------------------------------------=
