
     Program PWSCF v.6.3MaX starts on 27Mar2024 at  0: 5:18 

     This program is part of the open-source Quantum ESPRESSO suite
     for quantum simulation of materials; please cite
         "P. Giannozzi et al., J. Phys.:Condens. Matter 21 395502 (2009);
         "P. Giannozzi et al., J. Phys.:Condens. Matter 29 465901 (2017);
          URL http://www.quantum-espresso.org", 
     in publications or presentations arising from this work. More details at
     http://www.quantum-espresso.org/quote

     Parallel version (MPI), running on     5 processors

     MPI processes distributed on     1 nodes
     R & G space division:  proc/nbgrp/npool/nimage =       5
     Waiting for input...
     Reading input from standard input

     Current dimensions of program PWSCF are:
     Max number of different atomic species (ntypx) = 10
     Max number of k-points (npk) =  40000
     Max angular momentum in pseudopotentials (lmaxx) =  3
               file Ag.pbe-n-kjpaw_psl.1.0.0.UPF: wavefunction(s)  5S 5P renormalized

     Subspace diagonalization in iterative solution of the eigenvalue problem:
     a serial algorithm will be used


     Parallelization info
     --------------------
     sticks:   dense  smooth     PW     G-vecs:    dense   smooth      PW
     Min          17      17      7                  106      106      27
     Max          17      17      8                  107      107      28
     Sum          85      85     37                  531      531     137



     bravais-lattice index     =            2
     lattice parameter (alat)  =       7.7200  a.u.
     unit-cell volume          =     115.0249 (a.u.)^3
     number of atoms/cell      =            1
     number of atomic types    =            1
     number of electrons       =        11.00
     number of Kohn-Sham states=           10
     kinetic-energy cutoff     =      10.0000  Ry
     charge density cutoff     =      40.0000  Ry
     convergence threshold     =      1.0E-08
     mixing beta               =       0.7000
     number of iterations used =            8  plain     mixing
     Exchange-correlation      = SLA PW PBX PBC ( 1  4  3  4 0 0)

     celldm(1)=   7.720000  celldm(2)=   0.000000  celldm(3)=   0.000000
     celldm(4)=   0.000000  celldm(5)=   0.000000  celldm(6)=   0.000000

     crystal axes: (cart. coord. in units of alat)
               a(1) = (  -0.500000   0.000000   0.500000 )  
               a(2) = (   0.000000   0.500000   0.500000 )  
               a(3) = (  -0.500000   0.500000   0.000000 )  

     reciprocal axes: (cart. coord. in units 2 pi/alat)
               b(1) = ( -1.000000 -1.000000  1.000000 )  
               b(2) = (  1.000000  1.000000  1.000000 )  
               b(3) = ( -1.000000  1.000000 -1.000000 )  


     PseudoPot. # 1 for Ag read from file:
     /home/lorenzo/pseudos/Ag/Ag.pbe-n-kjpaw_psl.1.0.0.UPF
     MD5 check sum: 51099775af2a3182a6a1caffb86952a3
     Pseudo is Projector augmented-wave + core cor, Zval = 11.0
     Generated using "atomic" code by A. Dal Corso v.6.2.2
     Shape of augmentation charge: PSQ
     Using radial grid of 1237 points,  6 beta functions with: 
                l(1) =   0
                l(2) =   0
                l(3) =   1
                l(4) =   1
                l(5) =   2
                l(6) =   2
     Q(r) pseudized with 0 coefficients 


     atomic species   valence    mass     pseudopotential
        Ag            11.00   107.86820     Ag( 1.00)

     48 Sym. Ops., with inversion, found



   Cartesian axes

     site n.     atom                  positions (alat units)
         1           Ag  tau(   1) = (   0.0000000   0.0000000   0.0000000  )

     number of k points=    16  gaussian smearing, width (Ry)=  0.0100
                       cart. coord. in units 2pi/alat
        k(    1) = (   0.0000000   0.0000000   0.0000000), wk =   0.0092593
        k(    2) = (  -0.1666667   0.1666667  -0.1666667), wk =   0.0740741
        k(    3) = (  -0.3333333   0.3333333  -0.3333333), wk =   0.0740741
        k(    4) = (   0.5000000  -0.5000000   0.5000000), wk =   0.0370370
        k(    5) = (   0.0000000   0.3333333   0.0000000), wk =   0.0555556
        k(    6) = (  -0.1666667   0.5000000  -0.1666667), wk =   0.2222222
        k(    7) = (   0.6666667  -0.3333333   0.6666667), wk =   0.2222222
        k(    8) = (   0.5000000  -0.1666667   0.5000000), wk =   0.2222222
        k(    9) = (   0.3333333   0.0000000   0.3333333), wk =   0.1111111
        k(   10) = (   0.0000000   0.6666667   0.0000000), wk =   0.0555556
        k(   11) = (   0.8333333  -0.1666667   0.8333333), wk =   0.2222222
        k(   12) = (   0.6666667  -0.0000000   0.6666667), wk =   0.1111111
        k(   13) = (   0.0000000  -1.0000000   0.0000000), wk =   0.0277778
        k(   14) = (   0.6666667  -0.3333333   1.0000000), wk =   0.2222222
        k(   15) = (   0.5000000  -0.1666667   0.8333333), wk =   0.2222222
        k(   16) = (  -0.3333333  -1.0000000   0.0000000), wk =   0.1111111

     Dense  grid:      531 G-vectors     FFT dimensions: (  12,  12,  12)

     Estimated max dynamical RAM per process >       1.06 MB

     Estimated total dynamical RAM >       5.31 MB

     Initial potential from superposition of free atoms
     Check: negative starting charge=   -0.000240

     starting charge   10.99960, renormalised to   11.00000

     negative rho (up, down):  2.404E-04 0.000E+00
     Starting wfcs are    9 randomized atomic wfcs +    1 random wfcs
     Checking if some PAW data can be deallocated... 

     total cpu time spent up to now is        1.0 secs

     Self-consistent Calculation

     iteration #  1     ecut=    10.00 Ry     beta= 0.70
     Davidson diagonalization with overlap
     ethr =  1.00E-02,  avg # of iterations =  4.4

     total cpu time spent up to now is        1.2 secs

     total energy              =    -340.57156476 Ry
     Harris-Foulkes estimate   =    -348.37201530 Ry
     estimated scf accuracy    <      10.26268596 Ry

     iteration #  2     ecut=    10.00 Ry     beta= 0.70
     Davidson diagonalization with overlap
     ethr =  1.00E-02,  avg # of iterations =  3.0

     total cpu time spent up to now is        1.3 secs

     total energy              =    -342.62847416 Ry
     Harris-Foulkes estimate   =    -342.70315273 Ry
     estimated scf accuracy    <       0.40652933 Ry

     iteration #  3     ecut=    10.00 Ry     beta= 0.70
     Davidson diagonalization with overlap
     ethr =  3.70E-03,  avg # of iterations =  1.1

     total cpu time spent up to now is        1.5 secs

     total energy              =    -342.63652255 Ry
     Harris-Foulkes estimate   =    -342.63756163 Ry
     estimated scf accuracy    <       0.03468151 Ry

     iteration #  4     ecut=    10.00 Ry     beta= 0.70
     Davidson diagonalization with overlap
     ethr =  3.15E-04,  avg # of iterations =  1.0

     total cpu time spent up to now is        1.6 secs

     total energy              =    -342.63722475 Ry
     Harris-Foulkes estimate   =    -342.63722934 Ry
     estimated scf accuracy    <       0.00006276 Ry

     iteration #  5     ecut=    10.00 Ry     beta= 0.70
     Davidson diagonalization with overlap
     ethr =  5.71E-07,  avg # of iterations =  3.1

     total cpu time spent up to now is        1.8 secs

     total energy              =    -342.63726297 Ry
     Harris-Foulkes estimate   =    -342.63726363 Ry
     estimated scf accuracy    <       0.00000134 Ry

     iteration #  6     ecut=    10.00 Ry     beta= 0.70
     Davidson diagonalization with overlap
     ethr =  1.21E-08,  avg # of iterations =  1.4

     total cpu time spent up to now is        1.9 secs

     total energy              =    -342.63726308 Ry
     Harris-Foulkes estimate   =    -342.63726307 Ry
     estimated scf accuracy    <       0.00000002 Ry

     iteration #  7     ecut=    10.00 Ry     beta= 0.70
     Davidson diagonalization with overlap
     ethr =  1.83E-10,  avg # of iterations =  2.1

     total cpu time spent up to now is        2.1 secs

     End of self-consistent calculation

          k = 0.0000 0.0000 0.0000 (    59 PWs)   bands (ev):

     3.4697  11.5214  11.5214  11.5214  15.2627  15.2627  29.9596  29.9596
    29.9596  33.2406

          k =-0.1667 0.1667-0.1667 (    62 PWs)   bands (ev):

     4.2533  11.2197  11.7277  11.7277  12.8614  12.8614  26.4165  29.6678
    29.6678  34.4038

          k =-0.3333 0.3333-0.3333 (    64 PWs)   bands (ev):

     6.1194  10.6471  11.5022  11.5022  13.5121  13.5121  19.8220  28.4117
    28.4117  33.3520

          k = 0.5000-0.5000 0.5000 (    70 PWs)   bands (ev):

     7.5281   8.9167   8.9167  10.3466  10.3466  12.3037  16.7242  26.7510
    26.7510  32.4313

          k = 0.0000 0.3333 0.0000 (    60 PWs)   bands (ev):

     4.5311  11.1040  12.2448  12.2448  12.6331  15.8258  27.2338  28.5094
    28.5094  35.0063

          k =-0.1667 0.5000-0.1667 (    63 PWs)   bands (ev):

     6.1574  10.9984  11.2873  12.1749  13.3301  13.8789  21.7866  27.0175
    27.8876  34.5617

          k = 0.6667-0.3333 0.6667 (    61 PWs)   bands (ev):

     8.1126  11.3064  11.7041  12.7812  15.7283  16.4666  17.0575  25.8905
    26.0054  33.8326

          k = 0.5000-0.1667 0.5000 (    61 PWs)   bands (ev):

     7.4926  10.9086  12.5010  12.5209  14.2282  16.2511  18.8161  25.2626
    27.9085  34.2368

          k = 0.3333 0.0000 0.3333 (    61 PWs)   bands (ev):

     5.5074  10.9837  12.0390  12.0584  12.8250  15.4060  23.6122  27.2099
    29.8305  35.7016

          k = 0.0000 0.6667 0.0000 (    52 PWs)   bands (ev):

     7.4319  11.5560  14.7108  17.3256  17.7021  17.7021  21.7998  25.9662
    25.9662  37.5092

          k = 0.8333-0.1667 0.8333 (    61 PWs)   bands (ev):

     9.2174  10.6441  11.5259  14.2248  15.7751  16.3089  17.2141  23.0409
    23.5917  37.0318

          k = 0.6667-0.0000 0.6667 (    63 PWs)   bands (ev):

     9.3688  10.6766  10.7764  12.5357  14.4091  14.8845  20.2918  20.6285
    25.6899  35.7918

          k = 0.0000-1.0000 0.0000 (    64 PWs)   bands (ev):

     9.4132   9.8812  13.2768  13.2768  13.6975  14.6706  16.3695  21.5471
    21.5471  37.4565

          k = 0.6667-0.3333 1.0000 (    62 PWs)   bands (ev):

     8.0109  10.8621  11.2037  13.3664  14.2470  15.4971  19.2695  23.5053
    26.7902  35.5677

          k = 0.5000-0.1667 0.8333 (    62 PWs)   bands (ev):

     9.6614  11.1096  12.0187  12.4960  12.6859  15.7475  18.8475  22.1483
    25.4725  36.8320

          k =-0.3333-1.0000 0.0000 (    62 PWs)   bands (ev):

    10.3809  10.8590  12.0937  12.6504  13.9562  15.2481  18.3293  21.1814
    23.9807  38.4142

     the Fermi energy is    15.8296 ev

!    total energy              =    -342.63726308 Ry
     Harris-Foulkes estimate   =    -342.63726308 Ry
     estimated scf accuracy    <          9.7E-10 Ry

     total all-electron energy =    -10619.603317 Ry

     The total energy is the sum of the following terms:

     one-electron contribution =      18.08430514 Ry
     hartree contribution      =       4.21126743 Ry
     xc contribution           =     -19.18079314 Ry
     ewald contribution        =     -71.86118018 Ry
     one-center paw contrib.   =    -273.88937419 Ry
     smearing contrib. (-TS)   =      -0.00148814 Ry

     convergence has been achieved in   7 iterations

     Forces acting on atoms (cartesian axes, Ry/au):

     atom    1 type  1   force =     0.00000000    0.00000000    0.00000000

     Total force =     0.000000     Total SCF correction =     0.000000


     Computing stress (Cartesian axis) and pressure

          total   stress  (Ry/bohr**3)                   (kbar)     P=********
  -0.10673019   0.00000000   0.00000000     -15700.55      0.00      0.00
   0.00000000  -0.10673019   0.00000000          0.00 -15700.55      0.00
   0.00000000  -0.00000000  -0.10673019          0.00     -0.00 -15700.55


     Writing output data file Ag.save/

     init_run     :      0.18s CPU      0.20s WALL (       1 calls)
     electrons    :      0.93s CPU      1.08s WALL (       1 calls)
     forces       :      0.01s CPU      0.01s WALL (       1 calls)
     stress       :      0.02s CPU      0.02s WALL (       1 calls)

     Called by init_run:
     wfcinit      :      0.01s CPU      0.01s WALL (       1 calls)
     potinit      :      0.10s CPU      0.11s WALL (       1 calls)
     hinit0       :      0.05s CPU      0.05s WALL (       1 calls)

     Called by electrons:
     c_bands      :      0.22s CPU      0.26s WALL (       7 calls)
     sum_band     :      0.03s CPU      0.04s WALL (       7 calls)
     v_of_rho     :      0.00s CPU      0.00s WALL (       8 calls)
     newd         :      0.01s CPU      0.01s WALL (       8 calls)
     PAW_pot      :      0.76s CPU      0.87s WALL (       8 calls)
     mix_rho      :      0.00s CPU      0.00s WALL (       7 calls)

     Called by c_bands:
     init_us_2    :      0.00s CPU      0.00s WALL (     272 calls)
     cegterg      :      0.21s CPU      0.25s WALL (     112 calls)

     Called by sum_band:
     sum_band:bec :      0.00s CPU      0.00s WALL (     112 calls)
     addusdens    :      0.00s CPU      0.00s WALL (       7 calls)

     Called by *egterg:
     h_psi        :      0.12s CPU      0.14s WALL (     385 calls)
     s_psi        :      0.00s CPU      0.00s WALL (     385 calls)
     g_psi        :      0.00s CPU      0.00s WALL (     257 calls)
     cdiaghg      :      0.07s CPU      0.08s WALL (     369 calls)

     Called by h_psi:
     h_psi:pot    :      0.12s CPU      0.14s WALL (     385 calls)
     h_psi:calbec :      0.01s CPU      0.01s WALL (     385 calls)
     vloc_psi     :      0.11s CPU      0.13s WALL (     385 calls)
     add_vuspsi   :      0.00s CPU      0.00s WALL (     385 calls)

     General routines
     calbec       :      0.01s CPU      0.01s WALL (     577 calls)
     fft          :      0.00s CPU      0.00s WALL (     114 calls)
     ffts         :      0.00s CPU      0.00s WALL (       7 calls)
     fftw         :      0.11s CPU      0.13s WALL (    7094 calls)

     Parallel routines
     fft_scatt_xy :      0.02s CPU      0.02s WALL (    7215 calls)
     fft_scatt_yz :      0.04s CPU      0.06s WALL (    7215 calls)

     PWSCF        :     1.93s CPU         2.15s WALL


   This run was terminated on:   0: 5:20  27Mar2024            

=------------------------------------------------------------------------------=
   JOB DONE.
=------------------------------------------------------------------------------=
