
     Program PWSCF v.6.3MaX starts on 27Mar2024 at  0:34:56 

     This program is part of the open-source Quantum ESPRESSO suite
     for quantum simulation of materials; please cite
         "P. Giannozzi et al., J. Phys.:Condens. Matter 21 395502 (2009);
         "P. Giannozzi et al., J. Phys.:Condens. Matter 29 465901 (2017);
          URL http://www.quantum-espresso.org", 
     in publications or presentations arising from this work. More details at
     http://www.quantum-espresso.org/quote

     Parallel version (MPI), running on     5 processors

     MPI processes distributed on     1 nodes
     R & G space division:  proc/nbgrp/npool/nimage =       5
     Waiting for input...
     Reading input from standard input

     Current dimensions of program PWSCF are:
     Max number of different atomic species (ntypx) = 10
     Max number of k-points (npk) =  40000
     Max angular momentum in pseudopotentials (lmaxx) =  3
               file Ag.pbe-n-kjpaw_psl.1.0.0.UPF: wavefunction(s)  5S 5P renormalized

     Subspace diagonalization in iterative solution of the eigenvalue problem:
     a serial algorithm will be used


     Parallelization info
     --------------------
     sticks:   dense  smooth     PW     G-vecs:    dense   smooth      PW
     Min         122     122     39                 2016     2016     361
     Max         123     123     40                 2017     2017     363
     Sum         613     613    199                10081    10081    1807



     bravais-lattice index     =            2
     lattice parameter (alat)  =       7.7200  a.u.
     unit-cell volume          =     115.0249 (a.u.)^3
     number of atoms/cell      =            1
     number of atomic types    =            1
     number of electrons       =        11.00
     number of Kohn-Sham states=           10
     kinetic-energy cutoff     =      75.0000  Ry
     charge density cutoff     =     300.0000  Ry
     convergence threshold     =      1.0E-08
     mixing beta               =       0.7000
     number of iterations used =            8  plain     mixing
     Exchange-correlation      = SLA PW PBX PBC ( 1  4  3  4 0 0)

     celldm(1)=   7.720000  celldm(2)=   0.000000  celldm(3)=   0.000000
     celldm(4)=   0.000000  celldm(5)=   0.000000  celldm(6)=   0.000000

     crystal axes: (cart. coord. in units of alat)
               a(1) = (  -0.500000   0.000000   0.500000 )  
               a(2) = (   0.000000   0.500000   0.500000 )  
               a(3) = (  -0.500000   0.500000   0.000000 )  

     reciprocal axes: (cart. coord. in units 2 pi/alat)
               b(1) = ( -1.000000 -1.000000  1.000000 )  
               b(2) = (  1.000000  1.000000  1.000000 )  
               b(3) = ( -1.000000  1.000000 -1.000000 )  


     PseudoPot. # 1 for Ag read from file:
     /home/lorenzo/pseudos/Ag/Ag.pbe-n-kjpaw_psl.1.0.0.UPF
     MD5 check sum: 51099775af2a3182a6a1caffb86952a3
     Pseudo is Projector augmented-wave + core cor, Zval = 11.0
     Generated using "atomic" code by A. Dal Corso v.6.2.2
     Shape of augmentation charge: PSQ
     Using radial grid of 1237 points,  6 beta functions with: 
                l(1) =   0
                l(2) =   0
                l(3) =   1
                l(4) =   1
                l(5) =   2
                l(6) =   2
     Q(r) pseudized with 0 coefficients 


     atomic species   valence    mass     pseudopotential
        Ag            11.00   107.86820     Ag( 1.00)

     48 Sym. Ops., with inversion, found



   Cartesian axes

     site n.     atom                  positions (alat units)
         1           Ag  tau(   1) = (   0.0000000   0.0000000   0.0000000  )

     number of k points=    20  gaussian smearing, width (Ry)=  0.0100
                       cart. coord. in units 2pi/alat
        k(    1) = (   0.0000000   0.0000000   0.0000000), wk =   0.0058309
        k(    2) = (  -0.1428571   0.1428571  -0.1428571), wk =   0.0466472
        k(    3) = (  -0.2857143   0.2857143  -0.2857143), wk =   0.0466472
        k(    4) = (  -0.4285714   0.4285714  -0.4285714), wk =   0.0466472
        k(    5) = (   0.0000000   0.2857143   0.0000000), wk =   0.0349854
        k(    6) = (  -0.1428571   0.4285714  -0.1428571), wk =   0.1399417
        k(    7) = (  -0.2857143   0.5714286  -0.2857143), wk =   0.1399417
        k(    8) = (   0.5714286  -0.2857143   0.5714286), wk =   0.1399417
        k(    9) = (   0.4285714  -0.1428571   0.4285714), wk =   0.1399417
        k(   10) = (   0.2857143  -0.0000000   0.2857143), wk =   0.0699708
        k(   11) = (   0.0000000   0.5714286   0.0000000), wk =   0.0349854
        k(   12) = (  -0.1428571   0.7142857  -0.1428571), wk =   0.1399417
        k(   13) = (   0.7142857  -0.1428571   0.7142857), wk =   0.1399417
        k(   14) = (   0.5714286   0.0000000   0.5714286), wk =   0.0699708
        k(   15) = (   0.0000000   0.8571429   0.0000000), wk =   0.0349854
        k(   16) = (   0.8571429  -0.0000000   0.8571429), wk =   0.0699708
        k(   17) = (  -0.2857143   0.5714286   0.0000000), wk =   0.1399417
        k(   18) = (   0.5714286  -0.2857143   0.8571429), wk =   0.2798834
        k(   19) = (   0.7142857  -0.1428571   1.0000000), wk =   0.1399417
        k(   20) = (   0.5714286   0.0000000   0.8571429), wk =   0.1399417

     Dense  grid:    10081 G-vectors     FFT dimensions: (  32,  32,  32)

     Estimated max dynamical RAM per process >      10.10 MB

     Estimated total dynamical RAM >      50.49 MB

     Initial potential from superposition of free atoms

     starting charge   10.99960, renormalised to   11.00000
     Starting wfcs are    9 randomized atomic wfcs +    1 random wfcs
     Checking if some PAW data can be deallocated... 

     total cpu time spent up to now is        1.2 secs

     Self-consistent Calculation

     iteration #  1     ecut=    75.00 Ry     beta= 0.70
     Davidson diagonalization with overlap
     ethr =  1.00E-02,  avg # of iterations =  4.7

     Threshold (ethr) on eigenvalues was too large:
     Diagonalizing with lowered threshold

     Davidson diagonalization with overlap
     ethr =  2.66E-05,  avg # of iterations =  2.5

     total cpu time spent up to now is        1.9 secs

     total energy              =    -355.30870158 Ry
     Harris-Foulkes estimate   =    -355.31052016 Ry
     estimated scf accuracy    <       0.00322534 Ry

     iteration #  2     ecut=    75.00 Ry     beta= 0.70
     Davidson diagonalization with overlap
     ethr =  2.93E-05,  avg # of iterations =  2.0

     total cpu time spent up to now is        2.3 secs

     total energy              =    -355.30962607 Ry
     Harris-Foulkes estimate   =    -355.31070949 Ry
     estimated scf accuracy    <       0.00232485 Ry

     iteration #  3     ecut=    75.00 Ry     beta= 0.70
     Davidson diagonalization with overlap
     ethr =  2.11E-05,  avg # of iterations =  1.6

     total cpu time spent up to now is        2.6 secs

     total energy              =    -355.31007770 Ry
     Harris-Foulkes estimate   =    -355.31005650 Ry
     estimated scf accuracy    <       0.00001487 Ry

     iteration #  4     ecut=    75.00 Ry     beta= 0.70
     Davidson diagonalization with overlap
     ethr =  1.35E-07,  avg # of iterations =  2.9

     total cpu time spent up to now is        3.0 secs

     total energy              =    -355.31008358 Ry
     Harris-Foulkes estimate   =    -355.31008336 Ry
     estimated scf accuracy    <       0.00000032 Ry

     iteration #  5     ecut=    75.00 Ry     beta= 0.70
     Davidson diagonalization with overlap
     ethr =  2.92E-09,  avg # of iterations =  1.2

     total cpu time spent up to now is        3.3 secs

     End of self-consistent calculation

          k = 0.0000 0.0000 0.0000 (  1243 PWs)   bands (ev):

     5.0658   8.0820   8.0820   8.0820   9.1204   9.1204  29.8005  33.0877
    33.0877  33.0877

          k =-0.1429 0.1429-0.1429 (  1279 PWs)   bands (ev):

     5.6698   7.9812   8.2277   8.2277   9.0862   9.0862  28.2385  30.6143
    33.0132  33.0132

          k =-0.2857 0.2857-0.2857 (  1266 PWs)   bands (ev):

     6.5670   8.2524   8.2524   8.7270   9.3675   9.3675  22.6738  29.9404
    32.3677  32.3677

          k =-0.4286 0.4286-0.4286 (  1254 PWs)   bands (ev):

     6.5048   8.0869   8.0869   9.8414   9.8414  11.5255  17.6599  28.9855
    31.2886  31.2886

          k = 0.0000 0.2857 0.0000 (  1275 PWs)   bands (ev):

     5.8742   7.7705   8.3883   8.3883   8.8460   9.2589  29.8179  30.6371
    30.6371  30.8974

          k =-0.1429 0.4286-0.1429 (  1263 PWs)   bands (ev):

     6.8044   7.6599   8.3162   8.5789   9.4314   9.5090  24.9397  29.1104
    29.6440  31.5802

          k =-0.2857 0.5714-0.2857 (  1270 PWs)   bands (ev):

     6.8427   7.9487   8.4426   8.5925   9.9016  11.7331  19.5016  28.0790
    28.6322  30.0202

          k = 0.5714-0.2857 0.5714 (  1260 PWs)   bands (ev):

     6.8112   7.8701   8.3351   9.0718   9.8178  13.7184  16.8115  26.6129
    29.6926  29.6933

          k = 0.4286-0.1429 0.4286 (  1266 PWs)   bands (ev):

     6.9964   8.0204   8.4370   8.5198   9.2195  11.0714  21.2852  26.2471
    30.7805  32.4109

          k = 0.2857-0.0000 0.2857 (  1275 PWs)   bands (ev):

     6.5283   7.7559   8.3592   8.4828   8.8137   9.5889  26.7428  27.0142
    33.0183  33.3881

          k = 0.0000 0.5714 0.0000 (  1275 PWs)   bands (ev):

     6.9224   7.1212   9.1883   9.1883   9.5796   9.6148  26.7118  26.7118
    27.3326  29.8846

          k =-0.1429 0.7143-0.1429 (  1263 PWs)   bands (ev):

     6.8616   7.1054   8.9771   9.2311   9.9414  12.2186  22.2087  24.3768
    25.7397  29.9098

          k = 0.7143-0.1429 0.7143 (  1258 PWs)   bands (ev):

     6.9884   7.5188   8.5412   9.0377   9.8729  15.9855  17.5846  22.1620
    26.6182  29.7736

          k = 0.5714 0.0000 0.5714 (  1252 PWs)   bands (ev):

     7.3906   7.9190   8.0226   8.8428   9.3638  13.7883  20.6275  21.3039
    29.1423  30.0773

          k = 0.0000 0.8571 0.0000 (  1266 PWs)   bands (ev):

     6.5167   6.6429   9.8472   9.9940   9.9940  13.2777  21.1278  24.0868
    24.0868  29.9538

          k = 0.8571-0.0000 0.8571 (  1260 PWs)   bands (ev):

     6.6116   6.8125   9.5277   9.6769  10.0352  15.5228  19.6512  21.1783
    24.4269  29.9327

          k =-0.2857 0.5714 0.0000 (  1268 PWs)   bands (ev):

     7.3803   7.4228   8.0852   9.1813   9.2494  11.2518  23.7737  23.9732
    27.8639  33.1621

          k = 0.5714-0.2857 0.8571 (  1258 PWs)   bands (ev):

     7.2765   7.5957   8.1858   8.9226   9.7737  14.2687  18.7323  23.9863
    25.4936  32.5943

          k = 0.7143-0.1429 1.0000 (  1253 PWs)   bands (ev):

     6.9309   7.0336   8.7778   9.5268   9.9903  14.9162  21.3036  21.8251
    22.3669  32.6433

          k = 0.5714 0.0000 0.8571 (  1263 PWs)   bands (ev):

     7.1754   7.5427   8.1483   9.1531   9.9840  17.6801  18.3160  20.2627
    23.2878  33.2734

     the Fermi energy is    13.2575 ev

!    total energy              =    -355.31008359 Ry
     Harris-Foulkes estimate   =    -355.31008360 Ry
     estimated scf accuracy    <          6.0E-09 Ry

     total all-electron energy =    -10632.276137 Ry

     The total energy is the sum of the following terms:

     one-electron contribution =       1.55443076 Ry
     hartree contribution      =      14.66775859 Ry
     xc contribution           =     -22.35399633 Ry
     ewald contribution        =     -71.86118018 Ry
     one-center paw contrib.   =    -277.31699990 Ry
     smearing contrib. (-TS)   =      -0.00009653 Ry

     convergence has been achieved in   5 iterations

     Forces acting on atoms (cartesian axes, Ry/au):

     atom    1 type  1   force =     0.00000000    0.00000000    0.00000000

     Total force =     0.000000     Total SCF correction =     0.000000


     Computing stress (Cartesian axis) and pressure

          total   stress  (Ry/bohr**3)                   (kbar)     P=   48.06
   0.00032673  -0.00000000  -0.00000000         48.06     -0.00     -0.00
  -0.00000000   0.00032673   0.00000000         -0.00     48.06      0.00
  -0.00000000   0.00000000   0.00032673         -0.00      0.00     48.06


     Writing output data file Ag.save/

     init_run     :      0.37s CPU      0.40s WALL (       1 calls)
     electrons    :      1.85s CPU      2.05s WALL (       1 calls)
     forces       :      0.04s CPU      0.04s WALL (       1 calls)
     stress       :      0.15s CPU      0.15s WALL (       1 calls)

     Called by init_run:
     wfcinit      :      0.07s CPU      0.07s WALL (       1 calls)
     potinit      :      0.10s CPU      0.11s WALL (       1 calls)
     hinit0       :      0.18s CPU      0.18s WALL (       1 calls)

     Called by electrons:
     c_bands      :      1.07s CPU      1.17s WALL (       6 calls)
     sum_band     :      0.24s CPU      0.26s WALL (       6 calls)
     v_of_rho     :      0.04s CPU      0.04s WALL (       6 calls)
     newd         :      0.06s CPU      0.07s WALL (       6 calls)
     PAW_pot      :      0.54s CPU      0.62s WALL (       6 calls)
     mix_rho      :      0.00s CPU      0.00s WALL (       6 calls)

     Called by c_bands:
     init_us_2    :      0.04s CPU      0.05s WALL (     300 calls)
     cegterg      :      1.02s CPU      1.11s WALL (     120 calls)

     Called by sum_band:
     sum_band:bec :      0.00s CPU      0.00s WALL (     120 calls)
     addusdens    :      0.05s CPU      0.06s WALL (       6 calls)

     Called by *egterg:
     h_psi        :      0.83s CPU      0.91s WALL (     440 calls)
     s_psi        :      0.03s CPU      0.03s WALL (     440 calls)
     g_psi        :      0.00s CPU      0.00s WALL (     300 calls)
     cdiaghg      :      0.08s CPU      0.09s WALL (     400 calls)

     Called by h_psi:
     h_psi:pot    :      0.83s CPU      0.91s WALL (     440 calls)
     h_psi:calbec :      0.04s CPU      0.05s WALL (     440 calls)
     vloc_psi     :      0.75s CPU      0.83s WALL (     440 calls)
     add_vuspsi   :      0.03s CPU      0.03s WALL (     440 calls)

     General routines
     calbec       :      0.07s CPU      0.07s WALL (     660 calls)
     fft          :      0.02s CPU      0.02s WALL (      93 calls)
     ffts         :      0.00s CPU      0.00s WALL (       6 calls)
     fftw         :      0.82s CPU      0.91s WALL (    7480 calls)

     Parallel routines
     fft_scatt_xy :      0.09s CPU      0.09s WALL (    7579 calls)
     fft_scatt_yz :      0.24s CPU      0.26s WALL (    7579 calls)

     PWSCF        :     3.28s CPU         3.55s WALL


   This run was terminated on:   0:35: 0  27Mar2024            

=------------------------------------------------------------------------------=
   JOB DONE.
=------------------------------------------------------------------------------=
