
     Program PWSCF v.6.3MaX starts on 27Mar2024 at  0:42:45 

     This program is part of the open-source Quantum ESPRESSO suite
     for quantum simulation of materials; please cite
         "P. Giannozzi et al., J. Phys.:Condens. Matter 21 395502 (2009);
         "P. Giannozzi et al., J. Phys.:Condens. Matter 29 465901 (2017);
          URL http://www.quantum-espresso.org", 
     in publications or presentations arising from this work. More details at
     http://www.quantum-espresso.org/quote

     Parallel version (MPI), running on     5 processors

     MPI processes distributed on     1 nodes
     R & G space division:  proc/nbgrp/npool/nimage =       5
     Waiting for input...
     Reading input from standard input

     Current dimensions of program PWSCF are:
     Max number of different atomic species (ntypx) = 10
     Max number of k-points (npk) =  40000
     Max angular momentum in pseudopotentials (lmaxx) =  3
               file Ag.pbe-n-kjpaw_psl.1.0.0.UPF: wavefunction(s)  5S 5P renormalized

     Subspace diagonalization in iterative solution of the eigenvalue problem:
     a serial algorithm will be used


     Parallelization info
     --------------------
     sticks:   dense  smooth     PW     G-vecs:    dense   smooth      PW
     Min         149     149     43                 2664     2664     445
     Max         149     149     45                 2665     2665     446
     Sum         745     745    223                13323    13323    2229



     bravais-lattice index     =            2
     lattice parameter (alat)  =       7.7200  a.u.
     unit-cell volume          =     115.0249 (a.u.)^3
     number of atoms/cell      =            1
     number of atomic types    =            1
     number of electrons       =        11.00
     number of Kohn-Sham states=           10
     kinetic-energy cutoff     =      90.0000  Ry
     charge density cutoff     =     360.0000  Ry
     convergence threshold     =      1.0E-08
     mixing beta               =       0.7000
     number of iterations used =            8  plain     mixing
     Exchange-correlation      = SLA PW PBX PBC ( 1  4  3  4 0 0)

     celldm(1)=   7.720000  celldm(2)=   0.000000  celldm(3)=   0.000000
     celldm(4)=   0.000000  celldm(5)=   0.000000  celldm(6)=   0.000000

     crystal axes: (cart. coord. in units of alat)
               a(1) = (  -0.500000   0.000000   0.500000 )  
               a(2) = (   0.000000   0.500000   0.500000 )  
               a(3) = (  -0.500000   0.500000   0.000000 )  

     reciprocal axes: (cart. coord. in units 2 pi/alat)
               b(1) = ( -1.000000 -1.000000  1.000000 )  
               b(2) = (  1.000000  1.000000  1.000000 )  
               b(3) = ( -1.000000  1.000000 -1.000000 )  


     PseudoPot. # 1 for Ag read from file:
     /home/lorenzo/pseudos/Ag/Ag.pbe-n-kjpaw_psl.1.0.0.UPF
     MD5 check sum: 51099775af2a3182a6a1caffb86952a3
     Pseudo is Projector augmented-wave + core cor, Zval = 11.0
     Generated using "atomic" code by A. Dal Corso v.6.2.2
     Shape of augmentation charge: PSQ
     Using radial grid of 1237 points,  6 beta functions with: 
                l(1) =   0
                l(2) =   0
                l(3) =   1
                l(4) =   1
                l(5) =   2
                l(6) =   2
     Q(r) pseudized with 0 coefficients 


     atomic species   valence    mass     pseudopotential
        Ag            11.00   107.86820     Ag( 1.00)

     48 Sym. Ops., with inversion, found



   Cartesian axes

     site n.     atom                  positions (alat units)
         1           Ag  tau(   1) = (   0.0000000   0.0000000   0.0000000  )

     number of k points=    56  gaussian smearing, width (Ry)=  0.0100
                       cart. coord. in units 2pi/alat
        k(    1) = (   0.0000000   0.0000000   0.0000000), wk =   0.0015026
        k(    2) = (  -0.0909091   0.0909091  -0.0909091), wk =   0.0120210
        k(    3) = (  -0.1818182   0.1818182  -0.1818182), wk =   0.0120210
        k(    4) = (  -0.2727273   0.2727273  -0.2727273), wk =   0.0120210
        k(    5) = (  -0.3636364   0.3636364  -0.3636364), wk =   0.0120210
        k(    6) = (  -0.4545455   0.4545455  -0.4545455), wk =   0.0120210
        k(    7) = (   0.0000000   0.1818182   0.0000000), wk =   0.0090158
        k(    8) = (  -0.0909091   0.2727273  -0.0909091), wk =   0.0360631
        k(    9) = (  -0.1818182   0.3636364  -0.1818182), wk =   0.0360631
        k(   10) = (  -0.2727273   0.4545455  -0.2727273), wk =   0.0360631
        k(   11) = (  -0.3636364   0.5454545  -0.3636364), wk =   0.0360631
        k(   12) = (   0.5454545  -0.3636364   0.5454545), wk =   0.0360631
        k(   13) = (   0.4545455  -0.2727273   0.4545455), wk =   0.0360631
        k(   14) = (   0.3636364  -0.1818182   0.3636364), wk =   0.0360631
        k(   15) = (   0.2727273  -0.0909091   0.2727273), wk =   0.0360631
        k(   16) = (   0.1818182  -0.0000000   0.1818182), wk =   0.0180316
        k(   17) = (   0.0000000   0.3636364   0.0000000), wk =   0.0090158
        k(   18) = (  -0.0909091   0.4545455  -0.0909091), wk =   0.0360631
        k(   19) = (  -0.1818182   0.5454545  -0.1818182), wk =   0.0360631
        k(   20) = (  -0.2727273   0.6363636  -0.2727273), wk =   0.0360631
        k(   21) = (   0.6363636  -0.2727273   0.6363636), wk =   0.0360631
        k(   22) = (   0.5454545  -0.1818182   0.5454545), wk =   0.0360631
        k(   23) = (   0.4545455  -0.0909091   0.4545455), wk =   0.0360631
        k(   24) = (   0.3636364   0.0000000   0.3636364), wk =   0.0180316
        k(   25) = (   0.0000000   0.5454545   0.0000000), wk =   0.0090158
        k(   26) = (  -0.0909091   0.6363636  -0.0909091), wk =   0.0360631
        k(   27) = (  -0.1818182   0.7272727  -0.1818182), wk =   0.0360631
        k(   28) = (   0.7272727  -0.1818182   0.7272727), wk =   0.0360631
        k(   29) = (   0.6363636  -0.0909091   0.6363636), wk =   0.0360631
        k(   30) = (   0.5454545   0.0000000   0.5454545), wk =   0.0180316
        k(   31) = (   0.0000000   0.7272727   0.0000000), wk =   0.0090158
        k(   32) = (  -0.0909091   0.8181818  -0.0909091), wk =   0.0360631
        k(   33) = (   0.8181818  -0.0909091   0.8181818), wk =   0.0360631
        k(   34) = (   0.7272727   0.0000000   0.7272727), wk =   0.0180316
        k(   35) = (   0.0000000   0.9090909   0.0000000), wk =   0.0090158
        k(   36) = (   0.9090909  -0.0000000   0.9090909), wk =   0.0180316
        k(   37) = (  -0.1818182   0.3636364   0.0000000), wk =   0.0360631
        k(   38) = (  -0.2727273   0.4545455  -0.0909091), wk =   0.0721262
        k(   39) = (  -0.3636364   0.5454545  -0.1818182), wk =   0.0721262
        k(   40) = (   0.5454545  -0.3636364   0.7272727), wk =   0.0721262
        k(   41) = (  -0.1818182   0.5454545   0.0000000), wk =   0.0360631
        k(   42) = (  -0.2727273   0.6363636  -0.0909091), wk =   0.0721262
        k(   43) = (   0.6363636  -0.2727273   0.8181818), wk =   0.0721262
        k(   44) = (   0.5454545  -0.1818182   0.7272727), wk =   0.0721262
        k(   45) = (   0.4545455  -0.0909091   0.6363636), wk =   0.0721262
        k(   46) = (   0.3636364   0.0000000   0.5454545), wk =   0.0360631
        k(   47) = (  -0.1818182   0.7272727   0.0000000), wk =   0.0360631
        k(   48) = (   0.7272727  -0.1818182   0.9090909), wk =   0.0721262
        k(   49) = (   0.6363636  -0.0909091   0.8181818), wk =   0.0721262
        k(   50) = (   0.5454545   0.0000000   0.7272727), wk =   0.0360631
        k(   51) = (   0.8181818  -0.0909091   1.0000000), wk =   0.0360631
        k(   52) = (   0.7272727   0.0000000   0.9090909), wk =   0.0360631
        k(   53) = (   0.6363636  -0.2727273   1.0000000), wk =   0.0360631
        k(   54) = (   0.5454545  -0.1818182   0.9090909), wk =   0.0721262
        k(   55) = (   0.6363636  -0.0909091   1.0000000), wk =   0.0360631
        k(   56) = (   0.5454545   0.0000000   0.9090909), wk =   0.0360631

     Dense  grid:    13323 G-vectors     FFT dimensions: (  36,  36,  36)

     Estimated max dynamical RAM per process >      14.83 MB

     Estimated total dynamical RAM >      74.17 MB

     Initial potential from superposition of free atoms

     starting charge   10.99960, renormalised to   11.00000
     Starting wfcs are    9 randomized atomic wfcs +    1 random wfcs
     Checking if some PAW data can be deallocated... 

     total cpu time spent up to now is        1.5 secs

     Self-consistent Calculation

     iteration #  1     ecut=    90.00 Ry     beta= 0.70
     Davidson diagonalization with overlap
     ethr =  1.00E-02,  avg # of iterations =  4.6

     Threshold (ethr) on eigenvalues was too large:
     Diagonalizing with lowered threshold

     Davidson diagonalization with overlap
     ethr =  2.89E-05,  avg # of iterations =  2.5

     total cpu time spent up to now is        3.9 secs

     total energy              =    -355.30548409 Ry
     Harris-Foulkes estimate   =    -355.30750199 Ry
     estimated scf accuracy    <       0.00350244 Ry

     iteration #  2     ecut=    90.00 Ry     beta= 0.70
     Davidson diagonalization with overlap
     ethr =  3.18E-05,  avg # of iterations =  2.0

     total cpu time spent up to now is        5.0 secs

     total energy              =    -355.30647862 Ry
     Harris-Foulkes estimate   =    -355.30769425 Ry
     estimated scf accuracy    <       0.00260448 Ry

     iteration #  3     ecut=    90.00 Ry     beta= 0.70
     Davidson diagonalization with overlap
     ethr =  2.37E-05,  avg # of iterations =  1.6

     total cpu time spent up to now is        5.9 secs

     total energy              =    -355.30698359 Ry
     Harris-Foulkes estimate   =    -355.30696204 Ry
     estimated scf accuracy    <       0.00001533 Ry

     iteration #  4     ecut=    90.00 Ry     beta= 0.70
     Davidson diagonalization with overlap
     ethr =  1.39E-07,  avg # of iterations =  2.8

     total cpu time spent up to now is        7.0 secs

     total energy              =    -355.30699001 Ry
     Harris-Foulkes estimate   =    -355.30698978 Ry
     estimated scf accuracy    <       0.00000035 Ry

     iteration #  5     ecut=    90.00 Ry     beta= 0.70
     Davidson diagonalization with overlap
     ethr =  3.19E-09,  avg # of iterations =  1.6

     total cpu time spent up to now is        7.9 secs

     End of self-consistent calculation

          k = 0.0000 0.0000 0.0000 (  1639 PWs)   bands (ev):

     5.0639   8.0723   8.0723   8.0723   9.1110   9.1110  29.7989  33.0866
    33.0866  33.0866

          k =-0.0909 0.0909-0.0909 (  1669 PWs)   bands (ev):

     5.3189   8.0173   8.1413   8.1413   9.0872   9.0872  29.5711  31.1787
    33.0672  33.0673

          k =-0.1818 0.1818-0.1818 (  1666 PWs)   bands (ev):

     5.9852   7.9805   8.2649   8.2649   9.0978   9.0978  26.7726  30.5177
    32.9212  32.9212

          k =-0.2727 0.2727-0.2727 (  1643 PWs)   bands (ev):

     6.5344   8.2564   8.2564   8.5474   9.3119   9.3119  23.1774  30.0383
    32.4606  32.4606

          k =-0.3636 0.3636-0.3636 (  1655 PWs)   bands (ev):

     6.5596   8.1452   8.1452   9.6447   9.6447  10.1329  19.7545  29.3405
    31.7270  31.7270

          k =-0.4545 0.4545-0.4545 (  1673 PWs)   bands (ev):

     6.4796   8.0611   8.0611   9.8772   9.8772  12.0154  17.0045  28.8985
    31.1750  31.1750

          k = 0.0000 0.1818 0.0000 (  1671 PWs)   bands (ev):

     5.4045   7.9392   8.1982   8.1982   8.9818   9.1690  29.8044  31.8533
    31.9505  31.9505

          k =-0.0909 0.2727-0.0909 (  1659 PWs)   bands (ev):

     5.9467   7.8107   8.3387   8.3442   8.9149   9.2346  28.1230  30.2682
    31.0344  33.0044

          k =-0.1818 0.3636-0.1818 (  1656 PWs)   bands (ev):

     6.6051   7.9231   8.2993   8.4004   9.2702   9.4195  24.5389  29.9037
    30.3164  33.1673

          k =-0.2727 0.4545-0.2727 (  1652 PWs)   bands (ev):

     6.7295   8.1151   8.3174   8.6466   9.7089  10.3089  21.0079  29.2703
    29.8535  31.5886

          k =-0.3636 0.5455-0.3636 (  1661 PWs)   bands (ev):

     6.6399   7.9892   8.2111   9.2435   9.9044  12.0632  17.8947  28.6401
    29.8198  30.3607

          k = 0.5455-0.3636 0.5455 (  1662 PWs)   bands (ev):

     6.6119   7.9652   8.1651   9.4746   9.8664  13.0642  16.5872  28.1828
    29.8664  30.4126

          k = 0.4545-0.2727 0.4545 (  1657 PWs)   bands (ev):

     6.6842   8.0431   8.2095   9.2719   9.5901  11.5026  18.8680  28.0174
    30.1734  31.7155

          k = 0.3636-0.1818 0.3636 (  1652 PWs)   bands (ev):

     6.7636   8.1424   8.3245   8.5701   9.1948  10.1332  22.1715  28.1957
    31.1362  33.6567

          k = 0.2727-0.0909 0.2727 (  1654 PWs)   bands (ev):

     6.4318   7.8574   8.3443   8.3864   8.9113   9.4713  25.7539  28.6193
    32.2895  34.3785

          k = 0.1818-0.0000 0.1818 (  1667 PWs)   bands (ev):

     5.7218   7.9046   8.2416   8.2734   8.9560   9.1904  29.0174  29.3790
    32.2101  34.2716

          k = 0.0000 0.3636 0.0000 (  1656 PWs)   bands (ev):

     6.2969   7.5954   8.5593   8.5593   8.7635   9.3270  29.5409  29.5409
    29.8283  30.2293

          k =-0.0909 0.4545-0.0909 (  1655 PWs)   bands (ev):

     6.8293   7.4458   8.4597   8.7241   9.2984   9.4844  26.1798  28.4601
    29.4825  30.7877

          k =-0.1818 0.5455-0.1818 (  1655 PWs)   bands (ev):

     6.9843   7.6787   8.2881   8.6981   9.7551  10.5777  22.5923  27.8541
    28.1948  30.1978

          k =-0.2727 0.6364-0.2727 (  1659 PWs)   bands (ev):

     6.9171   7.8069   8.4671   8.5882   9.9378  12.4636  19.2630  26.7462
    27.8371  29.7795

          k = 0.6364-0.2727 0.6364 (  1665 PWs)   bands (ev):

     6.9261   7.7686   8.4998   8.7377   9.8786  14.4321  16.7779  25.6009
    28.5135  29.6479

          k = 0.5455-0.1818 0.5455 (  1655 PWs)   bands (ev):

     7.0356   7.8217   8.4855   8.6974   9.5739  13.2844  18.3663  24.9261
    29.8857  29.9383

          k = 0.4545-0.0909 0.4545 (  1657 PWs)   bands (ev):

     7.2124   7.8949   8.3175   8.5617   9.1331  11.5026  21.5596  24.7769
    30.7441  31.8261

          k = 0.3636 0.0000 0.3636 (  1656 PWs)   bands (ev):

     7.1100   7.6696   8.2846   8.6925   8.7220  10.2509  24.9156  25.2496
    32.0364  34.0800

          k = 0.0000 0.5455 0.0000 (  1656 PWs)   bands (ev):

     6.9167   7.1711   9.0941   9.0941   9.3814   9.5390  27.0375  27.0375
    27.8707  29.8730

          k =-0.0909 0.6364-0.0909 (  1663 PWs)   bands (ev):

     6.9236   7.0712   8.9986   9.2028   9.7623  10.7847  24.3206  25.9705
    26.1697  30.0026

          k =-0.1818 0.7273-0.1818 (  1655 PWs)   bands (ev):

     6.8797   7.2430   8.7858   9.1098   9.9662  12.7909  21.0205  24.2437
    25.9882  29.8498

          k = 0.7273-0.1818 0.7273 (  1660 PWs)   bands (ev):

     6.9594   7.4956   8.5573   8.9880   9.9165  15.2044  18.0520  22.8495
    26.5723  29.7542

          k = 0.6364-0.0909 0.6364 (  1656 PWs)   bands (ev):

     7.1746   7.7473   8.2770   8.8880   9.6266  15.3107  18.2073  21.8912
    27.8718  29.8434

          k = 0.5455 0.0000 0.5455 (  1650 PWs)   bands (ev):

     7.4428   7.8351   8.0676   8.7885   9.2714  13.2253  21.1757  21.6261
    29.7103  30.1972

          k = 0.0000 0.7273 0.0000 (  1664 PWs)   bands (ev):

     6.7064   6.8038   9.6687   9.6687   9.7392  11.4671  23.7967  25.0152
    25.0152  29.9228

          k =-0.0909 0.8182-0.0909 (  1655 PWs)   bands (ev):

     6.6405   6.7657   9.6015   9.6220   9.9870  13.1635  21.8991  23.0098
    24.5813  29.9552

          k = 0.8182-0.0909 0.8182 (  1664 PWs)   bands (ev):

     6.7157   6.9893   9.1909   9.4835   9.9843  15.3864  19.9834  20.7805
    24.9774  29.8797

          k = 0.7273 0.0000 0.7273 (  1666 PWs)   bands (ev):

     6.9259   7.3970   8.6450   9.2585   9.7855  17.5644  17.5716  20.0990
    26.1429  29.8247

          k = 0.0000 0.9091 0.0000 (  1664 PWs)   bands (ev):

     6.4594   6.5946   9.8609  10.0623  10.0623  13.9142  20.2888  23.8650
    23.8650  29.9552

          k = 0.9091-0.0000 0.9091 (  1664 PWs)   bands (ev):

     6.5079   6.6571   9.7877   9.8408  10.0800  14.9313  19.6203  22.4574
    24.0062  29.9722

          k =-0.1818 0.3636 0.0000 (  1655 PWs)   bands (ev):

     6.5433   7.6423   8.3508   8.5609   8.9162   9.4953  27.1868  27.4004
    31.9566  32.0595

          k =-0.2727 0.4545-0.0909 (  1659 PWs)   bands (ev):

     7.0310   7.7686   8.1593   8.6405   9.2057  10.2408  23.6697  26.7500
    30.3407  32.5962

          k =-0.3636 0.5455-0.1818 (  1656 PWs)   bands (ev):

     6.9653   7.9462   8.3345   8.6017   9.6161  11.6457  20.2260  26.5539
    28.8326  31.7946

          k = 0.5455-0.3636 0.7273 (  1657 PWs)   bands (ev):

     6.8733   7.8160   8.4064   8.8737   9.8336  13.5582  17.3074  26.8201
    27.6470  31.1339

          k =-0.1818 0.5455 0.0000 (  1666 PWs)   bands (ev):

     7.1371   7.2731   8.4041   9.0879   9.3713  10.3181  25.2774  25.5068
    28.1485  31.6166

          k =-0.2727 0.6364-0.0909 (  1658 PWs)   bands (ev):

     7.1070   7.4763   8.2655   9.0771   9.6722  11.8911  21.9215  25.0506
    26.3834  31.7295

          k = 0.6364-0.2727 0.8182 (  1661 PWs)   bands (ev):

     7.0932   7.6088   8.2935   8.9110   9.8659  14.0071  18.7428  24.8666
    25.3116  31.5146

          k = 0.5455-0.1818 0.7273 (  1658 PWs)   bands (ev):

     7.2005   7.6016   8.3716   8.7830   9.7998  15.4621  17.1057  23.8098
    26.0730  31.6620

          k = 0.4545-0.0909 0.6364 (  1654 PWs)   bands (ev):

     7.3740   7.6824   8.0931   8.8672   9.5168  13.3913  19.8782  23.2331
    27.2914  32.3883

          k = 0.3636 0.0000 0.5455 (  1661 PWs)   bands (ev):

     7.5409   7.5938   7.9200   9.0047   9.1063  11.5848  23.1505  23.2710
    28.7805  33.6540

          k =-0.1818 0.7273 0.0000 (  1668 PWs)   bands (ev):

     6.9008   6.9457   8.9559   9.6639   9.6872  12.2646  23.5492  23.8113
    24.1678  31.3148

          k = 0.7273-0.1818 0.9091 (  1663 PWs)   bands (ev):

     6.9079   7.1232   8.7317   9.4285   9.9357  14.3623  20.6433  22.4024
    23.8884  31.4860

          k = 0.6364-0.0909 0.8182 (  1656 PWs)   bands (ev):

     7.0477   7.4351   8.4107   9.1764   9.8995  16.8585  17.8926  21.1617
    24.6066  31.5863

          k = 0.5455 0.0000 0.7273 (  1659 PWs)   bands (ev):

     7.3067   7.7467   7.9853   9.0311   9.6701  15.4489  19.4532  20.7046
    25.8230  31.9602

          k = 0.8182-0.0909 1.0000 (  1661 PWs)   bands (ev):

     6.6397   6.7575   9.4376   9.7357  10.0618  14.7218  20.3825  22.7950
    22.8923  31.1833

          k = 0.7273 0.0000 0.9091 (  1658 PWs)   bands (ev):

     6.7941   7.0118   8.9960   9.4762  10.0569  16.3620  19.6601  20.4261
    23.4399  31.4481

          k = 0.6364-0.2727 1.0000 (  1657 PWs)   bands (ev):

     7.3553   7.3585   8.0839   9.3013   9.6558  13.7196  21.6437  21.8796
    24.7273  34.1180

          k = 0.5455-0.1818 0.9091 (  1662 PWs)   bands (ev):

     7.3306   7.5407   7.9989   9.0985   9.8867  15.9739  18.6964  22.1791
    23.4153  33.8760

          k = 0.6364-0.0909 1.0000 (  1653 PWs)   bands (ev):

     7.0499   7.2404   8.4429   9.3113  10.0602  16.3884  20.5894  20.6804
    21.7069  33.8437

          k = 0.5455 0.0000 0.9091 (  1656 PWs)   bands (ev):

     7.1825   7.5944   8.0170   9.1356  10.0577  18.2479  18.4192  20.2346
    22.1249  34.4850

     the Fermi energy is    13.1049 ev

!    total energy              =    -355.30699003 Ry
     Harris-Foulkes estimate   =    -355.30699003 Ry
     estimated scf accuracy    <          7.5E-09 Ry

     total all-electron energy =    -10632.273044 Ry

     The total energy is the sum of the following terms:

     one-electron contribution =       1.56267826 Ry
     hartree contribution      =      14.66100446 Ry
     xc contribution           =     -22.35255422 Ry
     ewald contribution        =     -71.86118018 Ry
     one-center paw contrib.   =    -277.31671681 Ry
     smearing contrib. (-TS)   =      -0.00022154 Ry

     convergence has been achieved in   5 iterations

     Forces acting on atoms (cartesian axes, Ry/au):

     atom    1 type  1   force =     0.00000000    0.00000000    0.00000000

     Total force =     0.000000     Total SCF correction =     0.000000


     Computing stress (Cartesian axis) and pressure

          total   stress  (Ry/bohr**3)                   (kbar)     P=   47.53
   0.00032313  -0.00000000  -0.00000000         47.53     -0.00     -0.00
  -0.00000000   0.00032313   0.00000000         -0.00     47.53      0.00
  -0.00000000   0.00000000   0.00032313         -0.00      0.00     47.53


     Writing output data file Ag.save/

     init_run     :      0.61s CPU      0.65s WALL (       1 calls)
     electrons    :      6.07s CPU      6.42s WALL (       1 calls)
     forces       :      0.09s CPU      0.09s WALL (       1 calls)
     stress       :      0.32s CPU      0.32s WALL (       1 calls)

     Called by init_run:
     wfcinit      :      0.27s CPU      0.29s WALL (       1 calls)
     potinit      :      0.11s CPU      0.12s WALL (       1 calls)
     hinit0       :      0.20s CPU      0.20s WALL (       1 calls)

     Called by electrons:
     c_bands      :      4.58s CPU      4.85s WALL (       6 calls)
     sum_band     :      0.90s CPU      0.96s WALL (       6 calls)
     v_of_rho     :      0.06s CPU      0.06s WALL (       6 calls)
     newd         :      0.08s CPU      0.08s WALL (       6 calls)
     PAW_pot      :      0.56s CPU      0.59s WALL (       6 calls)
     mix_rho      :      0.00s CPU      0.00s WALL (       6 calls)

     Called by c_bands:
     init_us_2    :      0.15s CPU      0.16s WALL (     840 calls)
     cegterg      :      4.37s CPU      4.64s WALL (     336 calls)

     Called by sum_band:
     sum_band:bec :      0.00s CPU      0.00s WALL (     336 calls)
     addusdens    :      0.07s CPU      0.08s WALL (       6 calls)

     Called by *egterg:
     h_psi        :      3.77s CPU      4.01s WALL (    1237 calls)
     s_psi        :      0.11s CPU      0.11s WALL (    1237 calls)
     g_psi        :      0.01s CPU      0.01s WALL (     845 calls)
     cdiaghg      :      0.23s CPU      0.24s WALL (    1125 calls)

     Called by h_psi:
     h_psi:pot    :      3.76s CPU      3.99s WALL (    1237 calls)
     h_psi:calbec :      0.16s CPU      0.17s WALL (    1237 calls)
     vloc_psi     :      3.48s CPU      3.70s WALL (    1237 calls)
     add_vuspsi   :      0.11s CPU      0.11s WALL (    1237 calls)

     General routines
     calbec       :      0.24s CPU      0.26s WALL (    1853 calls)
     fft          :      0.04s CPU      0.04s WALL (      93 calls)
     ffts         :      0.00s CPU      0.00s WALL (       6 calls)
     fftw         :      3.89s CPU      4.14s WALL (   20934 calls)

     Parallel routines
     fft_scatt_xy :      0.33s CPU      0.35s WALL (   21033 calls)
     fft_scatt_yz :      0.92s CPU      0.98s WALL (   21033 calls)

     PWSCF        :     7.98s CPU         8.47s WALL


   This run was terminated on:   0:42:54  27Mar2024            

=------------------------------------------------------------------------------=
   JOB DONE.
=------------------------------------------------------------------------------=
