
     Program PWSCF v.6.3MaX starts on 27Mar2024 at  0:32: 6 

     This program is part of the open-source Quantum ESPRESSO suite
     for quantum simulation of materials; please cite
         "P. Giannozzi et al., J. Phys.:Condens. Matter 21 395502 (2009);
         "P. Giannozzi et al., J. Phys.:Condens. Matter 29 465901 (2017);
          URL http://www.quantum-espresso.org", 
     in publications or presentations arising from this work. More details at
     http://www.quantum-espresso.org/quote

     Parallel version (MPI), running on     5 processors

     MPI processes distributed on     1 nodes
     R & G space division:  proc/nbgrp/npool/nimage =       5
     Waiting for input...
     Reading input from standard input

     Current dimensions of program PWSCF are:
     Max number of different atomic species (ntypx) = 10
     Max number of k-points (npk) =  40000
     Max angular momentum in pseudopotentials (lmaxx) =  3

     Subspace diagonalization in iterative solution of the eigenvalue problem:
     a serial algorithm will be used


     Parallelization info
     --------------------
     sticks:   dense  smooth     PW     G-vecs:    dense   smooth      PW
     Min         116     116     37                 1836     1836     327
     Max         117     117     38                 1838     1838     329
     Sum         583     583    187                 9185     9185    1639



     bravais-lattice index     =            2
     lattice parameter (alat)  =       7.7200  a.u.
     unit-cell volume          =     115.0249 (a.u.)^3
     number of atoms/cell      =            1
     number of atomic types    =            1
     number of electrons       =        11.00
     number of Kohn-Sham states=           10
     kinetic-energy cutoff     =      70.0000  Ry
     charge density cutoff     =     280.0000  Ry
     convergence threshold     =      1.0E-08
     mixing beta               =       0.7000
     number of iterations used =            8  plain     mixing
     Exchange-correlation      = PBESOL ( 1  4 10  8 0 0)

     celldm(1)=   7.720000  celldm(2)=   0.000000  celldm(3)=   0.000000
     celldm(4)=   0.000000  celldm(5)=   0.000000  celldm(6)=   0.000000

     crystal axes: (cart. coord. in units of alat)
               a(1) = (  -0.500000   0.000000   0.500000 )  
               a(2) = (   0.000000   0.500000   0.500000 )  
               a(3) = (  -0.500000   0.500000   0.000000 )  

     reciprocal axes: (cart. coord. in units 2 pi/alat)
               b(1) = ( -1.000000 -1.000000  1.000000 )  
               b(2) = (  1.000000  1.000000  1.000000 )  
               b(3) = ( -1.000000  1.000000 -1.000000 )  


     PseudoPot. # 1 for Ag read from file:
     /home/lorenzo/pseudos/Ag/Ag.pbesol-n-rrkjus_psl.1.0.0.UPF
     MD5 check sum: 3b43e8aa747a56f565f44d11355b8b45
     Pseudo is Ultrasoft + core correction, Zval = 11.0
     Generated using "atomic" code by A. Dal Corso v.6.2.2
     Using radial grid of 1237 points,  6 beta functions with: 
                l(1) =   0
                l(2) =   0
                l(3) =   1
                l(4) =   1
                l(5) =   2
                l(6) =   2
     Q(r) pseudized with 0 coefficients 


     atomic species   valence    mass     pseudopotential
        Ag            11.00   107.86820     Ag( 1.00)

     48 Sym. Ops., with inversion, found



   Cartesian axes

     site n.     atom                  positions (alat units)
         1           Ag  tau(   1) = (   0.0000000   0.0000000   0.0000000  )

     number of k points=    16  gaussian smearing, width (Ry)=  0.0100
                       cart. coord. in units 2pi/alat
        k(    1) = (   0.0000000   0.0000000   0.0000000), wk =   0.0092593
        k(    2) = (  -0.1666667   0.1666667  -0.1666667), wk =   0.0740741
        k(    3) = (  -0.3333333   0.3333333  -0.3333333), wk =   0.0740741
        k(    4) = (   0.5000000  -0.5000000   0.5000000), wk =   0.0370370
        k(    5) = (   0.0000000   0.3333333   0.0000000), wk =   0.0555556
        k(    6) = (  -0.1666667   0.5000000  -0.1666667), wk =   0.2222222
        k(    7) = (   0.6666667  -0.3333333   0.6666667), wk =   0.2222222
        k(    8) = (   0.5000000  -0.1666667   0.5000000), wk =   0.2222222
        k(    9) = (   0.3333333   0.0000000   0.3333333), wk =   0.1111111
        k(   10) = (   0.0000000   0.6666667   0.0000000), wk =   0.0555556
        k(   11) = (   0.8333333  -0.1666667   0.8333333), wk =   0.2222222
        k(   12) = (   0.6666667  -0.0000000   0.6666667), wk =   0.1111111
        k(   13) = (   0.0000000  -1.0000000   0.0000000), wk =   0.0277778
        k(   14) = (   0.6666667  -0.3333333   1.0000000), wk =   0.2222222
        k(   15) = (   0.5000000  -0.1666667   0.8333333), wk =   0.2222222
        k(   16) = (  -0.3333333  -1.0000000   0.0000000), wk =   0.1111111

     Dense  grid:     9185 G-vectors     FFT dimensions: (  30,  30,  30)

     Estimated max dynamical RAM per process >       9.07 MB

     Estimated total dynamical RAM >      45.36 MB

     Initial potential from superposition of free atoms

     starting charge   10.99964, renormalised to   11.00000
     Starting wfcs are    9 randomized atomic wfcs +    1 random wfcs

     total cpu time spent up to now is        1.0 secs

     Self-consistent Calculation

     iteration #  1     ecut=    70.00 Ry     beta= 0.70
     Davidson diagonalization with overlap
     ethr =  1.00E-02,  avg # of iterations =  5.0

     Threshold (ethr) on eigenvalues was too large:
     Diagonalizing with lowered threshold

     Davidson diagonalization with overlap
     ethr =  4.17E-05,  avg # of iterations =  2.9

     total cpu time spent up to now is        1.5 secs

     total energy              =     -84.17520012 Ry
     Harris-Foulkes estimate   =     -84.17841914 Ry
     estimated scf accuracy    <       0.00497079 Ry

     iteration #  2     ecut=    70.00 Ry     beta= 0.70
     Davidson diagonalization with overlap
     ethr =  4.52E-05,  avg # of iterations =  2.0

     total cpu time spent up to now is        1.7 secs

     total energy              =     -84.17634494 Ry
     Harris-Foulkes estimate   =     -84.17820342 Ry
     estimated scf accuracy    <       0.00345676 Ry

     iteration #  3     ecut=    70.00 Ry     beta= 0.70
     Davidson diagonalization with overlap
     ethr =  3.14E-05,  avg # of iterations =  2.0

     total cpu time spent up to now is        1.9 secs

     total energy              =     -84.17711388 Ry
     Harris-Foulkes estimate   =     -84.17711681 Ry
     estimated scf accuracy    <       0.00002634 Ry

     iteration #  4     ecut=    70.00 Ry     beta= 0.70
     Davidson diagonalization with overlap
     ethr =  2.39E-07,  avg # of iterations =  2.4

     total cpu time spent up to now is        2.1 secs

     total energy              =     -84.17712218 Ry
     Harris-Foulkes estimate   =     -84.17712213 Ry
     estimated scf accuracy    <       0.00000038 Ry

     iteration #  5     ecut=    70.00 Ry     beta= 0.70
     Davidson diagonalization with overlap
     ethr =  3.48E-09,  avg # of iterations =  2.2

     total cpu time spent up to now is        2.3 secs

     total energy              =     -84.17712227 Ry
     Harris-Foulkes estimate   =     -84.17712229 Ry
     estimated scf accuracy    <       0.00000006 Ry

     iteration #  6     ecut=    70.00 Ry     beta= 0.70
     Davidson diagonalization with overlap
     ethr =  5.01E-10,  avg # of iterations =  2.0

     total cpu time spent up to now is        2.5 secs

     End of self-consistent calculation

          k = 0.0000 0.0000 0.0000 (  1139 PWs)   bands (ev):

     4.8076   7.9225   7.9225   7.9225   8.9732   8.9732  29.5447  32.8323
    32.8323  32.8323

          k =-0.1667 0.1667-0.1667 (  1149 PWs)   bands (ev):

     5.6069   7.8120   8.1011   8.1011   8.9467   8.9467  27.1204  30.3040
    32.7150  32.7150

          k =-0.3333 0.3333-0.3333 (  1149 PWs)   bands (ev):

     6.3861   8.0359   8.0359   9.3024   9.4000   9.4000  20.6282  29.3147
    31.7228  31.7228

          k = 0.5000-0.5000 0.5000 (  1158 PWs)   bands (ev):

     6.2836   7.9000   7.9000   9.7786   9.7786  12.1927  16.2577  28.5911
    30.8318  30.8318

          k = 0.0000 0.3333 0.0000 (  1154 PWs)   bands (ev):

     5.8772   7.5077   8.3379   8.3379   8.6357   9.1592  29.5848  29.7245
    29.7245  30.2481

          k =-0.1667 0.5000-0.1667 (  1137 PWs)   bands (ev):

     6.7667   7.5018   8.1068   8.5058   9.5242   9.8744  23.2528  28.0569
    28.7023  30.3217

          k = 0.6667-0.3333 0.6667 (  1133 PWs)   bands (ev):

     6.6907   7.6596   8.3175   8.5722   9.8064  13.2292  17.3653  26.3260
    28.1653  29.4224

          k = 0.5000-0.1667 0.5000 (  1134 PWs)   bands (ev):

     6.8421   7.7445   8.3012   8.5077   9.2981  12.1406  19.2093  25.1310
    29.9379  30.5690

          k = 0.3333 0.0000 0.3333 (  1141 PWs)   bands (ev):

     6.6631   7.5352   8.1653   8.4585   8.6061   9.7963  25.3637  25.7117
    32.2728  33.3848

          k = 0.0000 0.6667 0.0000 (  1118 PWs)   bands (ev):

     6.6282   6.7505   9.3472   9.3472   9.5456  10.4409  24.9437  25.3571
    25.3571  29.6897

          k = 0.8333-0.1667 0.8333 (  1139 PWs)   bands (ev):

     6.5763   6.8319   9.0049   9.2649   9.8743  13.9244  20.5025  21.7794
    24.8612  29.6558

          k = 0.6667-0.0000 0.6667 (  1141 PWs)   bands (ev):

     6.9423   7.5194   8.1447   8.9282   9.4977  15.7995  18.4662  20.1955
    26.9576  29.6101

          k = 0.0000-1.0000 0.0000 (  1138 PWs)   bands (ev):

     6.2515   6.4019   9.7466   9.9887   9.9887  14.2149  19.3804  23.4519
    23.4519  29.7491

          k = 0.6667-0.3333 1.0000 (  1138 PWs)   bands (ev):

     7.1779   7.2437   7.9033   9.1666   9.3358  12.4632  22.2710  22.2872
    25.6772  33.4895

          k = 0.5000-0.1667 0.8333 (  1144 PWs)   bands (ev):

     7.2393   7.2871   7.9456   8.8468   9.7403  16.3108  17.0490  22.8856
    23.5221  32.9933

          k =-0.3333-1.0000 0.0000 (  1142 PWs)   bands (ev):

     6.7733   6.9566   8.5259   9.2231   9.9895  16.6105  19.5484  20.6865
    21.4141  33.0729

     the Fermi energy is    12.4939 ev

!    total energy              =     -84.17712228 Ry
     Harris-Foulkes estimate   =     -84.17712228 Ry
     estimated scf accuracy    <          2.5E-10 Ry

     The total energy is the sum of the following terms:

     one-electron contribution =      -4.73483424 Ry
     hartree contribution      =      14.56047190 Ry
     xc contribution           =     -22.14098253 Ry
     ewald contribution        =     -71.86118018 Ry
     smearing contrib. (-TS)   =      -0.00059723 Ry

     convergence has been achieved in   6 iterations

     Forces acting on atoms (cartesian axes, Ry/au):

     atom    1 type  1   force =     0.00000000    0.00000000    0.00000000

     Total force =     0.000000     Total SCF correction =     0.000000


     Computing stress (Cartesian axis) and pressure

          total   stress  (Ry/bohr**3)                   (kbar)     P=  -12.44
  -0.00008454   0.00000000   0.00000000        -12.44      0.00      0.00
   0.00000000  -0.00008454   0.00000000          0.00    -12.44      0.00
   0.00000000   0.00000000  -0.00008454          0.00      0.00    -12.44


     Writing output data file Ag.save/

     init_run     :      0.27s CPU      0.28s WALL (       1 calls)
     electrons    :      1.37s CPU      1.43s WALL (       1 calls)
     forces       :      0.04s CPU      0.04s WALL (       1 calls)
     stress       :      0.15s CPU      0.15s WALL (       1 calls)

     Called by init_run:
     wfcinit      :      0.07s CPU      0.07s WALL (       1 calls)
     potinit      :      0.01s CPU      0.01s WALL (       1 calls)
     hinit0       :      0.18s CPU      0.18s WALL (       1 calls)

     Called by electrons:
     c_bands      :      1.04s CPU      1.08s WALL (       7 calls)
     sum_band     :      0.23s CPU      0.25s WALL (       7 calls)
     v_of_rho     :      0.03s CPU      0.04s WALL (       7 calls)
     newd         :      0.07s CPU      0.07s WALL (       7 calls)
     mix_rho      :      0.00s CPU      0.00s WALL (       7 calls)

     Called by c_bands:
     init_us_2    :      0.04s CPU      0.04s WALL (     272 calls)
     cegterg      :      0.99s CPU      1.03s WALL (     112 calls)

     Called by sum_band:
     sum_band:bec :      0.00s CPU      0.00s WALL (     112 calls)
     addusdens    :      0.06s CPU      0.06s WALL (       7 calls)

     Called by *egterg:
     h_psi        :      0.81s CPU      0.85s WALL (     425 calls)
     s_psi        :      0.03s CPU      0.03s WALL (     425 calls)
     g_psi        :      0.00s CPU      0.00s WALL (     297 calls)
     cdiaghg      :      0.08s CPU      0.09s WALL (     393 calls)

     Called by h_psi:
     h_psi:pot    :      0.81s CPU      0.84s WALL (     425 calls)
     h_psi:calbec :      0.04s CPU      0.04s WALL (     425 calls)
     vloc_psi     :      0.74s CPU      0.77s WALL (     425 calls)
     add_vuspsi   :      0.03s CPU      0.03s WALL (     425 calls)

     General routines
     calbec       :      0.08s CPU      0.08s WALL (     617 calls)
     fft          :      0.02s CPU      0.03s WALL (     104 calls)
     ffts         :      0.00s CPU      0.00s WALL (       7 calls)
     fftw         :      0.81s CPU      0.85s WALL (    6918 calls)

     Parallel routines
     fft_scatt_xy :      0.07s CPU      0.07s WALL (    7029 calls)
     fft_scatt_yz :      0.22s CPU      0.23s WALL (    7029 calls)

     PWSCF        :     2.61s CPU         2.75s WALL


   This run was terminated on:   0:32: 8  27Mar2024            

=------------------------------------------------------------------------------=
   JOB DONE.
=------------------------------------------------------------------------------=
