
     Program PWSCF v.6.3MaX starts on 27Mar2024 at  0: 5:45 

     This program is part of the open-source Quantum ESPRESSO suite
     for quantum simulation of materials; please cite
         "P. Giannozzi et al., J. Phys.:Condens. Matter 21 395502 (2009);
         "P. Giannozzi et al., J. Phys.:Condens. Matter 29 465901 (2017);
          URL http://www.quantum-espresso.org", 
     in publications or presentations arising from this work. More details at
     http://www.quantum-espresso.org/quote

     Parallel version (MPI), running on     5 processors

     MPI processes distributed on     1 nodes
     R & G space division:  proc/nbgrp/npool/nimage =       5
     Waiting for input...
     Reading input from standard input

     Current dimensions of program PWSCF are:
     Max number of different atomic species (ntypx) = 10
     Max number of k-points (npk) =  40000
     Max angular momentum in pseudopotentials (lmaxx) =  3
               file Ag.pbe-n-kjpaw_psl.1.0.0.UPF: wavefunction(s)  5S 5P renormalized

     Subspace diagonalization in iterative solution of the eigenvalue problem:
     a serial algorithm will be used


     Parallelization info
     --------------------
     sticks:   dense  smooth     PW     G-vecs:    dense   smooth      PW
     Min          17      17      7                  106      106      27
     Max          17      17      8                  107      107      28
     Sum          85      85     37                  531      531     137



     bravais-lattice index     =            2
     lattice parameter (alat)  =       7.7200  a.u.
     unit-cell volume          =     115.0249 (a.u.)^3
     number of atoms/cell      =            1
     number of atomic types    =            1
     number of electrons       =        11.00
     number of Kohn-Sham states=           10
     kinetic-energy cutoff     =      10.0000  Ry
     charge density cutoff     =      40.0000  Ry
     convergence threshold     =      1.0E-08
     mixing beta               =       0.7000
     number of iterations used =            8  plain     mixing
     Exchange-correlation      = SLA PW PBX PBC ( 1  4  3  4 0 0)

     celldm(1)=   7.720000  celldm(2)=   0.000000  celldm(3)=   0.000000
     celldm(4)=   0.000000  celldm(5)=   0.000000  celldm(6)=   0.000000

     crystal axes: (cart. coord. in units of alat)
               a(1) = (  -0.500000   0.000000   0.500000 )  
               a(2) = (   0.000000   0.500000   0.500000 )  
               a(3) = (  -0.500000   0.500000   0.000000 )  

     reciprocal axes: (cart. coord. in units 2 pi/alat)
               b(1) = ( -1.000000 -1.000000  1.000000 )  
               b(2) = (  1.000000  1.000000  1.000000 )  
               b(3) = ( -1.000000  1.000000 -1.000000 )  


     PseudoPot. # 1 for Ag read from file:
     /home/lorenzo/pseudos/Ag/Ag.pbe-n-kjpaw_psl.1.0.0.UPF
     MD5 check sum: 51099775af2a3182a6a1caffb86952a3
     Pseudo is Projector augmented-wave + core cor, Zval = 11.0
     Generated using "atomic" code by A. Dal Corso v.6.2.2
     Shape of augmentation charge: PSQ
     Using radial grid of 1237 points,  6 beta functions with: 
                l(1) =   0
                l(2) =   0
                l(3) =   1
                l(4) =   1
                l(5) =   2
                l(6) =   2
     Q(r) pseudized with 0 coefficients 


     atomic species   valence    mass     pseudopotential
        Ag            11.00   107.86820     Ag( 1.00)

     48 Sym. Ops., with inversion, found



   Cartesian axes

     site n.     atom                  positions (alat units)
         1           Ag  tau(   1) = (   0.0000000   0.0000000   0.0000000  )

     number of k points=    35  gaussian smearing, width (Ry)=  0.0100
                       cart. coord. in units 2pi/alat
        k(    1) = (   0.0000000   0.0000000   0.0000000), wk =   0.0027435
        k(    2) = (  -0.1111111   0.1111111  -0.1111111), wk =   0.0219479
        k(    3) = (  -0.2222222   0.2222222  -0.2222222), wk =   0.0219479
        k(    4) = (  -0.3333333   0.3333333  -0.3333333), wk =   0.0219479
        k(    5) = (  -0.4444444   0.4444444  -0.4444444), wk =   0.0219479
        k(    6) = (   0.0000000   0.2222222   0.0000000), wk =   0.0164609
        k(    7) = (  -0.1111111   0.3333333  -0.1111111), wk =   0.0658436
        k(    8) = (  -0.2222222   0.4444444  -0.2222222), wk =   0.0658436
        k(    9) = (  -0.3333333   0.5555556  -0.3333333), wk =   0.0658436
        k(   10) = (   0.5555556  -0.3333333   0.5555556), wk =   0.0658436
        k(   11) = (   0.4444444  -0.2222222   0.4444444), wk =   0.0658436
        k(   12) = (   0.3333333  -0.1111111   0.3333333), wk =   0.0658436
        k(   13) = (   0.2222222  -0.0000000   0.2222222), wk =   0.0329218
        k(   14) = (   0.0000000   0.4444444   0.0000000), wk =   0.0164609
        k(   15) = (  -0.1111111   0.5555556  -0.1111111), wk =   0.0658436
        k(   16) = (  -0.2222222   0.6666667  -0.2222222), wk =   0.0658436
        k(   17) = (   0.6666667  -0.2222222   0.6666667), wk =   0.0658436
        k(   18) = (   0.5555556  -0.1111111   0.5555556), wk =   0.0658436
        k(   19) = (   0.4444444   0.0000000   0.4444444), wk =   0.0329218
        k(   20) = (   0.0000000   0.6666667   0.0000000), wk =   0.0164609
        k(   21) = (  -0.1111111   0.7777778  -0.1111111), wk =   0.0658436
        k(   22) = (   0.7777778  -0.1111111   0.7777778), wk =   0.0658436
        k(   23) = (   0.6666667  -0.0000000   0.6666667), wk =   0.0329218
        k(   24) = (   0.0000000   0.8888889   0.0000000), wk =   0.0164609
        k(   25) = (   0.8888889   0.0000000   0.8888889), wk =   0.0329218
        k(   26) = (  -0.2222222   0.4444444   0.0000000), wk =   0.0658436
        k(   27) = (  -0.3333333   0.5555556  -0.1111111), wk =   0.1316872
        k(   28) = (   0.5555556  -0.3333333   0.7777778), wk =   0.1316872
        k(   29) = (  -0.2222222   0.6666667   0.0000000), wk =   0.0658436
        k(   30) = (   0.6666667  -0.2222222   0.8888889), wk =   0.1316872
        k(   31) = (   0.5555556  -0.1111111   0.7777778), wk =   0.1316872
        k(   32) = (   0.4444444   0.0000000   0.6666667), wk =   0.0658436
        k(   33) = (   0.7777778  -0.1111111   1.0000000), wk =   0.0658436
        k(   34) = (   0.6666667  -0.0000000   0.8888889), wk =   0.0658436
        k(   35) = (   0.5555556  -0.1111111   1.0000000), wk =   0.0658436

     Dense  grid:      531 G-vectors     FFT dimensions: (  12,  12,  12)

     Estimated max dynamical RAM per process >       1.10 MB

     Estimated total dynamical RAM >       5.49 MB

     Initial potential from superposition of free atoms
     Check: negative starting charge=   -0.000240

     starting charge   10.99960, renormalised to   11.00000

     negative rho (up, down):  2.404E-04 0.000E+00
     Starting wfcs are    9 randomized atomic wfcs +    1 random wfcs
     Checking if some PAW data can be deallocated... 

     total cpu time spent up to now is        1.4 secs

     Self-consistent Calculation

     iteration #  1     ecut=    10.00 Ry     beta= 0.70
     Davidson diagonalization with overlap
     ethr =  1.00E-02,  avg # of iterations =  4.3

     total cpu time spent up to now is        1.7 secs

     total energy              =    -340.48634953 Ry
     Harris-Foulkes estimate   =    -348.35292739 Ry
     estimated scf accuracy    <      10.35256234 Ry

     iteration #  2     ecut=    10.00 Ry     beta= 0.70
     Davidson diagonalization with overlap
     ethr =  1.00E-02,  avg # of iterations =  3.0

     total cpu time spent up to now is        2.0 secs

     total energy              =    -342.56584151 Ry
     Harris-Foulkes estimate   =    -342.64166579 Ry
     estimated scf accuracy    <       0.40203476 Ry

     iteration #  3     ecut=    10.00 Ry     beta= 0.70
     Davidson diagonalization with overlap
     ethr =  3.65E-03,  avg # of iterations =  1.0

     total cpu time spent up to now is        2.2 secs

     total energy              =    -342.57413354 Ry
     Harris-Foulkes estimate   =    -342.57517039 Ry
     estimated scf accuracy    <       0.03352523 Ry

     iteration #  4     ecut=    10.00 Ry     beta= 0.70
     Davidson diagonalization with overlap
     ethr =  3.05E-04,  avg # of iterations =  1.0

     total cpu time spent up to now is        2.3 secs

     total energy              =    -342.57489658 Ry
     Harris-Foulkes estimate   =    -342.57489867 Ry
     estimated scf accuracy    <       0.00008274 Ry

     iteration #  5     ecut=    10.00 Ry     beta= 0.70
     Davidson diagonalization with overlap
     ethr =  7.52E-07,  avg # of iterations =  3.3

     total cpu time spent up to now is        2.5 secs

     total energy              =    -342.57493969 Ry
     Harris-Foulkes estimate   =    -342.57494016 Ry
     estimated scf accuracy    <       0.00000135 Ry

     iteration #  6     ecut=    10.00 Ry     beta= 0.70
     Davidson diagonalization with overlap
     ethr =  1.23E-08,  avg # of iterations =  1.3

     total cpu time spent up to now is        2.7 secs

     total energy              =    -342.57493973 Ry
     Harris-Foulkes estimate   =    -342.57493975 Ry
     estimated scf accuracy    <       0.00000013 Ry

     iteration #  7     ecut=    10.00 Ry     beta= 0.70
     Davidson diagonalization with overlap
     ethr =  1.22E-09,  avg # of iterations =  1.0

     total cpu time spent up to now is        2.9 secs

     End of self-consistent calculation

          k = 0.0000 0.0000 0.0000 (    59 PWs)   bands (ev):

     3.4243  11.4369  11.4369  11.4369  15.1733  15.1733  29.8920  29.8920
    29.8920  33.2562

          k =-0.1111 0.1111-0.1111 (    59 PWs)   bands (ev):

     3.7794  11.3115  11.6587  11.6587  15.1563  15.1563  28.1431  29.8251
    29.8251  33.8561

          k =-0.2222 0.2222-0.2222 (    62 PWs)   bands (ev):

     4.7829  10.9788  11.5887  11.5887  13.1618  13.1618  24.5093  29.3533
    29.3533  34.5993

          k =-0.3333 0.3333-0.3333 (    64 PWs)   bands (ev):

     6.0680  10.5799  11.4121  11.4121  13.4134  13.4134  19.7505  28.3438
    28.3438  33.3647

          k =-0.4444 0.4444-0.4444 (    61 PWs)   bands (ev):

     7.3402  11.7115  11.7115  12.2655  15.5553  15.5553  17.7241  27.3904
    27.3904  32.5767

          k = 0.0000 0.2222 0.0000 (    60 PWs)   bands (ev):

     3.8999  11.2361  11.7592  11.7592  12.9918  15.4270  28.5003  29.2201
    29.2201  34.0641

          k =-0.1111 0.3333-0.1111 (    60 PWs)   bands (ev):

     4.7031  11.0033  11.9830  12.2495  12.9521  15.7001  25.6169  28.5291
    29.1740  35.1964

          k =-0.2222 0.4444-0.2222 (    63 PWs)   bands (ev):

     5.9684  11.0473  11.3165  11.7326  13.2827  13.6132  21.2804  27.5412
    28.5999  34.1260

          k =-0.3333 0.5556-0.3333 (    65 PWs)   bands (ev):

     7.2996  10.3477  10.5899  11.4054  13.2785  13.7820  17.9476  26.3300
    27.0632  33.2049

          k = 0.5556-0.3333 0.5556 (    63 PWs)   bands (ev):

     7.8313  11.0443  11.2403  11.6675  13.3918  16.2937  17.0196  26.0657
    26.6599  33.0444

          k = 0.4444-0.2222 0.4444 (    62 PWs)   bands (ev):

     6.9173  10.8606  11.6871  12.0230  14.2699  15.9508  18.7984  26.2960
    28.3509  33.5574

          k = 0.3333-0.1111 0.3333 (    61 PWs)   bands (ev):

     5.5260  11.6525  11.7604  12.0649  13.0590  14.7175  22.8039  27.6464
    29.6040  34.8920

          k = 0.2222-0.0000 0.2222 (    61 PWs)   bands (ev):

     4.3568  11.1296  11.8440  12.0241  12.1587  14.6140  26.3078  28.5620
    30.0076  34.8504

          k = 0.0000 0.4444 0.0000 (    60 PWs)   bands (ev):

     5.2802  10.7919  12.0615  12.7161  12.7161  16.1519  25.5058  27.4629
    27.4629  35.7669

          k =-0.1111 0.5556-0.1111 (    58 PWs)   bands (ev):

     6.4548  11.0412  11.8546  13.4277  15.9496  16.6778  22.7119  26.4826
    27.1215  35.5489

          k =-0.2222 0.6667-0.2222 (    62 PWs)   bands (ev):

     7.6949  10.9359  11.5290  12.7221  14.7505  15.1842  18.3439  25.0652
    25.9102  34.8395

          k = 0.6667-0.2222 0.6667 (    62 PWs)   bands (ev):

     8.7621  11.0332  11.2658  11.9705  14.1064  15.7873  17.6754  24.6587
    25.5468  34.9043

          k = 0.5556-0.1111 0.5556 (    61 PWs)   bands (ev):

     8.0974  10.7156  12.1527  12.5028  14.4173  15.5028  19.1707  24.1042
    27.2693  34.8227

          k = 0.4444 0.0000 0.4444 (    63 PWs)   bands (ev):

     6.6248  10.8424  11.6351  11.9024  12.7052  13.7036  20.5193  25.7171
    28.7767  34.9858

          k = 0.0000 0.6667 0.0000 (    52 PWs)   bands (ev):

     7.3831  11.4947  14.6558  17.2344  17.6367  17.6367  21.7297  25.9010
    25.9010  37.5065

          k =-0.1111 0.7778-0.1111 (    61 PWs)   bands (ev):

     8.4870  10.5587  11.9000  14.0936  15.0827  16.3528  18.1374  23.3644
    23.4759  36.8776

          k = 0.7778-0.1111 0.7778 (    59 PWs)   bands (ev):

     9.7538  11.0987  11.6966  14.9550  15.5362  16.3836  18.2992  22.8028
    24.0591  37.0957

          k = 0.6667-0.0000 0.6667 (    63 PWs)   bands (ev):

     9.3058  10.6092  10.7158  12.4394  14.3217  14.7905  20.2208  20.5542
    25.6264  35.7870

          k = 0.0000 0.8889 0.0000 (    64 PWs)   bands (ev):

     9.0661   9.8866  13.0832  13.0832  13.4017  14.5318  17.0730  21.7431
    21.7431  37.2954

          k = 0.8889 0.0000 0.8889 (    64 PWs)   bands (ev):

     9.5773   9.9301  12.1937  13.1104  14.4020  14.9592  15.7508  21.6874
    21.9422  37.6176

          k =-0.2222 0.4444 0.0000 (    61 PWs)   bands (ev):

     5.6855  10.8077  11.6143  12.3973  12.9378  15.4388  23.4734  26.9138
    28.8077  35.5409

          k =-0.3333 0.5556-0.1111 (    61 PWs)   bands (ev):

     7.0073  11.1241  11.6297  13.2218  13.9748  15.5067  19.8053  25.4581
    27.9425  34.8273

          k = 0.5556-0.3333 0.7778 (    61 PWs)   bands (ev):

     8.2694  11.2158  11.6904  12.4854  14.8762  16.1521  17.9915  24.9212
    26.3188  34.3287

          k =-0.2222 0.6667 0.0000 (    62 PWs)   bands (ev):

     7.5839  10.6700  11.2673  13.8328  14.1205  15.1120  19.6737  23.9792
    26.0701  35.5665

          k = 0.6667-0.2222 0.8889 (    63 PWs)   bands (ev):

     8.9355  10.7427  11.7601  11.9957  12.8395  15.5703  18.1196  22.5797
    25.3041  36.6999

          k = 0.5556-0.1111 0.7778 (    60 PWs)   bands (ev):

     9.6314  11.1560  11.7176  13.2975  14.8723  15.5729  19.2041  22.4061
    25.5964  36.7722

          k = 0.4444 0.0000 0.6667 (    61 PWs)   bands (ev):

     8.4221  11.2415  11.3382  12.6838  14.4101  15.5086  19.9787  22.9687
    26.8010  35.6287

          k = 0.7778-0.1111 1.0000 (    63 PWs)   bands (ev):

     9.4238  10.3048  12.3461  13.5119  13.6111  15.4819  16.7982  21.5268
    23.3892  37.5352

          k = 0.6667-0.0000 0.8889 (    60 PWs)   bands (ev):

    10.2562  11.2892  12.1947  13.0519  15.0595  15.3034  19.3864  21.3372
    24.1491  38.0971

          k = 0.5556-0.1111 1.0000 (    61 PWs)   bands (ev):

    10.4530  11.2100  11.5288  12.3388  14.1928  15.0815  19.6522  20.9216
    25.0223  38.2461

     the Fermi energy is    15.5627 ev

!    total energy              =    -342.57493974 Ry
     Harris-Foulkes estimate   =    -342.57493974 Ry
     estimated scf accuracy    <          7.3E-10 Ry

     total all-electron energy =    -10619.540994 Ry

     The total energy is the sum of the following terms:

     one-electron contribution =      18.16964780 Ry
     hartree contribution      =       4.14192841 Ry
     xc contribution           =     -19.14863470 Ry
     ewald contribution        =     -71.86118018 Ry
     one-center paw contrib.   =    -273.87470711 Ry
     smearing contrib. (-TS)   =      -0.00199396 Ry

     convergence has been achieved in   7 iterations

     Forces acting on atoms (cartesian axes, Ry/au):

     atom    1 type  1   force =     0.00000000    0.00000000    0.00000000

     Total force =     0.000000     Total SCF correction =     0.000000


     Computing stress (Cartesian axis) and pressure

          total   stress  (Ry/bohr**3)                   (kbar)     P=********
  -0.10690156   0.00000000  -0.00000000     -15725.76      0.00     -0.00
   0.00000000  -0.10690156  -0.00000000          0.00 -15725.76     -0.00
  -0.00000000  -0.00000000  -0.10690156         -0.00     -0.00 -15725.76


     Writing output data file Ag.save/

     init_run     :      0.19s CPU      0.21s WALL (       1 calls)
     electrons    :      1.25s CPU      1.46s WALL (       1 calls)
     forces       :      0.02s CPU      0.02s WALL (       1 calls)
     stress       :      0.02s CPU      0.02s WALL (       1 calls)

     Called by init_run:
     wfcinit      :      0.02s CPU      0.02s WALL (       1 calls)
     potinit      :      0.09s CPU      0.11s WALL (       1 calls)
     hinit0       :      0.06s CPU      0.06s WALL (       1 calls)

     Called by electrons:
     c_bands      :      0.52s CPU      0.60s WALL (       7 calls)
     sum_band     :      0.06s CPU      0.07s WALL (       7 calls)
     v_of_rho     :      0.00s CPU      0.00s WALL (       8 calls)
     newd         :      0.01s CPU      0.01s WALL (       8 calls)
     PAW_pot      :      0.75s CPU      0.87s WALL (       8 calls)
     mix_rho      :      0.00s CPU      0.00s WALL (       7 calls)

     Called by c_bands:
     init_us_2    :      0.01s CPU      0.01s WALL (     595 calls)
     cegterg      :      0.51s CPU      0.58s WALL (     245 calls)

     Called by sum_band:
     sum_band:bec :      0.00s CPU      0.00s WALL (     245 calls)
     addusdens    :      0.00s CPU      0.00s WALL (       7 calls)

     Called by *egterg:
     h_psi        :      0.29s CPU      0.33s WALL (     801 calls)
     s_psi        :      0.01s CPU      0.01s WALL (     801 calls)
     g_psi        :      0.00s CPU      0.00s WALL (     521 calls)
     cdiaghg      :      0.15s CPU      0.17s WALL (     766 calls)

     Called by h_psi:
     h_psi:pot    :      0.28s CPU      0.33s WALL (     801 calls)
     h_psi:calbec :      0.02s CPU      0.02s WALL (     801 calls)
     vloc_psi     :      0.26s CPU      0.29s WALL (     801 calls)
     add_vuspsi   :      0.01s CPU      0.01s WALL (     801 calls)

     General routines
     calbec       :      0.03s CPU      0.03s WALL (    1221 calls)
     fft          :      0.00s CPU      0.00s WALL (     114 calls)
     ffts         :      0.00s CPU      0.00s WALL (       7 calls)
     fftw         :      0.26s CPU      0.31s WALL (   15282 calls)

     Parallel routines
     fft_scatt_xy :      0.03s CPU      0.04s WALL (   15403 calls)
     fft_scatt_yz :      0.12s CPU      0.14s WALL (   15403 calls)

     PWSCF        :     2.71s CPU         2.99s WALL


   This run was terminated on:   0: 5:48  27Mar2024            

=------------------------------------------------------------------------------=
   JOB DONE.
=------------------------------------------------------------------------------=
