
     Program PWSCF v.6.3MaX starts on 27Mar2024 at  0:21:49 

     This program is part of the open-source Quantum ESPRESSO suite
     for quantum simulation of materials; please cite
         "P. Giannozzi et al., J. Phys.:Condens. Matter 21 395502 (2009);
         "P. Giannozzi et al., J. Phys.:Condens. Matter 29 465901 (2017);
          URL http://www.quantum-espresso.org", 
     in publications or presentations arising from this work. More details at
     http://www.quantum-espresso.org/quote

     Parallel version (MPI), running on     5 processors

     MPI processes distributed on     1 nodes
     R & G space division:  proc/nbgrp/npool/nimage =       5
     Waiting for input...
     Reading input from standard input

     Current dimensions of program PWSCF are:
     Max number of different atomic species (ntypx) = 10
     Max number of k-points (npk) =  40000
     Max angular momentum in pseudopotentials (lmaxx) =  3

     Subspace diagonalization in iterative solution of the eigenvalue problem:
     a serial algorithm will be used


     Parallelization info
     --------------------
     sticks:   dense  smooth     PW     G-vecs:    dense   smooth      PW
     Min          84      84     25                 1115     1115     192
     Max          85      85     26                 1117     1117     195
     Sum         421     421    127                 5577     5577     965



     bravais-lattice index     =            2
     lattice parameter (alat)  =       7.7200  a.u.
     unit-cell volume          =     115.0249 (a.u.)^3
     number of atoms/cell      =            1
     number of atomic types    =            1
     number of electrons       =        11.00
     number of Kohn-Sham states=           10
     kinetic-energy cutoff     =      50.0000  Ry
     charge density cutoff     =     200.0000  Ry
     convergence threshold     =      1.0E-08
     mixing beta               =       0.7000
     number of iterations used =            8  plain     mixing
     Exchange-correlation      = PBESOL ( 1  4 10  8 0 0)

     celldm(1)=   7.720000  celldm(2)=   0.000000  celldm(3)=   0.000000
     celldm(4)=   0.000000  celldm(5)=   0.000000  celldm(6)=   0.000000

     crystal axes: (cart. coord. in units of alat)
               a(1) = (  -0.500000   0.000000   0.500000 )  
               a(2) = (   0.000000   0.500000   0.500000 )  
               a(3) = (  -0.500000   0.500000   0.000000 )  

     reciprocal axes: (cart. coord. in units 2 pi/alat)
               b(1) = ( -1.000000 -1.000000  1.000000 )  
               b(2) = (  1.000000  1.000000  1.000000 )  
               b(3) = ( -1.000000  1.000000 -1.000000 )  


     PseudoPot. # 1 for Ag read from file:
     /home/lorenzo/pseudos/Ag/Ag.pbesol-n-rrkjus_psl.1.0.0.UPF
     MD5 check sum: 3b43e8aa747a56f565f44d11355b8b45
     Pseudo is Ultrasoft + core correction, Zval = 11.0
     Generated using "atomic" code by A. Dal Corso v.6.2.2
     Using radial grid of 1237 points,  6 beta functions with: 
                l(1) =   0
                l(2) =   0
                l(3) =   1
                l(4) =   1
                l(5) =   2
                l(6) =   2
     Q(r) pseudized with 0 coefficients 


     atomic species   valence    mass     pseudopotential
        Ag            11.00   107.86820     Ag( 1.00)

     48 Sym. Ops., with inversion, found



   Cartesian axes

     site n.     atom                  positions (alat units)
         1           Ag  tau(   1) = (   0.0000000   0.0000000   0.0000000  )

     number of k points=    16  gaussian smearing, width (Ry)=  0.0100
                       cart. coord. in units 2pi/alat
        k(    1) = (   0.0000000   0.0000000   0.0000000), wk =   0.0092593
        k(    2) = (  -0.1666667   0.1666667  -0.1666667), wk =   0.0740741
        k(    3) = (  -0.3333333   0.3333333  -0.3333333), wk =   0.0740741
        k(    4) = (   0.5000000  -0.5000000   0.5000000), wk =   0.0370370
        k(    5) = (   0.0000000   0.3333333   0.0000000), wk =   0.0555556
        k(    6) = (  -0.1666667   0.5000000  -0.1666667), wk =   0.2222222
        k(    7) = (   0.6666667  -0.3333333   0.6666667), wk =   0.2222222
        k(    8) = (   0.5000000  -0.1666667   0.5000000), wk =   0.2222222
        k(    9) = (   0.3333333   0.0000000   0.3333333), wk =   0.1111111
        k(   10) = (   0.0000000   0.6666667   0.0000000), wk =   0.0555556
        k(   11) = (   0.8333333  -0.1666667   0.8333333), wk =   0.2222222
        k(   12) = (   0.6666667  -0.0000000   0.6666667), wk =   0.1111111
        k(   13) = (   0.0000000  -1.0000000   0.0000000), wk =   0.0277778
        k(   14) = (   0.6666667  -0.3333333   1.0000000), wk =   0.2222222
        k(   15) = (   0.5000000  -0.1666667   0.8333333), wk =   0.2222222
        k(   16) = (  -0.3333333  -1.0000000   0.0000000), wk =   0.1111111

     Dense  grid:     5577 G-vectors     FFT dimensions: (  25,  25,  25)

     Estimated max dynamical RAM per process >       5.89 MB

     Estimated total dynamical RAM >      29.46 MB

     Initial potential from superposition of free atoms

     starting charge   10.99964, renormalised to   11.00000
     Starting wfcs are    9 randomized atomic wfcs +    1 random wfcs

     total cpu time spent up to now is        0.9 secs

     Self-consistent Calculation

     iteration #  1     ecut=    50.00 Ry     beta= 0.70
     Davidson diagonalization with overlap
     ethr =  1.00E-02,  avg # of iterations =  4.6

     Threshold (ethr) on eigenvalues was too large:
     Diagonalizing with lowered threshold

     Davidson diagonalization with overlap
     ethr =  4.25E-05,  avg # of iterations =  2.7

     total cpu time spent up to now is        1.2 secs

     total energy              =     -84.17055996 Ry
     Harris-Foulkes estimate   =     -84.17378428 Ry
     estimated scf accuracy    <       0.00508351 Ry

     iteration #  2     ecut=    50.00 Ry     beta= 0.70
     Davidson diagonalization with overlap
     ethr =  4.62E-05,  avg # of iterations =  2.4

     total cpu time spent up to now is        1.4 secs

     total energy              =     -84.17172455 Ry
     Harris-Foulkes estimate   =     -84.17361745 Ry
     estimated scf accuracy    <       0.00352225 Ry

     iteration #  3     ecut=    50.00 Ry     beta= 0.70
     Davidson diagonalization with overlap
     ethr =  3.20E-05,  avg # of iterations =  2.0

     total cpu time spent up to now is        1.5 secs

     total energy              =     -84.17251304 Ry
     Harris-Foulkes estimate   =     -84.17251368 Ry
     estimated scf accuracy    <       0.00002768 Ry

     iteration #  4     ecut=    50.00 Ry     beta= 0.70
     Davidson diagonalization with overlap
     ethr =  2.52E-07,  avg # of iterations =  2.8

     total cpu time spent up to now is        1.6 secs

     total energy              =     -84.17252200 Ry
     Harris-Foulkes estimate   =     -84.17252193 Ry
     estimated scf accuracy    <       0.00000047 Ry

     iteration #  5     ecut=    50.00 Ry     beta= 0.70
     Davidson diagonalization with overlap
     ethr =  4.25E-09,  avg # of iterations =  2.1

     total cpu time spent up to now is        1.8 secs

     total energy              =     -84.17252211 Ry
     Harris-Foulkes estimate   =     -84.17252214 Ry
     estimated scf accuracy    <       0.00000005 Ry

     iteration #  6     ecut=    50.00 Ry     beta= 0.70
     Davidson diagonalization with overlap
     ethr =  4.66E-10,  avg # of iterations =  2.1

     total cpu time spent up to now is        1.9 secs

     End of self-consistent calculation

          k = 0.0000 0.0000 0.0000 (   701 PWs)   bands (ev):

     4.8083   7.9261   7.9261   7.9261   8.9769   8.9769  29.5454  32.8336
    32.8336  32.8336

          k =-0.1667 0.1667-0.1667 (   685 PWs)   bands (ev):

     5.6077   7.8160   8.1050   8.1050   8.9512   8.9512  27.1219  30.3050
    32.7163  32.7163

          k =-0.3333 0.3333-0.3333 (   685 PWs)   bands (ev):

     6.3886   8.0401   8.0401   9.3042   9.4043   9.4043  20.6300  29.3157
    31.7236  31.7236

          k = 0.5000-0.5000 0.5000 (   700 PWs)   bands (ev):

     6.2862   7.9038   7.9038   9.7821   9.7821  12.1936  16.2600  28.5921
    30.8323  30.8323

          k = 0.0000 0.3333 0.0000 (   681 PWs)   bands (ev):

     5.8781   7.5117   8.3423   8.3423   8.6399   9.1635  29.5858  29.7256
    29.7256  30.2496

          k =-0.1667 0.5000-0.1667 (   680 PWs)   bands (ev):

     6.7692   7.5054   8.1108   8.5102   9.5286   9.8775  23.2544  28.0579
    28.7037  30.3232

          k = 0.6667-0.3333 0.6667 (   688 PWs)   bands (ev):

     6.6937   7.6636   8.3218   8.5757   9.8104  13.2311  17.3671  26.3273
    28.1661  29.4236

          k = 0.5000-0.1667 0.5000 (   684 PWs)   bands (ev):

     6.8452   7.7486   8.3054   8.5109   9.3023  12.1430  19.2112  25.1324
    29.9389  30.5699

          k = 0.3333 0.0000 0.3333 (   682 PWs)   bands (ev):

     6.6644   7.5392   8.1695   8.4627   8.6107   9.8000  25.3653  25.7131
    32.2738  33.3857

          k = 0.0000 0.6667 0.0000 (   693 PWs)   bands (ev):

     6.6310   6.7542   9.3512   9.3512   9.5495  10.4425  24.9454  25.3580
    25.3580  29.6910

          k = 0.8333-0.1667 0.8333 (   690 PWs)   bands (ev):

     6.5797   6.8355   9.0083   9.2690   9.8785  13.9260  20.5038  21.7813
    24.8620  29.6576

          k = 0.6667-0.0000 0.6667 (   680 PWs)   bands (ev):

     6.9463   7.5227   8.1484   8.9326   9.5023  15.8013  18.4677  20.1976
    26.9585  29.6116

          k = 0.0000-1.0000 0.0000 (   692 PWs)   bands (ev):

     6.2542   6.4057   9.7509   9.9928   9.9928  14.2156  19.3827  23.4525
    23.4525  29.7506

          k = 0.6667-0.3333 1.0000 (   687 PWs)   bands (ev):

     7.1819   7.2468   7.9070   9.1705   9.3398  12.4655  22.2723  22.2887
    25.6787  33.4897

          k = 0.5000-0.1667 0.8333 (   692 PWs)   bands (ev):

     7.2430   7.2902   7.9489   8.8509   9.7443  16.3124  17.0507  22.8870
    23.5237  32.9941

          k =-0.3333-1.0000 0.0000 (   690 PWs)   bands (ev):

     6.7765   6.9605   8.5293   9.2272   9.9934  16.6117  19.5503  20.6877
    21.4158  33.0736

     the Fermi energy is    12.4963 ev

!    total energy              =     -84.17252213 Ry
     Harris-Foulkes estimate   =     -84.17252213 Ry
     estimated scf accuracy    <          7.7E-10 Ry

     The total energy is the sum of the following terms:

     one-electron contribution =      -4.72898234 Ry
     hartree contribution      =      14.55878283 Ry
     xc contribution           =     -22.14054519 Ry
     ewald contribution        =     -71.86118022 Ry
     smearing contrib. (-TS)   =      -0.00059720 Ry

     convergence has been achieved in   6 iterations

     Forces acting on atoms (cartesian axes, Ry/au):

     atom    1 type  1   force =     0.00000000    0.00000000    0.00000000

     Total force =     0.000000     Total SCF correction =     0.000000


     Computing stress (Cartesian axis) and pressure

          total   stress  (Ry/bohr**3)                   (kbar)     P=  -32.98
  -0.00022420  -0.00000000  -0.00000000        -32.98     -0.00     -0.00
  -0.00000000  -0.00022420   0.00000000         -0.00    -32.98      0.00
  -0.00000000   0.00000000  -0.00022420         -0.00      0.00    -32.98


     Writing output data file Ag.save/

     init_run     :      0.18s CPU      0.19s WALL (       1 calls)
     electrons    :      0.88s CPU      0.94s WALL (       1 calls)
     forces       :      0.03s CPU      0.03s WALL (       1 calls)
     stress       :      0.08s CPU      0.08s WALL (       1 calls)

     Called by init_run:
     wfcinit      :      0.03s CPU      0.04s WALL (       1 calls)
     potinit      :      0.01s CPU      0.01s WALL (       1 calls)
     hinit0       :      0.14s CPU      0.14s WALL (       1 calls)

     Called by electrons:
     c_bands      :      0.67s CPU      0.72s WALL (       7 calls)
     sum_band     :      0.15s CPU      0.16s WALL (       7 calls)
     v_of_rho     :      0.02s CPU      0.02s WALL (       7 calls)
     newd         :      0.04s CPU      0.04s WALL (       7 calls)
     mix_rho      :      0.00s CPU      0.00s WALL (       7 calls)

     Called by c_bands:
     init_us_2    :      0.03s CPU      0.03s WALL (     272 calls)
     cegterg      :      0.64s CPU      0.69s WALL (     112 calls)

     Called by sum_band:
     sum_band:bec :      0.00s CPU      0.00s WALL (     112 calls)
     addusdens    :      0.04s CPU      0.04s WALL (       7 calls)

     Called by *egterg:
     h_psi        :      0.50s CPU      0.53s WALL (     425 calls)
     s_psi        :      0.02s CPU      0.02s WALL (     425 calls)
     g_psi        :      0.00s CPU      0.00s WALL (     297 calls)
     cdiaghg      :      0.08s CPU      0.08s WALL (     393 calls)

     Called by h_psi:
     h_psi:pot    :      0.49s CPU      0.53s WALL (     425 calls)
     h_psi:calbec :      0.02s CPU      0.02s WALL (     425 calls)
     vloc_psi     :      0.45s CPU      0.49s WALL (     425 calls)
     add_vuspsi   :      0.02s CPU      0.02s WALL (     425 calls)

     General routines
     calbec       :      0.04s CPU      0.04s WALL (     617 calls)
     fft          :      0.02s CPU      0.02s WALL (     104 calls)
     ffts         :      0.00s CPU      0.00s WALL (       7 calls)
     fftw         :      0.51s CPU      0.54s WALL (    6942 calls)

     Parallel routines
     fft_scatt_xy :      0.04s CPU      0.05s WALL (    7053 calls)
     fft_scatt_yz :      0.13s CPU      0.14s WALL (    7053 calls)

     PWSCF        :     1.94s CPU         2.05s WALL


   This run was terminated on:   0:21:51  27Mar2024            

=------------------------------------------------------------------------------=
   JOB DONE.
=------------------------------------------------------------------------------=
