
     Program PWSCF v.6.3MaX starts on 27Mar2024 at  0:47:33 

     This program is part of the open-source Quantum ESPRESSO suite
     for quantum simulation of materials; please cite
         "P. Giannozzi et al., J. Phys.:Condens. Matter 21 395502 (2009);
         "P. Giannozzi et al., J. Phys.:Condens. Matter 29 465901 (2017);
          URL http://www.quantum-espresso.org", 
     in publications or presentations arising from this work. More details at
     http://www.quantum-espresso.org/quote

     Parallel version (MPI), running on     5 processors

     MPI processes distributed on     1 nodes
     R & G space division:  proc/nbgrp/npool/nimage =       5
     Waiting for input...
     Reading input from standard input

     Current dimensions of program PWSCF are:
     Max number of different atomic species (ntypx) = 10
     Max number of k-points (npk) =  40000
     Max angular momentum in pseudopotentials (lmaxx) =  3
               file Ag.pbe-n-kjpaw_psl.1.0.0.UPF: wavefunction(s)  5S 5P renormalized

     Subspace diagonalization in iterative solution of the eigenvalue problem:
     a serial algorithm will be used


     Parallelization info
     --------------------
     sticks:   dense  smooth     PW     G-vecs:    dense   smooth      PW
     Min         153     153     48                 2863     2863     479
     Max         154     154     49                 2867     2867     480
     Sum         769     769    241                14331    14331    2397



     bravais-lattice index     =            2
     lattice parameter (alat)  =       7.7200  a.u.
     unit-cell volume          =     115.0249 (a.u.)^3
     number of atoms/cell      =            1
     number of atomic types    =            1
     number of electrons       =        11.00
     number of Kohn-Sham states=           10
     kinetic-energy cutoff     =      95.0000  Ry
     charge density cutoff     =     380.0000  Ry
     convergence threshold     =      1.0E-08
     mixing beta               =       0.7000
     number of iterations used =            8  plain     mixing
     Exchange-correlation      = SLA PW PBX PBC ( 1  4  3  4 0 0)

     celldm(1)=   7.720000  celldm(2)=   0.000000  celldm(3)=   0.000000
     celldm(4)=   0.000000  celldm(5)=   0.000000  celldm(6)=   0.000000

     crystal axes: (cart. coord. in units of alat)
               a(1) = (  -0.500000   0.000000   0.500000 )  
               a(2) = (   0.000000   0.500000   0.500000 )  
               a(3) = (  -0.500000   0.500000   0.000000 )  

     reciprocal axes: (cart. coord. in units 2 pi/alat)
               b(1) = ( -1.000000 -1.000000  1.000000 )  
               b(2) = (  1.000000  1.000000  1.000000 )  
               b(3) = ( -1.000000  1.000000 -1.000000 )  


     PseudoPot. # 1 for Ag read from file:
     /home/lorenzo/pseudos/Ag/Ag.pbe-n-kjpaw_psl.1.0.0.UPF
     MD5 check sum: 51099775af2a3182a6a1caffb86952a3
     Pseudo is Projector augmented-wave + core cor, Zval = 11.0
     Generated using "atomic" code by A. Dal Corso v.6.2.2
     Shape of augmentation charge: PSQ
     Using radial grid of 1237 points,  6 beta functions with: 
                l(1) =   0
                l(2) =   0
                l(3) =   1
                l(4) =   1
                l(5) =   2
                l(6) =   2
     Q(r) pseudized with 0 coefficients 


     atomic species   valence    mass     pseudopotential
        Ag            11.00   107.86820     Ag( 1.00)

     48 Sym. Ops., with inversion, found



   Cartesian axes

     site n.     atom                  positions (alat units)
         1           Ag  tau(   1) = (   0.0000000   0.0000000   0.0000000  )

     number of k points=     8  gaussian smearing, width (Ry)=  0.0100
                       cart. coord. in units 2pi/alat
        k(    1) = (   0.0000000   0.0000000   0.0000000), wk =   0.0312500
        k(    2) = (  -0.2500000   0.2500000  -0.2500000), wk =   0.2500000
        k(    3) = (   0.5000000  -0.5000000   0.5000000), wk =   0.1250000
        k(    4) = (   0.0000000   0.5000000   0.0000000), wk =   0.1875000
        k(    5) = (   0.7500000  -0.2500000   0.7500000), wk =   0.7500000
        k(    6) = (   0.5000000   0.0000000   0.5000000), wk =   0.3750000
        k(    7) = (   0.0000000  -1.0000000   0.0000000), wk =   0.0937500
        k(    8) = (  -0.5000000  -1.0000000   0.0000000), wk =   0.1875000

     Dense  grid:    14331 G-vectors     FFT dimensions: (  36,  36,  36)

     Estimated max dynamical RAM per process >      13.21 MB

     Estimated total dynamical RAM >      66.05 MB

     Initial potential from superposition of free atoms

     starting charge   10.99960, renormalised to   11.00000
     Starting wfcs are    9 randomized atomic wfcs +    1 random wfcs
     Checking if some PAW data can be deallocated... 

     total cpu time spent up to now is        1.2 secs

     Self-consistent Calculation

     iteration #  1     ecut=    95.00 Ry     beta= 0.70
     Davidson diagonalization with overlap
     ethr =  1.00E-02,  avg # of iterations =  5.9

     Threshold (ethr) on eigenvalues was too large:
     Diagonalizing with lowered threshold

     Davidson diagonalization with overlap
     ethr =  2.92E-05,  avg # of iterations =  3.1

     total cpu time spent up to now is        1.8 secs

     total energy              =    -355.29211853 Ry
     Harris-Foulkes estimate   =    -355.29418579 Ry
     estimated scf accuracy    <       0.00358404 Ry

     iteration #  2     ecut=    95.00 Ry     beta= 0.70
     Davidson diagonalization with overlap
     ethr =  3.26E-05,  avg # of iterations =  2.0

     total cpu time spent up to now is        2.1 secs

     total energy              =    -355.29313563 Ry
     Harris-Foulkes estimate   =    -355.29431740 Ry
     estimated scf accuracy    <       0.00251329 Ry

     iteration #  3     ecut=    95.00 Ry     beta= 0.70
     Davidson diagonalization with overlap
     ethr =  2.28E-05,  avg # of iterations =  2.0

     total cpu time spent up to now is        2.3 secs

     total energy              =    -355.29362518 Ry
     Harris-Foulkes estimate   =    -355.29360460 Ry
     estimated scf accuracy    <       0.00001587 Ry

     iteration #  4     ecut=    95.00 Ry     beta= 0.70
     Davidson diagonalization with overlap
     ethr =  1.44E-07,  avg # of iterations =  2.6

     total cpu time spent up to now is        2.6 secs

     total energy              =    -355.29363104 Ry
     Harris-Foulkes estimate   =    -355.29363078 Ry
     estimated scf accuracy    <       0.00000031 Ry

     iteration #  5     ecut=    95.00 Ry     beta= 0.70
     Davidson diagonalization with overlap
     ethr =  2.80E-09,  avg # of iterations =  2.9

     total cpu time spent up to now is        2.9 secs

     End of self-consistent calculation

          k = 0.0000 0.0000 0.0000 (  1807 PWs)   bands (ev):

     5.0609   8.0634   8.0634   8.0634   9.1047   9.1047  29.7976  33.0850
    33.0850  33.0850

          k =-0.2500 0.2500-0.2500 (  1811 PWs)   bands (ev):

     6.4497   8.2661   8.2661   8.2937   9.2311   9.2311  24.0697  30.1975
    32.6089  32.6089

          k = 0.5000-0.5000 0.5000 (  1802 PWs)   bands (ev):

     6.4597   8.0424   8.0424   9.9014   9.9014  12.4426  16.4617  28.8355
    31.0937  31.0937

          k = 0.0000 0.5000 0.0000 (  1812 PWs)   bands (ev):

     6.8605   7.2684   8.9408   8.9408   9.0604   9.4780  27.6326  27.6326
    28.6977  29.8584

          k = 0.7500-0.2500 0.7500 (  1796 PWs)   bands (ev):

     6.9340   7.5008   8.5430   8.9057   9.9588  13.8686  19.0090  24.1280
    26.6310  29.7465

          k = 0.5000 0.0000 0.5000 (  1796 PWs)   bands (ev):

     7.5022   7.7287   8.1221   8.7249   9.1161  12.3116  22.1615  22.2844
    30.4842  30.7445

          k = 0.0000-1.0000 0.0000 (  1772 PWs)   bands (ev):

     6.4187   6.5592   9.8707  10.1088  10.1088  14.4707  19.5918  23.7106
    23.7106  29.9571

          k =-0.5000-1.0000 0.0000 (  1800 PWs)   bands (ev):

     7.1727   7.7864   7.7864   9.1154  10.1099  18.8365  18.8365  19.9281
    21.0587  36.2652

     the Fermi energy is    13.7020 ev

!    total energy              =    -355.29363108 Ry
     Harris-Foulkes estimate   =    -355.29363108 Ry
     estimated scf accuracy    <          8.1E-09 Ry

     total all-electron energy =    -10632.259685 Ry

     The total energy is the sum of the following terms:

     one-electron contribution =       1.58196422 Ry
     hartree contribution      =      14.65567825 Ry
     xc contribution           =     -22.35197763 Ry
     ewald contribution        =     -71.86118018 Ry
     one-center paw contrib.   =    -277.31764335 Ry
     smearing contrib. (-TS)   =      -0.00047239 Ry

     convergence has been achieved in   5 iterations

     Forces acting on atoms (cartesian axes, Ry/au):

     atom    1 type  1   force =     0.00000000    0.00000000    0.00000000

     Total force =     0.000000     Total SCF correction =     0.000000


     Computing stress (Cartesian axis) and pressure

          total   stress  (Ry/bohr**3)                   (kbar)     P=   62.16
   0.00042257  -0.00000000  -0.00000000         62.16     -0.00     -0.00
  -0.00000000   0.00042257   0.00000000         -0.00     62.16      0.00
  -0.00000000   0.00000000   0.00042257         -0.00      0.00     62.16


     Writing output data file Ag.save/

     init_run     :      0.40s CPU      0.43s WALL (       1 calls)
     electrons    :      1.58s CPU      1.65s WALL (       1 calls)
     forces       :      0.05s CPU      0.05s WALL (       1 calls)
     stress       :      0.15s CPU      0.15s WALL (       1 calls)

     Called by init_run:
     wfcinit      :      0.04s CPU      0.05s WALL (       1 calls)
     potinit      :      0.12s CPU      0.14s WALL (       1 calls)
     hinit0       :      0.20s CPU      0.20s WALL (       1 calls)

     Called by electrons:
     c_bands      :      0.74s CPU      0.78s WALL (       6 calls)
     sum_band     :      0.22s CPU      0.24s WALL (       6 calls)
     v_of_rho     :      0.05s CPU      0.06s WALL (       6 calls)
     newd         :      0.09s CPU      0.09s WALL (       6 calls)
     PAW_pot      :      0.60s CPU      0.63s WALL (       6 calls)
     mix_rho      :      0.00s CPU      0.00s WALL (       6 calls)

     Called by c_bands:
     init_us_2    :      0.03s CPU      0.03s WALL (     120 calls)
     cegterg      :      0.70s CPU      0.74s WALL (      48 calls)

     Called by sum_band:
     sum_band:bec :      0.00s CPU      0.00s WALL (      48 calls)
     addusdens    :      0.08s CPU      0.08s WALL (       6 calls)

     Called by *egterg:
     h_psi        :      0.58s CPU      0.62s WALL (     204 calls)
     s_psi        :      0.02s CPU      0.02s WALL (     204 calls)
     g_psi        :      0.00s CPU      0.00s WALL (     148 calls)
     cdiaghg      :      0.04s CPU      0.05s WALL (     188 calls)

     Called by h_psi:
     h_psi:pot    :      0.58s CPU      0.61s WALL (     204 calls)
     h_psi:calbec :      0.03s CPU      0.03s WALL (     204 calls)
     vloc_psi     :      0.53s CPU      0.57s WALL (     204 calls)
     add_vuspsi   :      0.02s CPU      0.02s WALL (     204 calls)

     General routines
     calbec       :      0.04s CPU      0.04s WALL (     292 calls)
     fft          :      0.03s CPU      0.04s WALL (      93 calls)
     ffts         :      0.00s CPU      0.00s WALL (       6 calls)
     fftw         :      0.59s CPU      0.63s WALL (    3042 calls)

     Parallel routines
     fft_scatt_xy :      0.05s CPU      0.05s WALL (    3141 calls)
     fft_scatt_yz :      0.15s CPU      0.16s WALL (    3141 calls)

     PWSCF        :     3.00s CPU         3.14s WALL


   This run was terminated on:   0:47:37  27Mar2024            

=------------------------------------------------------------------------------=
   JOB DONE.
=------------------------------------------------------------------------------=
