
     Program PWSCF v.6.3MaX starts on 27Mar2024 at  0:48:33 

     This program is part of the open-source Quantum ESPRESSO suite
     for quantum simulation of materials; please cite
         "P. Giannozzi et al., J. Phys.:Condens. Matter 21 395502 (2009);
         "P. Giannozzi et al., J. Phys.:Condens. Matter 29 465901 (2017);
          URL http://www.quantum-espresso.org", 
     in publications or presentations arising from this work. More details at
     http://www.quantum-espresso.org/quote

     Parallel version (MPI), running on     5 processors

     MPI processes distributed on     1 nodes
     R & G space division:  proc/nbgrp/npool/nimage =       5
     Waiting for input...
     Reading input from standard input

     Current dimensions of program PWSCF are:
     Max number of different atomic species (ntypx) = 10
     Max number of k-points (npk) =  40000
     Max angular momentum in pseudopotentials (lmaxx) =  3

     Subspace diagonalization in iterative solution of the eigenvalue problem:
     a serial algorithm will be used


     Parallelization info
     --------------------
     sticks:   dense  smooth     PW     G-vecs:    dense   smooth      PW
     Min         153     153     48                 2863     2863     484
     Max         154     154     49                 2867     2867     485
     Sum         769     769    241                14331    14331    2421



     bravais-lattice index     =            2
     lattice parameter (alat)  =       7.7200  a.u.
     unit-cell volume          =     115.0249 (a.u.)^3
     number of atoms/cell      =            1
     number of atomic types    =            1
     number of electrons       =        11.00
     number of Kohn-Sham states=           10
     kinetic-energy cutoff     =      95.0000  Ry
     charge density cutoff     =     380.0000  Ry
     convergence threshold     =      1.0E-08
     mixing beta               =       0.7000
     number of iterations used =            8  plain     mixing
     Exchange-correlation      = PBESOL ( 1  4 10  8 0 0)

     celldm(1)=   7.720000  celldm(2)=   0.000000  celldm(3)=   0.000000
     celldm(4)=   0.000000  celldm(5)=   0.000000  celldm(6)=   0.000000

     crystal axes: (cart. coord. in units of alat)
               a(1) = (  -0.500000   0.000000   0.500000 )  
               a(2) = (   0.000000   0.500000   0.500000 )  
               a(3) = (  -0.500000   0.500000   0.000000 )  

     reciprocal axes: (cart. coord. in units 2 pi/alat)
               b(1) = ( -1.000000 -1.000000  1.000000 )  
               b(2) = (  1.000000  1.000000  1.000000 )  
               b(3) = ( -1.000000  1.000000 -1.000000 )  


     PseudoPot. # 1 for Ag read from file:
     /home/lorenzo/pseudos/Ag/Ag.pbesol-n-rrkjus_psl.1.0.0.UPF
     MD5 check sum: 3b43e8aa747a56f565f44d11355b8b45
     Pseudo is Ultrasoft + core correction, Zval = 11.0
     Generated using "atomic" code by A. Dal Corso v.6.2.2
     Using radial grid of 1237 points,  6 beta functions with: 
                l(1) =   0
                l(2) =   0
                l(3) =   1
                l(4) =   1
                l(5) =   2
                l(6) =   2
     Q(r) pseudized with 0 coefficients 


     atomic species   valence    mass     pseudopotential
        Ag            11.00   107.86820     Ag( 1.00)

     48 Sym. Ops., with inversion, found



   Cartesian axes

     site n.     atom                  positions (alat units)
         1           Ag  tau(   1) = (   0.0000000   0.0000000   0.0000000  )

     number of k points=    20  gaussian smearing, width (Ry)=  0.0100
                       cart. coord. in units 2pi/alat
        k(    1) = (   0.0000000   0.0000000   0.0000000), wk =   0.0058309
        k(    2) = (  -0.1428571   0.1428571  -0.1428571), wk =   0.0466472
        k(    3) = (  -0.2857143   0.2857143  -0.2857143), wk =   0.0466472
        k(    4) = (  -0.4285714   0.4285714  -0.4285714), wk =   0.0466472
        k(    5) = (   0.0000000   0.2857143   0.0000000), wk =   0.0349854
        k(    6) = (  -0.1428571   0.4285714  -0.1428571), wk =   0.1399417
        k(    7) = (  -0.2857143   0.5714286  -0.2857143), wk =   0.1399417
        k(    8) = (   0.5714286  -0.2857143   0.5714286), wk =   0.1399417
        k(    9) = (   0.4285714  -0.1428571   0.4285714), wk =   0.1399417
        k(   10) = (   0.2857143  -0.0000000   0.2857143), wk =   0.0699708
        k(   11) = (   0.0000000   0.5714286   0.0000000), wk =   0.0349854
        k(   12) = (  -0.1428571   0.7142857  -0.1428571), wk =   0.1399417
        k(   13) = (   0.7142857  -0.1428571   0.7142857), wk =   0.1399417
        k(   14) = (   0.5714286   0.0000000   0.5714286), wk =   0.0699708
        k(   15) = (   0.0000000   0.8571429   0.0000000), wk =   0.0349854
        k(   16) = (   0.8571429  -0.0000000   0.8571429), wk =   0.0699708
        k(   17) = (  -0.2857143   0.5714286   0.0000000), wk =   0.1399417
        k(   18) = (   0.5714286  -0.2857143   0.8571429), wk =   0.2798834
        k(   19) = (   0.7142857  -0.1428571   1.0000000), wk =   0.1399417
        k(   20) = (   0.5714286   0.0000000   0.8571429), wk =   0.1399417

     Dense  grid:    14331 G-vectors     FFT dimensions: (  36,  36,  36)

     Estimated max dynamical RAM per process >      13.87 MB

     Estimated total dynamical RAM >      69.34 MB

     Initial potential from superposition of free atoms

     starting charge   10.99964, renormalised to   11.00000
     Starting wfcs are    9 randomized atomic wfcs +    1 random wfcs

     total cpu time spent up to now is        1.2 secs

     Self-consistent Calculation

     iteration #  1     ecut=    95.00 Ry     beta= 0.70
     Davidson diagonalization with overlap
     ethr =  1.00E-02,  avg # of iterations =  4.5

     Threshold (ethr) on eigenvalues was too large:
     Diagonalizing with lowered threshold

     Davidson diagonalization with overlap
     ethr =  4.15E-05,  avg # of iterations =  2.8

     total cpu time spent up to now is        2.0 secs

     total energy              =     -84.18434365 Ry
     Harris-Foulkes estimate   =     -84.18755348 Ry
     estimated scf accuracy    <       0.00496457 Ry

     iteration #  2     ecut=    95.00 Ry     beta= 0.70
     Davidson diagonalization with overlap
     ethr =  4.51E-05,  avg # of iterations =  2.0

     total cpu time spent up to now is        2.4 secs

     total energy              =     -84.18549991 Ry
     Harris-Foulkes estimate   =     -84.18734623 Ry
     estimated scf accuracy    <       0.00343134 Ry

     iteration #  3     ecut=    95.00 Ry     beta= 0.70
     Davidson diagonalization with overlap
     ethr =  3.12E-05,  avg # of iterations =  2.0

     total cpu time spent up to now is        2.7 secs

     total energy              =     -84.18625965 Ry
     Harris-Foulkes estimate   =     -84.18626200 Ry
     estimated scf accuracy    <       0.00002573 Ry

     iteration #  4     ecut=    95.00 Ry     beta= 0.70
     Davidson diagonalization with overlap
     ethr =  2.34E-07,  avg # of iterations =  2.6

     total cpu time spent up to now is        3.1 secs

     total energy              =     -84.18626771 Ry
     Harris-Foulkes estimate   =     -84.18626767 Ry
     estimated scf accuracy    <       0.00000040 Ry

     iteration #  5     ecut=    95.00 Ry     beta= 0.70
     Davidson diagonalization with overlap
     ethr =  3.68E-09,  avg # of iterations =  2.2

     total cpu time spent up to now is        3.5 secs

     total energy              =     -84.18626781 Ry
     Harris-Foulkes estimate   =     -84.18626783 Ry
     estimated scf accuracy    <       0.00000004 Ry

     iteration #  6     ecut=    95.00 Ry     beta= 0.70
     Davidson diagonalization with overlap
     ethr =  3.85E-10,  avg # of iterations =  2.1

     total cpu time spent up to now is        3.8 secs

     End of self-consistent calculation

          k = 0.0000 0.0000 0.0000 (  1807 PWs)   bands (ev):

     4.8086   7.9240   7.9240   7.9240   8.9730   8.9730  29.5471  32.8316
    32.8316  32.8316

          k =-0.1429 0.1429-0.1429 (  1814 PWs)   bands (ev):

     5.4142   7.8193   8.0709   8.0709   8.9382   8.9382  27.9974  30.3630
    32.7623  32.7623

          k =-0.2857 0.2857-0.2857 (  1823 PWs)   bands (ev):

     6.3522   8.0961   8.0961   8.5183   9.2213   9.2213  22.4406  29.6925
    32.1153  32.1153

          k =-0.4286 0.4286-0.4286 (  1808 PWs)   bands (ev):

     6.3145   7.9292   7.9292   9.6996   9.6996  11.2809  17.4381  28.7356
    31.0247  31.0247

          k = 0.0000 0.2857 0.0000 (  1808 PWs)   bands (ev):

     5.6188   7.6092   8.2323   8.2323   8.6934   9.1127  29.5758  30.3882
    30.3882  30.6536

          k =-0.1429 0.4286-0.1429 (  1810 PWs)   bands (ev):

     6.5758   7.4862   8.1585   8.4246   9.2619   9.3645  24.7018  28.8607
    29.4065  31.3335

          k =-0.2857 0.5714-0.2857 (  1797 PWs)   bands (ev):

     6.6555   7.7875   8.2874   8.4183   9.7605  11.5228  19.2706  27.8380
    28.3778  29.7724

          k = 0.5714-0.2857 0.5714 (  1791 PWs)   bands (ev):

     6.6262   7.7086   8.1792   8.9079   9.6757  13.4888  16.5917  26.3697
    29.4361  29.4425

          k = 0.4286-0.1429 0.4286 (  1815 PWs)   bands (ev):

     6.8020   7.8593   8.2822   8.3347   9.0716  10.8856  21.0524  26.0066
    30.5275  32.1572

          k = 0.2857-0.0000 0.2857 (  1803 PWs)   bands (ev):

     6.2803   7.5925   8.1995   8.3283   8.6628   9.4371  26.4993  26.7796
    32.7634  33.1354

          k = 0.0000 0.5714 0.0000 (  1808 PWs)   bands (ev):

     6.7199   6.9537   9.0386   9.0386   9.4007   9.4362  26.4595  26.4595
    27.0984  29.6597

          k =-0.1429 0.7143-0.1429 (  1793 PWs)   bands (ev):

     6.6838   6.9314   8.8113   9.0826   9.8006  12.0000  21.9633  24.1438
    25.4840  29.6806

          k = 0.7143-0.1429 0.7143 (  1802 PWs)   bands (ev):

     6.8148   7.3464   8.3749   8.8875   9.7312  15.7590  17.3496  21.9283
    26.3631  29.5398

          k = 0.5714 0.0000 0.5714 (  1800 PWs)   bands (ev):

     7.2182   7.7510   7.8438   8.6910   9.2171  13.5746  20.3974  21.0651
    28.8906  29.8352

          k = 0.0000 0.8571 0.0000 (  1764 PWs)   bands (ev):

     6.3363   6.4712   9.7061   9.8529   9.8529  13.0283  20.8995  23.8262
    23.8262  29.7380

          k = 0.8571-0.0000 0.8571 (  1790 PWs)   bands (ev):

     6.4351   6.6394   9.3740   9.5336   9.8949  15.2786  19.4233  20.9356
    24.1671  29.7090

          k =-0.2857 0.5714 0.0000 (  1809 PWs)   bands (ev):

     7.2126   7.2246   7.9187   9.0320   9.0942  11.0610  23.5289  23.7383
    27.6234  32.9176

          k = 0.5714-0.2857 0.8571 (  1786 PWs)   bands (ev):

     7.0994   7.4290   8.0149   8.7696   9.6305  14.0493  18.4997  23.7430
    25.2558  32.3401

          k = 0.7143-0.1429 1.0000 (  1807 PWs)   bands (ev):

     6.7546   6.8627   8.6151   9.3801   9.8491  14.6864  21.0558  21.5825
    22.1369  32.4058

          k = 0.5714 0.0000 0.8571 (  1793 PWs)   bands (ev):

     7.0040   7.3705   7.9816   9.0032   9.8429  17.4453  18.0812  20.0291
    23.0502  33.0268

     the Fermi energy is    13.0081 ev

!    total energy              =     -84.18626782 Ry
     Harris-Foulkes estimate   =     -84.18626782 Ry
     estimated scf accuracy    <          6.4E-10 Ry

     The total energy is the sum of the following terms:

     one-electron contribution =      -4.74569716 Ry
     hartree contribution      =      14.56171056 Ry
     xc contribution           =     -22.14100451 Ry
     ewald contribution        =     -71.86118018 Ry
     smearing contrib. (-TS)   =      -0.00009653 Ry

     convergence has been achieved in   6 iterations

     Forces acting on atoms (cartesian axes, Ry/au):

     atom    1 type  1   force =     0.00000000    0.00000000    0.00000000

     Total force =     0.000000     Total SCF correction =     0.000000


     Computing stress (Cartesian axis) and pressure

          total   stress  (Ry/bohr**3)                   (kbar)     P=  -25.22
  -0.00017146  -0.00000000  -0.00000000        -25.22     -0.00     -0.00
  -0.00000000  -0.00017146   0.00000000         -0.00    -25.22      0.00
  -0.00000000   0.00000000  -0.00017146         -0.00      0.00    -25.22


     Writing output data file Ag.save/

     init_run     :      0.35s CPU      0.37s WALL (       1 calls)
     electrons    :      2.52s CPU      2.67s WALL (       1 calls)
     forces       :      0.07s CPU      0.07s WALL (       1 calls)
     stress       :      0.20s CPU      0.20s WALL (       1 calls)

     Called by init_run:
     wfcinit      :      0.11s CPU      0.11s WALL (       1 calls)
     potinit      :      0.02s CPU      0.02s WALL (       1 calls)
     hinit0       :      0.20s CPU      0.21s WALL (       1 calls)

     Called by electrons:
     c_bands      :      1.93s CPU      2.04s WALL (       7 calls)
     sum_band     :      0.45s CPU      0.47s WALL (       7 calls)
     v_of_rho     :      0.06s CPU      0.07s WALL (       7 calls)
     newd         :      0.09s CPU      0.09s WALL (       7 calls)
     mix_rho      :      0.00s CPU      0.00s WALL (       7 calls)

     Called by c_bands:
     init_us_2    :      0.07s CPU      0.07s WALL (     340 calls)
     cegterg      :      1.85s CPU      1.95s WALL (     140 calls)

     Called by sum_band:
     sum_band:bec :      0.00s CPU      0.00s WALL (     140 calls)
     addusdens    :      0.10s CPU      0.10s WALL (       7 calls)

     Called by *egterg:
     h_psi        :      1.57s CPU      1.67s WALL (     522 calls)
     s_psi        :      0.05s CPU      0.05s WALL (     522 calls)
     g_psi        :      0.00s CPU      0.00s WALL (     362 calls)
     cdiaghg      :      0.10s CPU      0.10s WALL (     482 calls)

     Called by h_psi:
     h_psi:pot    :      1.56s CPU      1.66s WALL (     522 calls)
     h_psi:calbec :      0.07s CPU      0.07s WALL (     522 calls)
     vloc_psi     :      1.44s CPU      1.53s WALL (     522 calls)
     add_vuspsi   :      0.05s CPU      0.05s WALL (     522 calls)

     General routines
     calbec       :      0.11s CPU      0.12s WALL (     762 calls)
     fft          :      0.03s CPU      0.04s WALL (     104 calls)
     ffts         :      0.00s CPU      0.00s WALL (       7 calls)
     fftw         :      1.60s CPU      1.71s WALL (    8690 calls)

     Parallel routines
     fft_scatt_xy :      0.14s CPU      0.15s WALL (    8801 calls)
     fft_scatt_yz :      0.36s CPU      0.39s WALL (    8801 calls)

     PWSCF        :     3.95s CPU         4.16s WALL


   This run was terminated on:   0:48:37  27Mar2024            

=------------------------------------------------------------------------------=
   JOB DONE.
=------------------------------------------------------------------------------=
