
     Program PWSCF v.6.3MaX starts on 27Mar2024 at  0: 5: 5 

     This program is part of the open-source Quantum ESPRESSO suite
     for quantum simulation of materials; please cite
         "P. Giannozzi et al., J. Phys.:Condens. Matter 21 395502 (2009);
         "P. Giannozzi et al., J. Phys.:Condens. Matter 29 465901 (2017);
          URL http://www.quantum-espresso.org", 
     in publications or presentations arising from this work. More details at
     http://www.quantum-espresso.org/quote

     Parallel version (MPI), running on     5 processors

     MPI processes distributed on     1 nodes
     R & G space division:  proc/nbgrp/npool/nimage =       5
     Waiting for input...
     Reading input from standard input

     Current dimensions of program PWSCF are:
     Max number of different atomic species (ntypx) = 10
     Max number of k-points (npk) =  40000
     Max angular momentum in pseudopotentials (lmaxx) =  3
               file Ag.pbesol-n-kjpaw_psl.1.0.0.UPF: wavefunction(s)  5S 5P renormalized

     Subspace diagonalization in iterative solution of the eigenvalue problem:
     a serial algorithm will be used


     Parallelization info
     --------------------
     sticks:   dense  smooth     PW     G-vecs:    dense   smooth      PW
     Min          17      17      7                  106      106      27
     Max          17      17      8                  107      107      28
     Sum          85      85     37                  531      531     137



     bravais-lattice index     =            2
     lattice parameter (alat)  =       7.7200  a.u.
     unit-cell volume          =     115.0249 (a.u.)^3
     number of atoms/cell      =            1
     number of atomic types    =            1
     number of electrons       =        11.00
     number of Kohn-Sham states=           10
     kinetic-energy cutoff     =      10.0000  Ry
     charge density cutoff     =      40.0000  Ry
     convergence threshold     =      1.0E-08
     mixing beta               =       0.7000
     number of iterations used =            8  plain     mixing
     Exchange-correlation      = SLA PW PSX PSC ( 1  4 10  8 0 0)

     celldm(1)=   7.720000  celldm(2)=   0.000000  celldm(3)=   0.000000
     celldm(4)=   0.000000  celldm(5)=   0.000000  celldm(6)=   0.000000

     crystal axes: (cart. coord. in units of alat)
               a(1) = (  -0.500000   0.000000   0.500000 )  
               a(2) = (   0.000000   0.500000   0.500000 )  
               a(3) = (  -0.500000   0.500000   0.000000 )  

     reciprocal axes: (cart. coord. in units 2 pi/alat)
               b(1) = ( -1.000000 -1.000000  1.000000 )  
               b(2) = (  1.000000  1.000000  1.000000 )  
               b(3) = ( -1.000000  1.000000 -1.000000 )  


     PseudoPot. # 1 for Ag read from file:
     /home/lorenzo/pseudos/Ag/Ag.pbesol-n-kjpaw_psl.1.0.0.UPF
     MD5 check sum: 3b245e14fa22881b2ac493bfd23f605f
     Pseudo is Projector augmented-wave + core cor, Zval = 11.0
     Generated using "atomic" code by A. Dal Corso v.6.2.2
     Shape of augmentation charge: PSQ
     Using radial grid of 1237 points,  6 beta functions with: 
                l(1) =   0
                l(2) =   0
                l(3) =   1
                l(4) =   1
                l(5) =   2
                l(6) =   2
     Q(r) pseudized with 0 coefficients 


     atomic species   valence    mass     pseudopotential
        Ag            11.00   107.86820     Ag( 1.00)

     48 Sym. Ops., with inversion, found



   Cartesian axes

     site n.     atom                  positions (alat units)
         1           Ag  tau(   1) = (   0.0000000   0.0000000   0.0000000  )

     number of k points=     8  gaussian smearing, width (Ry)=  0.0100
                       cart. coord. in units 2pi/alat
        k(    1) = (   0.0000000   0.0000000   0.0000000), wk =   0.0312500
        k(    2) = (  -0.2500000   0.2500000  -0.2500000), wk =   0.2500000
        k(    3) = (   0.5000000  -0.5000000   0.5000000), wk =   0.1250000
        k(    4) = (   0.0000000   0.5000000   0.0000000), wk =   0.1875000
        k(    5) = (   0.7500000  -0.2500000   0.7500000), wk =   0.7500000
        k(    6) = (   0.5000000   0.0000000   0.5000000), wk =   0.3750000
        k(    7) = (   0.0000000  -1.0000000   0.0000000), wk =   0.0937500
        k(    8) = (  -0.5000000  -1.0000000   0.0000000), wk =   0.1875000

     Dense  grid:      531 G-vectors     FFT dimensions: (  12,  12,  12)

     Estimated max dynamical RAM per process >       1.05 MB

     Estimated total dynamical RAM >       5.24 MB

     Initial potential from superposition of free atoms
     Check: negative starting charge=   -0.000249

     starting charge   10.99964, renormalised to   11.00000

     negative rho (up, down):  2.491E-04 0.000E+00
     Starting wfcs are    9 randomized atomic wfcs +    1 random wfcs
     Checking if some PAW data can be deallocated... 

     total cpu time spent up to now is        1.0 secs

     Self-consistent Calculation

     iteration #  1     ecut=    10.00 Ry     beta= 0.70
     Davidson diagonalization with overlap
     ethr =  1.00E-02,  avg # of iterations =  4.6

     total cpu time spent up to now is        1.2 secs

     total energy              =    -335.26001004 Ry
     Harris-Foulkes estimate   =    -343.32801267 Ry
     estimated scf accuracy    <      10.53749426 Ry

     iteration #  2     ecut=    10.00 Ry     beta= 0.70
     Davidson diagonalization with overlap
     ethr =  1.00E-02,  avg # of iterations =  3.0

     total cpu time spent up to now is        1.4 secs

     total energy              =    -337.31620957 Ry
     Harris-Foulkes estimate   =    -337.42540332 Ry
     estimated scf accuracy    <       0.38371847 Ry

     iteration #  3     ecut=    10.00 Ry     beta= 0.70
     Davidson diagonalization with overlap
     ethr =  3.49E-03,  avg # of iterations =  1.0

     total cpu time spent up to now is        1.5 secs

     total energy              =    -337.32062203 Ry
     Harris-Foulkes estimate   =    -337.32579262 Ry
     estimated scf accuracy    <       0.03108528 Ry

     iteration #  4     ecut=    10.00 Ry     beta= 0.70
     Davidson diagonalization with overlap
     ethr =  2.83E-04,  avg # of iterations =  1.0

     total cpu time spent up to now is        1.6 secs

     total energy              =    -337.32119408 Ry
     Harris-Foulkes estimate   =    -337.32119967 Ry
     estimated scf accuracy    <       0.00004849 Ry

     iteration #  5     ecut=    10.00 Ry     beta= 0.70
     Davidson diagonalization with overlap
     ethr =  4.41E-07,  avg # of iterations =  3.1

     total cpu time spent up to now is        1.8 secs

     total energy              =    -337.32124422 Ry
     Harris-Foulkes estimate   =    -337.32124481 Ry
     estimated scf accuracy    <       0.00000082 Ry

     iteration #  6     ecut=    10.00 Ry     beta= 0.70
     Davidson diagonalization with overlap
     ethr =  7.43E-09,  avg # of iterations =  2.1

     total cpu time spent up to now is        1.9 secs

     total energy              =    -337.32124434 Ry
     Harris-Foulkes estimate   =    -337.32124434 Ry
     estimated scf accuracy    <       0.00000002 Ry

     iteration #  7     ecut=    10.00 Ry     beta= 0.70
     Davidson diagonalization with overlap
     ethr =  1.51E-10,  avg # of iterations =  1.8

     total cpu time spent up to now is        2.0 secs

     End of self-consistent calculation

          k = 0.0000 0.0000 0.0000 (    59 PWs)   bands (ev):

     3.1090  11.1329  11.1329  11.1329  14.9232  14.9232  29.6345  29.6345
    29.6345  32.8577

          k =-0.2500 0.2500-0.2500 (    61 PWs)   bands (ev):

     4.8035  11.2495  11.2495  11.9936  13.1336  13.1336  23.5597  28.9062
    28.9062  34.1829

          k = 0.5000-0.5000 0.5000 (    70 PWs)   bands (ev):

     7.1683   8.3556   8.3556   9.9478   9.9478  11.9428  16.3195  26.3955
    26.3955  32.1515

          k = 0.0000 0.5000 0.0000 (    60 PWs)   bands (ev):

     5.4305  10.3776  11.5558  12.7379  12.7379  16.1482  24.2700  26.6128
    26.6128  35.1322

          k = 0.7500-0.2500 0.7500 (    59 PWs)   bands (ev):

     8.2468  11.1097  12.4813  13.2715  15.2203  15.9973  17.2821  24.5257
    25.2928  35.3526

          k = 0.5000 0.0000 0.5000 (    59 PWs)   bands (ev):

     7.1429  11.7067  11.7649  12.5845  14.1569  15.6768  20.0881  24.8816
    27.8838  34.6945

          k = 0.0000-1.0000 0.0000 (    64 PWs)   bands (ev):

     9.1062   9.5191  12.7775  12.7775  13.3065  14.2663  16.0013  21.1841
    21.1841  37.0921

          k =-0.5000-1.0000 0.0000 (    56 PWs)   bands (ev):

    11.5126  11.6629  11.9863  11.9863  15.3271  17.7350  20.6612  20.6612
    24.9777  39.1561

     the Fermi energy is    15.8987 ev

!    total energy              =    -337.32124434 Ry
     Harris-Foulkes estimate   =    -337.32124434 Ry
     estimated scf accuracy    <          2.4E-09 Ry

     total all-electron energy =    -10614.331653 Ry

     The total energy is the sum of the following terms:

     one-electron contribution =      18.46160740 Ry
     hartree contribution      =       3.90628039 Ry
     xc contribution           =     -18.90385369 Ry
     ewald contribution        =     -71.86118018 Ry
     one-center paw contrib.   =    -268.92260407 Ry
     smearing contrib. (-TS)   =      -0.00149419 Ry

     convergence has been achieved in   7 iterations

     Forces acting on atoms (cartesian axes, Ry/au):

     atom    1 type  1   force =     0.00000000    0.00000000    0.00000000

     Total force =     0.000000     Total SCF correction =     0.000000


     Computing stress (Cartesian axis) and pressure

          total   stress  (Ry/bohr**3)                   (kbar)     P=********
  -0.10742054   0.00000000   0.00000000     -15802.10      0.00      0.00
   0.00000000  -0.10742054  -0.00000000          0.00 -15802.10     -0.00
   0.00000000  -0.00000000  -0.10742054          0.00     -0.00 -15802.10


     Writing output data file Ag.save/

     init_run     :      0.19s CPU      0.21s WALL (       1 calls)
     electrons    :      0.87s CPU      1.00s WALL (       1 calls)
     forces       :      0.01s CPU      0.01s WALL (       1 calls)
     stress       :      0.01s CPU      0.01s WALL (       1 calls)

     Called by init_run:
     wfcinit      :      0.00s CPU      0.01s WALL (       1 calls)
     potinit      :      0.11s CPU      0.13s WALL (       1 calls)
     hinit0       :      0.06s CPU      0.06s WALL (       1 calls)

     Called by electrons:
     c_bands      :      0.13s CPU      0.15s WALL (       7 calls)
     sum_band     :      0.02s CPU      0.03s WALL (       7 calls)
     v_of_rho     :      0.00s CPU      0.00s WALL (       8 calls)
     newd         :      0.01s CPU      0.01s WALL (       8 calls)
     PAW_pot      :      0.81s CPU      0.92s WALL (       8 calls)
     mix_rho      :      0.00s CPU      0.00s WALL (       7 calls)

     Called by c_bands:
     init_us_2    :      0.00s CPU      0.00s WALL (     136 calls)
     cegterg      :      0.12s CPU      0.14s WALL (      56 calls)

     Called by sum_band:
     sum_band:bec :      0.00s CPU      0.00s WALL (      56 calls)
     addusdens    :      0.00s CPU      0.00s WALL (       7 calls)

     Called by *egterg:
     h_psi        :      0.07s CPU      0.08s WALL (     197 calls)
     s_psi        :      0.00s CPU      0.00s WALL (     197 calls)
     g_psi        :      0.00s CPU      0.00s WALL (     133 calls)
     cdiaghg      :      0.04s CPU      0.04s WALL (     189 calls)

     Called by h_psi:
     h_psi:pot    :      0.06s CPU      0.08s WALL (     197 calls)
     h_psi:calbec :      0.00s CPU      0.00s WALL (     197 calls)
     vloc_psi     :      0.06s CPU      0.07s WALL (     197 calls)
     add_vuspsi   :      0.00s CPU      0.00s WALL (     197 calls)

     General routines
     calbec       :      0.01s CPU      0.01s WALL (     293 calls)
     fft          :      0.00s CPU      0.00s WALL (     114 calls)
     ffts         :      0.00s CPU      0.00s WALL (       7 calls)
     fftw         :      0.06s CPU      0.07s WALL (    3556 calls)

     Parallel routines
     fft_scatt_xy :      0.01s CPU      0.01s WALL (    3677 calls)
     fft_scatt_yz :      0.03s CPU      0.04s WALL (    3677 calls)

     PWSCF        :     1.91s CPU         2.12s WALL


   This run was terminated on:   0: 5: 7  27Mar2024            

=------------------------------------------------------------------------------=
   JOB DONE.
=------------------------------------------------------------------------------=
