
     Program PWSCF v.6.3MaX starts on 27Mar2024 at  0:15:14 

     This program is part of the open-source Quantum ESPRESSO suite
     for quantum simulation of materials; please cite
         "P. Giannozzi et al., J. Phys.:Condens. Matter 21 395502 (2009);
         "P. Giannozzi et al., J. Phys.:Condens. Matter 29 465901 (2017);
          URL http://www.quantum-espresso.org", 
     in publications or presentations arising from this work. More details at
     http://www.quantum-espresso.org/quote

     Parallel version (MPI), running on     5 processors

     MPI processes distributed on     1 nodes
     R & G space division:  proc/nbgrp/npool/nimage =       5
     Waiting for input...
     Reading input from standard input

     Current dimensions of program PWSCF are:
     Max number of different atomic species (ntypx) = 10
     Max number of k-points (npk) =  40000
     Max angular momentum in pseudopotentials (lmaxx) =  3
               file Ag.pbe-n-kjpaw_psl.1.0.0.UPF: wavefunction(s)  5S 5P renormalized

     Subspace diagonalization in iterative solution of the eigenvalue problem:
     a serial algorithm will be used


     Parallelization info
     --------------------
     sticks:   dense  smooth     PW     G-vecs:    dense   smooth      PW
     Min          58      58     19                  643      643     128
     Max          60      60     20                  643      643     130
     Sum         295     295     97                 3215     3215     645



     bravais-lattice index     =            2
     lattice parameter (alat)  =       7.7200  a.u.
     unit-cell volume          =     115.0249 (a.u.)^3
     number of atoms/cell      =            1
     number of atomic types    =            1
     number of electrons       =        11.00
     number of Kohn-Sham states=           10
     kinetic-energy cutoff     =      35.0000  Ry
     charge density cutoff     =     140.0000  Ry
     convergence threshold     =      1.0E-08
     mixing beta               =       0.7000
     number of iterations used =            8  plain     mixing
     Exchange-correlation      = SLA PW PBX PBC ( 1  4  3  4 0 0)

     celldm(1)=   7.720000  celldm(2)=   0.000000  celldm(3)=   0.000000
     celldm(4)=   0.000000  celldm(5)=   0.000000  celldm(6)=   0.000000

     crystal axes: (cart. coord. in units of alat)
               a(1) = (  -0.500000   0.000000   0.500000 )  
               a(2) = (   0.000000   0.500000   0.500000 )  
               a(3) = (  -0.500000   0.500000   0.000000 )  

     reciprocal axes: (cart. coord. in units 2 pi/alat)
               b(1) = ( -1.000000 -1.000000  1.000000 )  
               b(2) = (  1.000000  1.000000  1.000000 )  
               b(3) = ( -1.000000  1.000000 -1.000000 )  


     PseudoPot. # 1 for Ag read from file:
     /home/lorenzo/pseudos/Ag/Ag.pbe-n-kjpaw_psl.1.0.0.UPF
     MD5 check sum: 51099775af2a3182a6a1caffb86952a3
     Pseudo is Projector augmented-wave + core cor, Zval = 11.0
     Generated using "atomic" code by A. Dal Corso v.6.2.2
     Shape of augmentation charge: PSQ
     Using radial grid of 1237 points,  6 beta functions with: 
                l(1) =   0
                l(2) =   0
                l(3) =   1
                l(4) =   1
                l(5) =   2
                l(6) =   2
     Q(r) pseudized with 0 coefficients 


     atomic species   valence    mass     pseudopotential
        Ag            11.00   107.86820     Ag( 1.00)

     48 Sym. Ops., with inversion, found



   Cartesian axes

     site n.     atom                  positions (alat units)
         1           Ag  tau(   1) = (   0.0000000   0.0000000   0.0000000  )

     number of k points=    16  gaussian smearing, width (Ry)=  0.0100
                       cart. coord. in units 2pi/alat
        k(    1) = (   0.0000000   0.0000000   0.0000000), wk =   0.0092593
        k(    2) = (  -0.1666667   0.1666667  -0.1666667), wk =   0.0740741
        k(    3) = (  -0.3333333   0.3333333  -0.3333333), wk =   0.0740741
        k(    4) = (   0.5000000  -0.5000000   0.5000000), wk =   0.0370370
        k(    5) = (   0.0000000   0.3333333   0.0000000), wk =   0.0555556
        k(    6) = (  -0.1666667   0.5000000  -0.1666667), wk =   0.2222222
        k(    7) = (   0.6666667  -0.3333333   0.6666667), wk =   0.2222222
        k(    8) = (   0.5000000  -0.1666667   0.5000000), wk =   0.2222222
        k(    9) = (   0.3333333   0.0000000   0.3333333), wk =   0.1111111
        k(   10) = (   0.0000000   0.6666667   0.0000000), wk =   0.0555556
        k(   11) = (   0.8333333  -0.1666667   0.8333333), wk =   0.2222222
        k(   12) = (   0.6666667  -0.0000000   0.6666667), wk =   0.1111111
        k(   13) = (   0.0000000  -1.0000000   0.0000000), wk =   0.0277778
        k(   14) = (   0.6666667  -0.3333333   1.0000000), wk =   0.2222222
        k(   15) = (   0.5000000  -0.1666667   0.8333333), wk =   0.2222222
        k(   16) = (  -0.3333333  -1.0000000   0.0000000), wk =   0.1111111

     Dense  grid:     3215 G-vectors     FFT dimensions: (  24,  24,  24)

     Estimated max dynamical RAM per process >       3.83 MB

     Estimated total dynamical RAM >      19.17 MB

     Initial potential from superposition of free atoms

     starting charge   10.99960, renormalised to   11.00000
     Starting wfcs are    9 randomized atomic wfcs +    1 random wfcs
     Checking if some PAW data can be deallocated... 

     total cpu time spent up to now is        1.2 secs

     Self-consistent Calculation

     iteration #  1     ecut=    35.00 Ry     beta= 0.70
     Davidson diagonalization with overlap
     ethr =  1.00E-02,  avg # of iterations =  4.8

     Threshold (ethr) on eigenvalues was too large:
     Diagonalizing with lowered threshold

     Davidson diagonalization with overlap
     ethr =  3.38E-05,  avg # of iterations =  2.8

     total cpu time spent up to now is        1.6 secs

     total energy              =    -355.28318540 Ry
     Harris-Foulkes estimate   =    -355.28548164 Ry
     estimated scf accuracy    <       0.00407802 Ry

     iteration #  2     ecut=    35.00 Ry     beta= 0.70
     Davidson diagonalization with overlap
     ethr =  3.71E-05,  avg # of iterations =  2.0

     total cpu time spent up to now is        1.8 secs

     total energy              =    -355.28446080 Ry
     Harris-Foulkes estimate   =    -355.28590884 Ry
     estimated scf accuracy    <       0.00316158 Ry

     iteration #  3     ecut=    35.00 Ry     beta= 0.70
     Davidson diagonalization with overlap
     ethr =  2.87E-05,  avg # of iterations =  1.8

     total cpu time spent up to now is        2.0 secs

     total energy              =    -355.28506407 Ry
     Harris-Foulkes estimate   =    -355.28502910 Ry
     estimated scf accuracy    <       0.00001601 Ry

     iteration #  4     ecut=    35.00 Ry     beta= 0.70
     Davidson diagonalization with overlap
     ethr =  1.46E-07,  avg # of iterations =  2.9

     total cpu time spent up to now is        2.3 secs

     total energy              =    -355.28507255 Ry
     Harris-Foulkes estimate   =    -355.28507236 Ry
     estimated scf accuracy    <       0.00000046 Ry

     iteration #  5     ecut=    35.00 Ry     beta= 0.70
     Davidson diagonalization with overlap
     ethr =  4.21E-09,  avg # of iterations =  1.0

     total cpu time spent up to now is        2.5 secs

     total energy              =    -355.28507256 Ry
     Harris-Foulkes estimate   =    -355.28507257 Ry
     estimated scf accuracy    <       0.00000004 Ry

     iteration #  6     ecut=    35.00 Ry     beta= 0.70
     Davidson diagonalization with overlap
     ethr =  3.94E-10,  avg # of iterations =  2.6

     total cpu time spent up to now is        2.7 secs

     End of self-consistent calculation

          k = 0.0000 0.0000 0.0000 (   411 PWs)   bands (ev):

     5.0645   8.0747   8.0747   8.0747   9.1091   9.1091  29.8056  33.0872
    33.0872  33.0872

          k =-0.1667 0.1667-0.1667 (   396 PWs)   bands (ev):

     5.8601   7.9731   8.2560   8.2560   9.0964   9.0964  27.3642  30.5601
    32.9678  32.9678

          k =-0.3333 0.3333-0.3333 (   401 PWs)   bands (ev):

     6.5821   8.1928   8.1928   9.5251   9.5384   9.5384  20.8576  29.5679
    31.9780  31.9780

          k = 0.5000-0.5000 0.5000 (   410 PWs)   bands (ev):

     6.4703   8.0521   8.0521   9.9044   9.9044  12.4457  16.4722  28.8450
    31.0911  31.0911

          k = 0.0000 0.3333 0.0000 (   399 PWs)   bands (ev):

     6.1300   7.6666   8.4940   8.4940   8.7882   9.2995  29.8368  29.9762
    29.9762  30.4943

          k =-0.1667 0.5000-0.1667 (   398 PWs)   bands (ev):

     6.9672   7.6821   8.2712   8.6593   9.6648  10.0528  23.4925  28.3082
    28.9489  30.5731

          k = 0.6667-0.3333 0.6667 (   403 PWs)   bands (ev):

     6.8734   7.8199   8.4708   8.7327   9.9350  13.4492  17.5929  26.5706
    28.4194  29.6732

          k = 0.5000-0.1667 0.5000 (   404 PWs)   bands (ev):

     7.0246   7.9033   8.4526   8.6779   9.4348  12.3423  19.4393  25.3736
    30.1911  30.8214

          k = 0.3333 0.0000 0.3333 (   397 PWs)   bands (ev):

     6.9000   7.6999   8.3248   8.6146   8.7571   9.9452  25.6075  25.9531
    32.5263  33.6432

          k = 0.0000 0.6667 0.0000 (   419 PWs)   bands (ev):

     6.8101   6.9170   9.4817   9.4817   9.6759  10.6696  25.1780  25.6080
    25.6080  29.9295

          k = 0.8333-0.1667 0.8333 (   411 PWs)   bands (ev):

     6.7509   7.0015   9.1567   9.3996  10.0014  14.1512  20.7495  22.0074
    25.1147  29.8980

          k = 0.6667-0.0000 0.6667 (   403 PWs)   bands (ev):

     7.1116   7.6904   8.3045   9.0701   9.6335  16.0275  18.6962  20.4283
    27.2087  29.8555

          k = 0.0000-1.0000 0.0000 (   388 PWs)   bands (ev):

     6.4398   6.5855   9.8897  10.1229  10.1229  14.4718  19.6143  23.7099
    23.7099  30.0149

          k = 0.6667-0.3333 1.0000 (   407 PWs)   bands (ev):

     7.3433   7.4185   8.0700   9.3106   9.4718  12.6677  22.5059  22.5312
    25.9159  33.7469

          k = 0.5000-0.1667 0.8333 (   400 PWs)   bands (ev):

     7.4042   7.4599   8.1128   8.9912   9.8770  16.5393  17.2797  23.1316
    23.7543  33.2487

          k =-0.3333-1.0000 0.0000 (   398 PWs)   bands (ev):

     6.9483   7.1267   8.6849   9.3698  10.1206  16.8478  19.7857  20.9289
    21.6503  33.3314

     the Fermi energy is    12.6986 ev

!    total energy              =    -355.28507257 Ry
     Harris-Foulkes estimate   =    -355.28507257 Ry
     estimated scf accuracy    <          1.5E-10 Ry

     total all-electron energy =    -10632.251126 Ry

     The total energy is the sum of the following terms:

     one-electron contribution =       1.58716908 Ry
     hartree contribution      =      14.64905410 Ry
     xc contribution           =     -22.35104147 Ry
     ewald contribution        =     -71.86118026 Ry
     one-center paw contrib.   =    -277.30847462 Ry
     smearing contrib. (-TS)   =      -0.00059939 Ry

     convergence has been achieved in   6 iterations

     Forces acting on atoms (cartesian axes, Ry/au):

     atom    1 type  1   force =     0.00000000    0.00000000    0.00000000

     Total force =     0.000000     Total SCF correction =     0.000000


     Computing stress (Cartesian axis) and pressure

          total   stress  (Ry/bohr**3)                   (kbar)     P= -101.01
  -0.00068662  -0.00000000  -0.00000000       -101.01     -0.00     -0.00
  -0.00000000  -0.00068662   0.00000000         -0.00   -101.01      0.00
  -0.00000000   0.00000000  -0.00068662         -0.00      0.00   -101.01


     Writing output data file Ag.save/

     init_run     :      0.28s CPU      0.30s WALL (       1 calls)
     electrons    :      1.40s CPU      1.55s WALL (       1 calls)
     forces       :      0.03s CPU      0.03s WALL (       1 calls)
     stress       :      0.06s CPU      0.06s WALL (       1 calls)

     Called by init_run:
     wfcinit      :      0.03s CPU      0.03s WALL (       1 calls)
     potinit      :      0.10s CPU      0.11s WALL (       1 calls)
     hinit0       :      0.12s CPU      0.12s WALL (       1 calls)

     Called by electrons:
     c_bands      :      0.58s CPU      0.62s WALL (       7 calls)
     sum_band     :      0.14s CPU      0.14s WALL (       7 calls)
     v_of_rho     :      0.03s CPU      0.03s WALL (       7 calls)
     newd         :      0.03s CPU      0.03s WALL (       7 calls)
     PAW_pot      :      0.74s CPU      0.84s WALL (       7 calls)
     mix_rho      :      0.00s CPU      0.00s WALL (       7 calls)

     Called by c_bands:
     init_us_2    :      0.02s CPU      0.02s WALL (     272 calls)
     cegterg      :      0.55s CPU      0.59s WALL (     112 calls)

     Called by sum_band:
     sum_band:bec :      0.00s CPU      0.00s WALL (     112 calls)
     addusdens    :      0.03s CPU      0.03s WALL (       7 calls)

     Called by *egterg:
     h_psi        :      0.42s CPU      0.45s WALL (     413 calls)
     s_psi        :      0.01s CPU      0.01s WALL (     413 calls)
     g_psi        :      0.00s CPU      0.00s WALL (     285 calls)
     cdiaghg      :      0.08s CPU      0.09s WALL (     381 calls)

     Called by h_psi:
     h_psi:pot    :      0.42s CPU      0.45s WALL (     413 calls)
     h_psi:calbec :      0.02s CPU      0.02s WALL (     413 calls)
     vloc_psi     :      0.38s CPU      0.41s WALL (     413 calls)
     add_vuspsi   :      0.01s CPU      0.01s WALL (     413 calls)

     General routines
     calbec       :      0.03s CPU      0.04s WALL (     605 calls)
     fft          :      0.02s CPU      0.02s WALL (     104 calls)
     ffts         :      0.00s CPU      0.00s WALL (       7 calls)
     fftw         :      0.43s CPU      0.46s WALL (    6834 calls)

     Parallel routines
     fft_scatt_xy :      0.04s CPU      0.04s WALL (    6945 calls)
     fft_scatt_yz :      0.14s CPU      0.15s WALL (    6945 calls)

     PWSCF        :     2.68s CPU         2.89s WALL


   This run was terminated on:   0:15:17  27Mar2024            

=------------------------------------------------------------------------------=
   JOB DONE.
=------------------------------------------------------------------------------=
