
     Program PWSCF v.6.3MaX starts on 27Mar2024 at  0:17:33 

     This program is part of the open-source Quantum ESPRESSO suite
     for quantum simulation of materials; please cite
         "P. Giannozzi et al., J. Phys.:Condens. Matter 21 395502 (2009);
         "P. Giannozzi et al., J. Phys.:Condens. Matter 29 465901 (2017);
          URL http://www.quantum-espresso.org", 
     in publications or presentations arising from this work. More details at
     http://www.quantum-espresso.org/quote

     Parallel version (MPI), running on     5 processors

     MPI processes distributed on     1 nodes
     R & G space division:  proc/nbgrp/npool/nimage =       5
     Waiting for input...
     Reading input from standard input

     Current dimensions of program PWSCF are:
     Max number of different atomic species (ntypx) = 10
     Max number of k-points (npk) =  40000
     Max angular momentum in pseudopotentials (lmaxx) =  3
               file Ag.pbesol-n-kjpaw_psl.1.0.0.UPF: wavefunction(s)  5S 5P renormalized

     Subspace diagonalization in iterative solution of the eigenvalue problem:
     a serial algorithm will be used


     Parallelization info
     --------------------
     sticks:   dense  smooth     PW     G-vecs:    dense   smooth      PW
     Min          62      62     21                  765      765     148
     Max          63      63     22                  770      770     151
     Sum         313     313    109                 3839     3839     749



     bravais-lattice index     =            2
     lattice parameter (alat)  =       7.7200  a.u.
     unit-cell volume          =     115.0249 (a.u.)^3
     number of atoms/cell      =            1
     number of atomic types    =            1
     number of electrons       =        11.00
     number of Kohn-Sham states=           10
     kinetic-energy cutoff     =      40.0000  Ry
     charge density cutoff     =     160.0000  Ry
     convergence threshold     =      1.0E-08
     mixing beta               =       0.7000
     number of iterations used =            8  plain     mixing
     Exchange-correlation      = SLA PW PSX PSC ( 1  4 10  8 0 0)

     celldm(1)=   7.720000  celldm(2)=   0.000000  celldm(3)=   0.000000
     celldm(4)=   0.000000  celldm(5)=   0.000000  celldm(6)=   0.000000

     crystal axes: (cart. coord. in units of alat)
               a(1) = (  -0.500000   0.000000   0.500000 )  
               a(2) = (   0.000000   0.500000   0.500000 )  
               a(3) = (  -0.500000   0.500000   0.000000 )  

     reciprocal axes: (cart. coord. in units 2 pi/alat)
               b(1) = ( -1.000000 -1.000000  1.000000 )  
               b(2) = (  1.000000  1.000000  1.000000 )  
               b(3) = ( -1.000000  1.000000 -1.000000 )  


     PseudoPot. # 1 for Ag read from file:
     /home/lorenzo/pseudos/Ag/Ag.pbesol-n-kjpaw_psl.1.0.0.UPF
     MD5 check sum: 3b245e14fa22881b2ac493bfd23f605f
     Pseudo is Projector augmented-wave + core cor, Zval = 11.0
     Generated using "atomic" code by A. Dal Corso v.6.2.2
     Shape of augmentation charge: PSQ
     Using radial grid of 1237 points,  6 beta functions with: 
                l(1) =   0
                l(2) =   0
                l(3) =   1
                l(4) =   1
                l(5) =   2
                l(6) =   2
     Q(r) pseudized with 0 coefficients 


     atomic species   valence    mass     pseudopotential
        Ag            11.00   107.86820     Ag( 1.00)

     48 Sym. Ops., with inversion, found



   Cartesian axes

     site n.     atom                  positions (alat units)
         1           Ag  tau(   1) = (   0.0000000   0.0000000   0.0000000  )

     number of k points=    20  gaussian smearing, width (Ry)=  0.0100
                       cart. coord. in units 2pi/alat
        k(    1) = (   0.0000000   0.0000000   0.0000000), wk =   0.0058309
        k(    2) = (  -0.1428571   0.1428571  -0.1428571), wk =   0.0466472
        k(    3) = (  -0.2857143   0.2857143  -0.2857143), wk =   0.0466472
        k(    4) = (  -0.4285714   0.4285714  -0.4285714), wk =   0.0466472
        k(    5) = (   0.0000000   0.2857143   0.0000000), wk =   0.0349854
        k(    6) = (  -0.1428571   0.4285714  -0.1428571), wk =   0.1399417
        k(    7) = (  -0.2857143   0.5714286  -0.2857143), wk =   0.1399417
        k(    8) = (   0.5714286  -0.2857143   0.5714286), wk =   0.1399417
        k(    9) = (   0.4285714  -0.1428571   0.4285714), wk =   0.1399417
        k(   10) = (   0.2857143  -0.0000000   0.2857143), wk =   0.0699708
        k(   11) = (   0.0000000   0.5714286   0.0000000), wk =   0.0349854
        k(   12) = (  -0.1428571   0.7142857  -0.1428571), wk =   0.1399417
        k(   13) = (   0.7142857  -0.1428571   0.7142857), wk =   0.1399417
        k(   14) = (   0.5714286   0.0000000   0.5714286), wk =   0.0699708
        k(   15) = (   0.0000000   0.8571429   0.0000000), wk =   0.0349854
        k(   16) = (   0.8571429  -0.0000000   0.8571429), wk =   0.0699708
        k(   17) = (  -0.2857143   0.5714286   0.0000000), wk =   0.1399417
        k(   18) = (   0.5714286  -0.2857143   0.8571429), wk =   0.2798834
        k(   19) = (   0.7142857  -0.1428571   1.0000000), wk =   0.1399417
        k(   20) = (   0.5714286   0.0000000   0.8571429), wk =   0.1399417

     Dense  grid:     3839 G-vectors     FFT dimensions: (  24,  24,  24)

     Estimated max dynamical RAM per process >       4.47 MB

     Estimated total dynamical RAM >      22.34 MB

     Initial potential from superposition of free atoms

     starting charge   10.99964, renormalised to   11.00000
     Starting wfcs are    9 randomized atomic wfcs +    1 random wfcs
     Checking if some PAW data can be deallocated... 

     total cpu time spent up to now is        1.9 secs

     Self-consistent Calculation

     iteration #  1     ecut=    40.00 Ry     beta= 0.70
     Davidson diagonalization with overlap
     ethr =  1.00E-02,  avg # of iterations =  4.3

     Threshold (ethr) on eigenvalues was too large:
     Diagonalizing with lowered threshold

     Davidson diagonalization with overlap
     ethr =  4.70E-05,  avg # of iterations =  2.4

     total cpu time spent up to now is        2.3 secs

     total energy              =    -350.23499458 Ry
     Harris-Foulkes estimate   =    -350.23854293 Ry
     estimated scf accuracy    <       0.00557546 Ry

     iteration #  2     ecut=    40.00 Ry     beta= 0.70
     Davidson diagonalization with overlap
     ethr =  5.07E-05,  avg # of iterations =  2.2

     total cpu time spent up to now is        2.6 secs

     total energy              =    -350.23652931 Ry
     Harris-Foulkes estimate   =    -350.23850590 Ry
     estimated scf accuracy    <       0.00406500 Ry

     iteration #  3     ecut=    40.00 Ry     beta= 0.70
     Davidson diagonalization with overlap
     ethr =  3.70E-05,  avg # of iterations =  1.7

     total cpu time spent up to now is        2.8 secs

     total energy              =    -350.23732795 Ry
     Harris-Foulkes estimate   =    -350.23730888 Ry
     estimated scf accuracy    <       0.00001589 Ry

     iteration #  4     ecut=    40.00 Ry     beta= 0.70
     Davidson diagonalization with overlap
     ethr =  1.44E-07,  avg # of iterations =  3.0

     total cpu time spent up to now is        3.0 secs

     total energy              =    -350.23733687 Ry
     Harris-Foulkes estimate   =    -350.23733664 Ry
     estimated scf accuracy    <       0.00000048 Ry

     iteration #  5     ecut=    40.00 Ry     beta= 0.70
     Davidson diagonalization with overlap
     ethr =  4.36E-09,  avg # of iterations =  1.1

     total cpu time spent up to now is        3.2 secs

     End of self-consistent calculation

          k = 0.0000 0.0000 0.0000 (   531 PWs)   bands (ev):

     4.8069   7.9257   7.9257   7.9257   8.9771   8.9771  29.5461  32.8306
    32.8306  37.1535

          k =-0.1429 0.1429-0.1429 (   507 PWs)   bands (ev):

     5.4125   7.8207   8.0727   8.0727   8.9424   8.9424  27.9961  30.3622
    32.7611  32.7611

          k =-0.2857 0.2857-0.2857 (   492 PWs)   bands (ev):

     6.3520   8.0988   8.0988   8.5179   9.2242   9.2242  22.4391  29.6919
    32.1138  32.1138

          k =-0.4286 0.4286-0.4286 (   489 PWs)   bands (ev):

     6.3153   7.9322   7.9322   9.7017   9.7017  11.2792  17.4368  28.7351
    31.0223  31.0223

          k = 0.0000 0.2857 0.0000 (   504 PWs)   bands (ev):

     5.6172   7.6110   8.2339   8.2339   8.6974   9.1170  29.5747  30.3868
    30.3868  30.6536

          k =-0.1429 0.4286-0.1429 (   492 PWs)   bands (ev):

     6.5753   7.4876   8.1613   8.4267   9.2635   9.3678  24.7007  28.8590
    29.4064  31.3329

          k =-0.2857 0.5714-0.2857 (   491 PWs)   bands (ev):

     6.6563   7.7909   8.2903   8.4192   9.7628  11.5224  19.2691  27.8379
    28.3759  29.7710

          k = 0.5714-0.2857 0.5714 (   493 PWs)   bands (ev):

     6.6271   7.7118   8.1823   8.9091   9.6776  13.4875  16.5905  26.3686
    29.4343  29.4414

          k = 0.4286-0.1429 0.4286 (   499 PWs)   bands (ev):

     6.8024   7.8616   8.2853   8.3361   9.0738  10.8859  21.0508  26.0053
    30.5265  32.1560

          k = 0.2857-0.0000 0.2857 (   499 PWs)   bands (ev):

     6.2790   7.5940   8.2019   8.3297   8.6670   9.4398  26.4984  26.7785
    32.7624  33.1345

          k = 0.0000 0.5714 0.0000 (   488 PWs)   bands (ev):

     6.7215   6.9555   9.0396   9.0396   9.4012   9.4403  26.4576  26.4576
    27.0982  29.6596

          k =-0.1429 0.7143-0.1429 (   488 PWs)   bands (ev):

     6.6860   6.9336   8.8119   9.0852   9.8027  11.9992  21.9615  24.1436
    25.4819  29.6801

          k = 0.7143-0.1429 0.7143 (   486 PWs)   bands (ev):

     6.8170   7.3487   8.3756   8.8910   9.7328  15.7575  17.3481  21.9276
    26.3613  29.5397

          k = 0.5714 0.0000 0.5714 (   492 PWs)   bands (ev):

     7.2200   7.7518   7.8461   8.6952   9.2181  13.5737  20.3952  21.0644
    28.8894  29.8346

          k = 0.0000 0.8571 0.0000 (   488 PWs)   bands (ev):

     6.3393   6.4729   9.7098   9.8532   9.8532  13.0264  20.8992  23.8239
    23.8239  29.7376

          k = 0.8571-0.0000 0.8571 (   482 PWs)   bands (ev):

     6.4380   6.6413   9.3743   9.5374   9.8956  15.2762  19.4232  20.9340
    24.1649  29.7096

          k =-0.2857 0.5714 0.0000 (   494 PWs)   bands (ev):

     7.2141   7.2261   7.9208   9.0329   9.0977  11.0611  23.5278  23.7366
    27.6231  32.9162

          k = 0.5714-0.2857 0.8571 (   489 PWs)   bands (ev):

     7.1006   7.4322   8.0159   8.7727   9.6319  14.0482  18.4981  23.7417
    25.2552  32.3387

          k = 0.7143-0.1429 1.0000 (   489 PWs)   bands (ev):

     6.7578   6.8641   8.6161   9.3836   9.8496  14.6848  21.0546  21.5803
    22.1363  32.4046

          k = 0.5714 0.0000 0.8571 (   491 PWs)   bands (ev):

     7.0069   7.3718   7.9825   9.0071   9.8434  17.4436  18.0790  20.0286
    23.0491  33.0258

     the Fermi energy is    13.0062 ev

!    total energy              =    -350.23733690 Ry
     Harris-Foulkes estimate   =    -350.23733690 Ry
     estimated scf accuracy    <          2.7E-09 Ry

     total all-electron energy =    -10627.247746 Ry

     The total energy is the sum of the following terms:

     one-electron contribution =       1.61164349 Ry
     hartree contribution      =      14.56623015 Ry
     xc contribution           =     -22.14190633 Ry
     ewald contribution        =     -71.86118024 Ry
     one-center paw contrib.   =    -272.41202744 Ry
     smearing contrib. (-TS)   =      -0.00009653 Ry

     convergence has been achieved in   5 iterations

     Forces acting on atoms (cartesian axes, Ry/au):

     atom    1 type  1   force =     0.00000000    0.00000000    0.00000000

     Total force =     0.000000     Total SCF correction =     0.000000


     Computing stress (Cartesian axis) and pressure

          total   stress  (Ry/bohr**3)                   (kbar)     P=  -32.14
  -0.00021846  -0.00000000  -0.00000000        -32.14     -0.00     -0.00
  -0.00000000  -0.00021846   0.00000000         -0.00    -32.14      0.00
  -0.00000000   0.00000000  -0.00021846         -0.00      0.00    -32.14


     Writing output data file Ag.save/

     init_run     :      0.27s CPU      0.29s WALL (       1 calls)
     electrons    :      1.18s CPU      1.32s WALL (       1 calls)
     forces       :      0.02s CPU      0.02s WALL (       1 calls)
     stress       :      0.06s CPU      0.06s WALL (       1 calls)

     Called by init_run:
     wfcinit      :      0.04s CPU      0.04s WALL (       1 calls)
     potinit      :      0.09s CPU      0.11s WALL (       1 calls)
     hinit0       :      0.12s CPU      0.12s WALL (       1 calls)

     Called by electrons:
     c_bands      :      0.57s CPU      0.61s WALL (       6 calls)
     sum_band     :      0.12s CPU      0.13s WALL (       6 calls)
     v_of_rho     :      0.02s CPU      0.02s WALL (       6 calls)
     newd         :      0.02s CPU      0.02s WALL (       6 calls)
     PAW_pot      :      0.55s CPU      0.64s WALL (       6 calls)
     mix_rho      :      0.00s CPU      0.00s WALL (       6 calls)

     Called by c_bands:
     init_us_2    :      0.02s CPU      0.02s WALL (     300 calls)
     cegterg      :      0.54s CPU      0.59s WALL (     120 calls)

     Called by sum_band:
     sum_band:bec :      0.00s CPU      0.00s WALL (     120 calls)
     addusdens    :      0.02s CPU      0.02s WALL (       6 calls)

     Called by *egterg:
     h_psi        :      0.42s CPU      0.46s WALL (     434 calls)
     s_psi        :      0.01s CPU      0.01s WALL (     434 calls)
     g_psi        :      0.00s CPU      0.00s WALL (     294 calls)
     cdiaghg      :      0.07s CPU      0.08s WALL (     394 calls)

     Called by h_psi:
     h_psi:pot    :      0.42s CPU      0.45s WALL (     434 calls)
     h_psi:calbec :      0.02s CPU      0.02s WALL (     434 calls)
     vloc_psi     :      0.39s CPU      0.42s WALL (     434 calls)
     add_vuspsi   :      0.01s CPU      0.01s WALL (     434 calls)

     General routines
     calbec       :      0.03s CPU      0.04s WALL (     654 calls)
     fft          :      0.01s CPU      0.01s WALL (      93 calls)
     ffts         :      0.00s CPU      0.00s WALL (       6 calls)
     fftw         :      0.42s CPU      0.46s WALL (    7426 calls)

     Parallel routines
     fft_scatt_xy :      0.04s CPU      0.04s WALL (    7525 calls)
     fft_scatt_yz :      0.12s CPU      0.13s WALL (    7525 calls)

     PWSCF        :     3.18s CPU         3.40s WALL


   This run was terminated on:   0:17:37  27Mar2024            

=------------------------------------------------------------------------------=
   JOB DONE.
=------------------------------------------------------------------------------=
