
     Program PWSCF v.6.3MaX starts on 27Mar2024 at  0:35:41 

     This program is part of the open-source Quantum ESPRESSO suite
     for quantum simulation of materials; please cite
         "P. Giannozzi et al., J. Phys.:Condens. Matter 21 395502 (2009);
         "P. Giannozzi et al., J. Phys.:Condens. Matter 29 465901 (2017);
          URL http://www.quantum-espresso.org", 
     in publications or presentations arising from this work. More details at
     http://www.quantum-espresso.org/quote

     Parallel version (MPI), running on     5 processors

     MPI processes distributed on     1 nodes
     R & G space division:  proc/nbgrp/npool/nimage =       5
     Waiting for input...
     Reading input from standard input

     Current dimensions of program PWSCF are:
     Max number of different atomic species (ntypx) = 10
     Max number of k-points (npk) =  40000
     Max angular momentum in pseudopotentials (lmaxx) =  3
               file Ag.pbesol-n-kjpaw_psl.1.0.0.UPF: wavefunction(s)  5S 5P renormalized

     Subspace diagonalization in iterative solution of the eigenvalue problem:
     a serial algorithm will be used


     Parallelization info
     --------------------
     sticks:   dense  smooth     PW     G-vecs:    dense   smooth      PW
     Min         122     122     39                 2016     2016     361
     Max         123     123     40                 2017     2017     363
     Sum         613     613    199                10081    10081    1807



     bravais-lattice index     =            2
     lattice parameter (alat)  =       7.7200  a.u.
     unit-cell volume          =     115.0249 (a.u.)^3
     number of atoms/cell      =            1
     number of atomic types    =            1
     number of electrons       =        11.00
     number of Kohn-Sham states=           10
     kinetic-energy cutoff     =      75.0000  Ry
     charge density cutoff     =     300.0000  Ry
     convergence threshold     =      1.0E-08
     mixing beta               =       0.7000
     number of iterations used =            8  plain     mixing
     Exchange-correlation      = SLA PW PSX PSC ( 1  4 10  8 0 0)

     celldm(1)=   7.720000  celldm(2)=   0.000000  celldm(3)=   0.000000
     celldm(4)=   0.000000  celldm(5)=   0.000000  celldm(6)=   0.000000

     crystal axes: (cart. coord. in units of alat)
               a(1) = (  -0.500000   0.000000   0.500000 )  
               a(2) = (   0.000000   0.500000   0.500000 )  
               a(3) = (  -0.500000   0.500000   0.000000 )  

     reciprocal axes: (cart. coord. in units 2 pi/alat)
               b(1) = ( -1.000000 -1.000000  1.000000 )  
               b(2) = (  1.000000  1.000000  1.000000 )  
               b(3) = ( -1.000000  1.000000 -1.000000 )  


     PseudoPot. # 1 for Ag read from file:
     /home/lorenzo/pseudos/Ag/Ag.pbesol-n-kjpaw_psl.1.0.0.UPF
     MD5 check sum: 3b245e14fa22881b2ac493bfd23f605f
     Pseudo is Projector augmented-wave + core cor, Zval = 11.0
     Generated using "atomic" code by A. Dal Corso v.6.2.2
     Shape of augmentation charge: PSQ
     Using radial grid of 1237 points,  6 beta functions with: 
                l(1) =   0
                l(2) =   0
                l(3) =   1
                l(4) =   1
                l(5) =   2
                l(6) =   2
     Q(r) pseudized with 0 coefficients 


     atomic species   valence    mass     pseudopotential
        Ag            11.00   107.86820     Ag( 1.00)

     48 Sym. Ops., with inversion, found



   Cartesian axes

     site n.     atom                  positions (alat units)
         1           Ag  tau(   1) = (   0.0000000   0.0000000   0.0000000  )

     number of k points=    35  gaussian smearing, width (Ry)=  0.0100
                       cart. coord. in units 2pi/alat
        k(    1) = (   0.0000000   0.0000000   0.0000000), wk =   0.0027435
        k(    2) = (  -0.1111111   0.1111111  -0.1111111), wk =   0.0219479
        k(    3) = (  -0.2222222   0.2222222  -0.2222222), wk =   0.0219479
        k(    4) = (  -0.3333333   0.3333333  -0.3333333), wk =   0.0219479
        k(    5) = (  -0.4444444   0.4444444  -0.4444444), wk =   0.0219479
        k(    6) = (   0.0000000   0.2222222   0.0000000), wk =   0.0164609
        k(    7) = (  -0.1111111   0.3333333  -0.1111111), wk =   0.0658436
        k(    8) = (  -0.2222222   0.4444444  -0.2222222), wk =   0.0658436
        k(    9) = (  -0.3333333   0.5555556  -0.3333333), wk =   0.0658436
        k(   10) = (   0.5555556  -0.3333333   0.5555556), wk =   0.0658436
        k(   11) = (   0.4444444  -0.2222222   0.4444444), wk =   0.0658436
        k(   12) = (   0.3333333  -0.1111111   0.3333333), wk =   0.0658436
        k(   13) = (   0.2222222  -0.0000000   0.2222222), wk =   0.0329218
        k(   14) = (   0.0000000   0.4444444   0.0000000), wk =   0.0164609
        k(   15) = (  -0.1111111   0.5555556  -0.1111111), wk =   0.0658436
        k(   16) = (  -0.2222222   0.6666667  -0.2222222), wk =   0.0658436
        k(   17) = (   0.6666667  -0.2222222   0.6666667), wk =   0.0658436
        k(   18) = (   0.5555556  -0.1111111   0.5555556), wk =   0.0658436
        k(   19) = (   0.4444444   0.0000000   0.4444444), wk =   0.0329218
        k(   20) = (   0.0000000   0.6666667   0.0000000), wk =   0.0164609
        k(   21) = (  -0.1111111   0.7777778  -0.1111111), wk =   0.0658436
        k(   22) = (   0.7777778  -0.1111111   0.7777778), wk =   0.0658436
        k(   23) = (   0.6666667  -0.0000000   0.6666667), wk =   0.0329218
        k(   24) = (   0.0000000   0.8888889   0.0000000), wk =   0.0164609
        k(   25) = (   0.8888889   0.0000000   0.8888889), wk =   0.0329218
        k(   26) = (  -0.2222222   0.4444444   0.0000000), wk =   0.0658436
        k(   27) = (  -0.3333333   0.5555556  -0.1111111), wk =   0.1316872
        k(   28) = (   0.5555556  -0.3333333   0.7777778), wk =   0.1316872
        k(   29) = (  -0.2222222   0.6666667   0.0000000), wk =   0.0658436
        k(   30) = (   0.6666667  -0.2222222   0.8888889), wk =   0.1316872
        k(   31) = (   0.5555556  -0.1111111   0.7777778), wk =   0.1316872
        k(   32) = (   0.4444444   0.0000000   0.6666667), wk =   0.0658436
        k(   33) = (   0.7777778  -0.1111111   1.0000000), wk =   0.0658436
        k(   34) = (   0.6666667  -0.0000000   0.8888889), wk =   0.0658436
        k(   35) = (   0.5555556  -0.1111111   1.0000000), wk =   0.0658436

     Dense  grid:    10081 G-vectors     FFT dimensions: (  32,  32,  32)

     Estimated max dynamical RAM per process >      10.67 MB

     Estimated total dynamical RAM >      53.37 MB

     Initial potential from superposition of free atoms

     starting charge   10.99964, renormalised to   11.00000
     Starting wfcs are    9 randomized atomic wfcs +    1 random wfcs
     Checking if some PAW data can be deallocated... 

     total cpu time spent up to now is        1.3 secs

     Self-consistent Calculation

     iteration #  1     ecut=    75.00 Ry     beta= 0.70
     Davidson diagonalization with overlap
     ethr =  1.00E-02,  avg # of iterations =  4.8

     Threshold (ethr) on eigenvalues was too large:
     Diagonalizing with lowered threshold

     Davidson diagonalization with overlap
     ethr =  4.72E-05,  avg # of iterations =  2.1

     total cpu time spent up to now is        2.6 secs

     total energy              =    -350.23929975 Ry
     Harris-Foulkes estimate   =    -350.24300071 Ry
     estimated scf accuracy    <       0.00558280 Ry

     iteration #  2     ecut=    75.00 Ry     beta= 0.70
     Davidson diagonalization with overlap
     ethr =  5.08E-05,  avg # of iterations =  2.0

     total cpu time spent up to now is        3.1 secs

     total energy              =    -350.24088958 Ry
     Harris-Foulkes estimate   =    -350.24292893 Ry
     estimated scf accuracy    <       0.00423397 Ry

     iteration #  3     ecut=    75.00 Ry     beta= 0.70
     Davidson diagonalization with overlap
     ethr =  3.85E-05,  avg # of iterations =  1.6

     total cpu time spent up to now is        3.6 secs

     total energy              =    -350.24169992 Ry
     Harris-Foulkes estimate   =    -350.24168315 Ry
     estimated scf accuracy    <       0.00001539 Ry

     iteration #  4     ecut=    75.00 Ry     beta= 0.70
     Davidson diagonalization with overlap
     ethr =  1.40E-07,  avg # of iterations =  3.1

     total cpu time spent up to now is        4.2 secs

     total energy              =    -350.24170864 Ry
     Harris-Foulkes estimate   =    -350.24170847 Ry
     estimated scf accuracy    <       0.00000050 Ry

     iteration #  5     ecut=    75.00 Ry     beta= 0.70
     Davidson diagonalization with overlap
     ethr =  4.57E-09,  avg # of iterations =  1.0

     total cpu time spent up to now is        4.6 secs

     End of self-consistent calculation

          k = 0.0000 0.0000 0.0000 (  1243 PWs)   bands (ev):

     4.8052   7.9137   7.9137   7.9137   8.9650   8.9650  29.5459  32.8281
    32.8281  32.8281

          k =-0.1111 0.1111-0.1111 (  1267 PWs)   bands (ev):

     5.1818   7.8365   8.0127   8.0127   8.9339   8.9339  28.9610  30.5736
    32.7967  32.7968

          k =-0.2222 0.2222-0.2222 (  1272 PWs)   bands (ev):

     6.0537   7.9224   8.1266   8.1266   9.0177   9.0177  24.9371  30.1175
    32.5111  32.5111

          k =-0.3333 0.3333-0.3333 (  1272 PWs)   bands (ev):

     6.3806   8.0277   8.0277   9.2973   9.3907   9.3907  20.6218  29.3139
    31.7175  31.7175

          k =-0.4444 0.4444-0.4444 (  1254 PWs)   bands (ev):

     6.2957   7.9095   7.9095   9.7200   9.7200  11.5861  17.0146  28.6779
    30.9449  30.9449

          k = 0.0000 0.2222 0.0000 (  1271 PWs)   bands (ev):

     5.3085   7.7165   8.1021   8.1021   8.7778   9.0514  29.5617  31.2175
    31.2175  31.2227

          k =-0.1111 0.3333-0.1111 (  1280 PWs)   bands (ev):

     6.0574   7.5589   8.2252   8.2827   8.8173   9.1726  26.6620  29.8363
    30.0287  32.5603

          k =-0.2222 0.4444-0.2222 (  1267 PWs)   bands (ev):

     6.5969   7.9904   8.0114   8.2654   9.4841   9.7489  22.2555  29.1827
    29.2567  31.3974

          k =-0.3333 0.5556-0.3333 (  1255 PWs)   bands (ev):

     6.5257   7.8103   8.1320   8.8160   9.7597  11.7155  18.2468  28.2300
    29.1032  29.9261

          k = 0.5556-0.3333 0.5556 (  1250 PWs)   bands (ev):

     6.4924   7.7681   8.0642   9.1559   9.7041  13.0707  16.4348  27.4049
    29.4791  29.8815

          k = 0.4444-0.2222 0.4444 (  1272 PWs)   bands (ev):

     6.5969   7.8812   8.1297   8.7999   9.3057  11.1060  19.5275  27.1194
    30.0886  31.7132

          k = 0.3333-0.1111 0.3333 (  1274 PWs)   bands (ev):

     6.5638   7.7644   8.1720   8.2758   8.8171   9.7382  23.7276  27.4143
    31.5885  34.2309

          k = 0.2222-0.0000 0.2222 (  1265 PWs)   bands (ev):

     5.7601   7.6788   8.1651   8.1676   8.7475   9.1376  28.0868  28.0887
    32.1461  34.4166

          k = 0.0000 0.4444 0.0000 (  1283 PWs)   bands (ev):

     6.4577   7.2429   8.6276   8.6276   8.6637   9.2747  28.1449  28.1449
    29.2263  29.6132

          k =-0.1111 0.5556-0.1111 (  1277 PWs)   bands (ev):

     6.8107   7.1236   8.4203   8.7798   9.5288   9.9408  24.2976  26.9709
    27.5815  29.9067

          k =-0.2222 0.6667-0.2222 (  1257 PWs)   bands (ev):

     6.7705   7.4032   8.2946   8.6709   9.8007  12.1631  20.1234  25.5487
    26.6937  29.5782

          k = 0.6667-0.2222 0.6667 (  1254 PWs)   bands (ev):

     6.8383   7.5255   8.3563   8.5436   9.7271  14.8429  16.7660  23.9878
    27.4872  29.4501

          k = 0.5556-0.1111 0.5556 (  1259 PWs)   bands (ev):

     7.0661   7.6178   8.2053   8.5047   9.3029  13.2548  19.0328  23.1326
    29.3028  29.7982

          k = 0.4444 0.0000 0.4444 (  1267 PWs)   bands (ev):

     7.2698   7.5038   8.0094   8.5477   8.7942  11.1586  23.0078  23.1721
    30.7415  31.8203

          k = 0.0000 0.6667 0.0000 (  1266 PWs)   bands (ev):

     6.6223   6.7430   9.3372   9.3372   9.5370  10.4366  24.9385  25.3522
    25.3522  29.6844

          k =-0.1111 0.7778-0.1111 (  1261 PWs)   bands (ev):

     6.5481   6.6999   9.2103   9.3330   9.8235  12.5455  22.2186  22.8133
    24.7232  29.7068

          k = 0.7778-0.1111 0.7778 (  1265 PWs)   bands (ev):

     6.6452   7.0182   8.7353   9.1662   9.7970  15.4269  18.8167  20.9370
    25.2939  29.6022

          k = 0.6667-0.0000 0.6667 (  1276 PWs)   bands (ev):

     6.9352   7.5124   8.1365   8.9201   9.4874  15.7937  18.4604  20.1899
    26.9528  29.6059

          k = 0.0000 0.8889 0.0000 (  1266 PWs)   bands (ev):

     6.2975   6.4358   9.7133   9.8937   9.8937  13.4268  20.3591  23.6752
    23.6752  29.7353

          k = 0.8889 0.0000 0.8889 (  1264 PWs)   bands (ev):

     6.3660   6.5326   9.5723   9.6047   9.9201  14.8876  19.4045  21.7240
    23.8849  29.7322

          k =-0.2222 0.4444 0.0000 (  1277 PWs)   bands (ev):

     6.7805   7.3472   8.0816   8.6274   8.8854   9.7766  25.5215  25.8249
    30.2465  32.1990

          k =-0.3333 0.5556-0.1111 (  1260 PWs)   bands (ev):

     6.9649   7.7274   7.8346   8.6200   9.3244  11.2795  21.3439  25.2288
    28.1965  32.1668

          k = 0.5556-0.3333 0.7778 (  1260 PWs)   bands (ev):

     6.8521   7.5619   8.3276   8.5128   9.6601  13.6267  17.5455  25.4939
    26.5395  31.3553

          k =-0.2222 0.6667 0.0000 (  1260 PWs)   bands (ev):

     6.9233   6.9371   8.3953   9.3292   9.3979  11.5856  23.4402  23.6131
    25.2643  31.7253

          k = 0.6667-0.2222 0.8889 (  1254 PWs)   bands (ev):

     6.9037   7.1989   8.1913   9.0793   9.7273  14.0921  19.6177  23.1599
    23.7796  31.8639

          k = 0.5556-0.1111 0.7778 (  1258 PWs)   bands (ev):

     7.0930   7.4060   7.9824   8.8520   9.6781  16.1032  17.4011  21.8457
    24.6702  32.0662

          k = 0.4444 0.0000 0.6667 (  1252 PWs)   bands (ev):

     7.4341   7.4747   7.5956   8.9076   9.3354  13.4236  20.9107  21.3475
    26.2685  32.8456

          k = 0.7778-0.1111 1.0000 (  1260 PWs)   bands (ev):

     6.5632   6.6773   9.0270   9.5130   9.8924  14.5615  20.5005  22.1817
    22.3868  31.4706

          k = 0.6667-0.0000 0.8889 (  1261 PWs)   bands (ev):

     6.7644   7.0413   8.4834   9.1811   9.8863  16.8430  18.9014  19.8178
    23.1153  31.8585

          k = 0.5556-0.1111 1.0000 (  1237 PWs)   bands (ev):

     7.0360   7.3871   7.8437   9.0155   9.8888  16.6643  19.4940  20.3638
    21.7426  35.0367

     the Fermi energy is    12.9230 ev

!    total energy              =    -350.24170865 Ry
     Harris-Foulkes estimate   =    -350.24170866 Ry
     estimated scf accuracy    <          5.4E-09 Ry

     total all-electron energy =    -10627.252117 Ry

     The total energy is the sum of the following terms:

     one-electron contribution =       1.60812846 Ry
     hartree contribution      =      14.56749417 Ry
     xc contribution           =     -22.14247821 Ry
     ewald contribution        =     -71.86118018 Ry
     one-center paw contrib.   =    -272.41361524 Ry
     smearing contrib. (-TS)   =      -0.00005766 Ry

     convergence has been achieved in   5 iterations

     Forces acting on atoms (cartesian axes, Ry/au):

     atom    1 type  1   force =     0.00000000    0.00000000    0.00000000

     Total force =     0.000000     Total SCF correction =     0.000000


     Computing stress (Cartesian axis) and pressure

          total   stress  (Ry/bohr**3)                   (kbar)     P=  -23.00
  -0.00015634   0.00000000   0.00000000        -23.00      0.00      0.00
   0.00000000  -0.00015634  -0.00000000          0.00    -23.00     -0.00
   0.00000000   0.00000000  -0.00015634          0.00      0.00    -23.00


     Writing output data file Ag.save/

     init_run     :      0.44s CPU      0.47s WALL (       1 calls)
     electrons    :      3.04s CPU      3.31s WALL (       1 calls)
     forces       :      0.08s CPU      0.08s WALL (       1 calls)
     stress       :      0.21s CPU      0.21s WALL (       1 calls)

     Called by init_run:
     wfcinit      :      0.12s CPU      0.13s WALL (       1 calls)
     potinit      :      0.10s CPU      0.12s WALL (       1 calls)
     hinit0       :      0.18s CPU      0.18s WALL (       1 calls)

     Called by electrons:
     c_bands      :      2.08s CPU      2.25s WALL (       6 calls)
     sum_band     :      0.39s CPU      0.42s WALL (       6 calls)
     v_of_rho     :      0.04s CPU      0.04s WALL (       6 calls)
     newd         :      0.06s CPU      0.06s WALL (       6 calls)
     PAW_pot      :      0.58s CPU      0.65s WALL (       6 calls)
     mix_rho      :      0.00s CPU      0.00s WALL (       6 calls)

     Called by c_bands:
     init_us_2    :      0.08s CPU      0.08s WALL (     525 calls)
     cegterg      :      1.97s CPU      2.14s WALL (     210 calls)

     Called by sum_band:
     sum_band:bec :      0.00s CPU      0.00s WALL (     210 calls)
     addusdens    :      0.05s CPU      0.06s WALL (       6 calls)

     Called by *egterg:
     h_psi        :      1.59s CPU      1.74s WALL (     757 calls)
     s_psi        :      0.05s CPU      0.06s WALL (     757 calls)
     g_psi        :      0.01s CPU      0.01s WALL (     512 calls)
     cdiaghg      :      0.15s CPU      0.16s WALL (     687 calls)

     Called by h_psi:
     h_psi:pot    :      1.59s CPU      1.73s WALL (     757 calls)
     h_psi:calbec :      0.08s CPU      0.09s WALL (     757 calls)
     vloc_psi     :      1.45s CPU      1.58s WALL (     757 calls)
     add_vuspsi   :      0.06s CPU      0.06s WALL (     757 calls)

     General routines
     calbec       :      0.14s CPU      0.15s WALL (    1142 calls)
     fft          :      0.02s CPU      0.02s WALL (      93 calls)
     ffts         :      0.00s CPU      0.00s WALL (       6 calls)
     fftw         :      1.58s CPU      1.72s WALL (   13008 calls)

     Parallel routines
     fft_scatt_xy :      0.16s CPU      0.17s WALL (   13107 calls)
     fft_scatt_yz :      0.47s CPU      0.51s WALL (   13107 calls)

     PWSCF        :     4.65s CPU         5.01s WALL


   This run was terminated on:   0:35:46  27Mar2024            

=------------------------------------------------------------------------------=
   JOB DONE.
=------------------------------------------------------------------------------=
