
     Program PWSCF v.6.3MaX starts on 27Mar2024 at  0:14:19 

     This program is part of the open-source Quantum ESPRESSO suite
     for quantum simulation of materials; please cite
         "P. Giannozzi et al., J. Phys.:Condens. Matter 21 395502 (2009);
         "P. Giannozzi et al., J. Phys.:Condens. Matter 29 465901 (2017);
          URL http://www.quantum-espresso.org", 
     in publications or presentations arising from this work. More details at
     http://www.quantum-espresso.org/quote

     Parallel version (MPI), running on     5 processors

     MPI processes distributed on     1 nodes
     R & G space division:  proc/nbgrp/npool/nimage =       5
     Waiting for input...
     Reading input from standard input

     Current dimensions of program PWSCF are:
     Max number of different atomic species (ntypx) = 10
     Max number of k-points (npk) =  40000
     Max angular momentum in pseudopotentials (lmaxx) =  3

     Subspace diagonalization in iterative solution of the eigenvalue problem:
     a serial algorithm will be used


     Parallelization info
     --------------------
     sticks:   dense  smooth     PW     G-vecs:    dense   smooth      PW
     Min          58      58     19                  643      643     128
     Max          60      60     20                  643      643     130
     Sum         295     295     97                 3215     3215     645



     bravais-lattice index     =            2
     lattice parameter (alat)  =       7.7200  a.u.
     unit-cell volume          =     115.0249 (a.u.)^3
     number of atoms/cell      =            1
     number of atomic types    =            1
     number of electrons       =        11.00
     number of Kohn-Sham states=           10
     kinetic-energy cutoff     =      35.0000  Ry
     charge density cutoff     =     140.0000  Ry
     convergence threshold     =      1.0E-08
     mixing beta               =       0.7000
     number of iterations used =            8  plain     mixing
     Exchange-correlation      = PBE ( 1  4  3  4 0 0)

     celldm(1)=   7.720000  celldm(2)=   0.000000  celldm(3)=   0.000000
     celldm(4)=   0.000000  celldm(5)=   0.000000  celldm(6)=   0.000000

     crystal axes: (cart. coord. in units of alat)
               a(1) = (  -0.500000   0.000000   0.500000 )  
               a(2) = (   0.000000   0.500000   0.500000 )  
               a(3) = (  -0.500000   0.500000   0.000000 )  

     reciprocal axes: (cart. coord. in units 2 pi/alat)
               b(1) = ( -1.000000 -1.000000  1.000000 )  
               b(2) = (  1.000000  1.000000  1.000000 )  
               b(3) = ( -1.000000  1.000000 -1.000000 )  


     PseudoPot. # 1 for Ag read from file:
     /home/lorenzo/pseudos/Ag/Ag.pbe-n-rrkjus_psl.1.0.0.UPF
     MD5 check sum: d841cbfac2b0861aec33b46768a516bf
     Pseudo is Ultrasoft + core correction, Zval = 11.0
     Generated using "atomic" code by A. Dal Corso v.6.2.2
     Using radial grid of 1237 points,  6 beta functions with: 
                l(1) =   0
                l(2) =   0
                l(3) =   1
                l(4) =   1
                l(5) =   2
                l(6) =   2
     Q(r) pseudized with 0 coefficients 


     atomic species   valence    mass     pseudopotential
        Ag            11.00   107.86820     Ag( 1.00)

     48 Sym. Ops., with inversion, found



   Cartesian axes

     site n.     atom                  positions (alat units)
         1           Ag  tau(   1) = (   0.0000000   0.0000000   0.0000000  )

     number of k points=    56  gaussian smearing, width (Ry)=  0.0100
                       cart. coord. in units 2pi/alat
        k(    1) = (   0.0000000   0.0000000   0.0000000), wk =   0.0015026
        k(    2) = (  -0.0909091   0.0909091  -0.0909091), wk =   0.0120210
        k(    3) = (  -0.1818182   0.1818182  -0.1818182), wk =   0.0120210
        k(    4) = (  -0.2727273   0.2727273  -0.2727273), wk =   0.0120210
        k(    5) = (  -0.3636364   0.3636364  -0.3636364), wk =   0.0120210
        k(    6) = (  -0.4545455   0.4545455  -0.4545455), wk =   0.0120210
        k(    7) = (   0.0000000   0.1818182   0.0000000), wk =   0.0090158
        k(    8) = (  -0.0909091   0.2727273  -0.0909091), wk =   0.0360631
        k(    9) = (  -0.1818182   0.3636364  -0.1818182), wk =   0.0360631
        k(   10) = (  -0.2727273   0.4545455  -0.2727273), wk =   0.0360631
        k(   11) = (  -0.3636364   0.5454545  -0.3636364), wk =   0.0360631
        k(   12) = (   0.5454545  -0.3636364   0.5454545), wk =   0.0360631
        k(   13) = (   0.4545455  -0.2727273   0.4545455), wk =   0.0360631
        k(   14) = (   0.3636364  -0.1818182   0.3636364), wk =   0.0360631
        k(   15) = (   0.2727273  -0.0909091   0.2727273), wk =   0.0360631
        k(   16) = (   0.1818182  -0.0000000   0.1818182), wk =   0.0180316
        k(   17) = (   0.0000000   0.3636364   0.0000000), wk =   0.0090158
        k(   18) = (  -0.0909091   0.4545455  -0.0909091), wk =   0.0360631
        k(   19) = (  -0.1818182   0.5454545  -0.1818182), wk =   0.0360631
        k(   20) = (  -0.2727273   0.6363636  -0.2727273), wk =   0.0360631
        k(   21) = (   0.6363636  -0.2727273   0.6363636), wk =   0.0360631
        k(   22) = (   0.5454545  -0.1818182   0.5454545), wk =   0.0360631
        k(   23) = (   0.4545455  -0.0909091   0.4545455), wk =   0.0360631
        k(   24) = (   0.3636364   0.0000000   0.3636364), wk =   0.0180316
        k(   25) = (   0.0000000   0.5454545   0.0000000), wk =   0.0090158
        k(   26) = (  -0.0909091   0.6363636  -0.0909091), wk =   0.0360631
        k(   27) = (  -0.1818182   0.7272727  -0.1818182), wk =   0.0360631
        k(   28) = (   0.7272727  -0.1818182   0.7272727), wk =   0.0360631
        k(   29) = (   0.6363636  -0.0909091   0.6363636), wk =   0.0360631
        k(   30) = (   0.5454545   0.0000000   0.5454545), wk =   0.0180316
        k(   31) = (   0.0000000   0.7272727   0.0000000), wk =   0.0090158
        k(   32) = (  -0.0909091   0.8181818  -0.0909091), wk =   0.0360631
        k(   33) = (   0.8181818  -0.0909091   0.8181818), wk =   0.0360631
        k(   34) = (   0.7272727   0.0000000   0.7272727), wk =   0.0180316
        k(   35) = (   0.0000000   0.9090909   0.0000000), wk =   0.0090158
        k(   36) = (   0.9090909  -0.0000000   0.9090909), wk =   0.0180316
        k(   37) = (  -0.1818182   0.3636364   0.0000000), wk =   0.0360631
        k(   38) = (  -0.2727273   0.4545455  -0.0909091), wk =   0.0721262
        k(   39) = (  -0.3636364   0.5454545  -0.1818182), wk =   0.0721262
        k(   40) = (   0.5454545  -0.3636364   0.7272727), wk =   0.0721262
        k(   41) = (  -0.1818182   0.5454545   0.0000000), wk =   0.0360631
        k(   42) = (  -0.2727273   0.6363636  -0.0909091), wk =   0.0721262
        k(   43) = (   0.6363636  -0.2727273   0.8181818), wk =   0.0721262
        k(   44) = (   0.5454545  -0.1818182   0.7272727), wk =   0.0721262
        k(   45) = (   0.4545455  -0.0909091   0.6363636), wk =   0.0721262
        k(   46) = (   0.3636364   0.0000000   0.5454545), wk =   0.0360631
        k(   47) = (  -0.1818182   0.7272727   0.0000000), wk =   0.0360631
        k(   48) = (   0.7272727  -0.1818182   0.9090909), wk =   0.0721262
        k(   49) = (   0.6363636  -0.0909091   0.8181818), wk =   0.0721262
        k(   50) = (   0.5454545   0.0000000   0.7272727), wk =   0.0360631
        k(   51) = (   0.8181818  -0.0909091   1.0000000), wk =   0.0360631
        k(   52) = (   0.7272727   0.0000000   0.9090909), wk =   0.0360631
        k(   53) = (   0.6363636  -0.2727273   1.0000000), wk =   0.0360631
        k(   54) = (   0.5454545  -0.1818182   0.9090909), wk =   0.0721262
        k(   55) = (   0.6363636  -0.0909091   1.0000000), wk =   0.0360631
        k(   56) = (   0.5454545   0.0000000   0.9090909), wk =   0.0360631

     Dense  grid:     3215 G-vectors     FFT dimensions: (  24,  24,  24)

     Estimated max dynamical RAM per process >       4.32 MB

     Estimated total dynamical RAM >      21.61 MB

     Initial potential from superposition of free atoms

     starting charge   10.99960, renormalised to   11.00000
     Starting wfcs are    9 randomized atomic wfcs +    1 random wfcs

     total cpu time spent up to now is        1.0 secs

     Self-consistent Calculation

     iteration #  1     ecut=    35.00 Ry     beta= 0.70
     Davidson diagonalization with overlap
     ethr =  1.00E-02,  avg # of iterations =  4.6

     Threshold (ethr) on eigenvalues was too large:
     Diagonalizing with lowered threshold

     Davidson diagonalization with overlap
     ethr =  3.31E-05,  avg # of iterations =  2.3

     total cpu time spent up to now is        1.7 secs

     total energy              =     -84.25541077 Ry
     Harris-Foulkes estimate   =     -84.25755302 Ry
     estimated scf accuracy    <       0.00397015 Ry

     iteration #  2     ecut=    35.00 Ry     beta= 0.70
     Davidson diagonalization with overlap
     ethr =  3.61E-05,  avg # of iterations =  2.0

     total cpu time spent up to now is        2.1 secs

     total energy              =     -84.25636962 Ry
     Harris-Foulkes estimate   =     -84.25778393 Ry
     estimated scf accuracy    <       0.00267373 Ry

     iteration #  3     ecut=    35.00 Ry     beta= 0.70
     Davidson diagonalization with overlap
     ethr =  2.43E-05,  avg # of iterations =  2.0

     total cpu time spent up to now is        2.4 secs

     total energy              =     -84.25698176 Ry
     Harris-Foulkes estimate   =     -84.25696650 Ry
     estimated scf accuracy    <       0.00002338 Ry

     iteration #  4     ecut=    35.00 Ry     beta= 0.70
     Davidson diagonalization with overlap
     ethr =  2.13E-07,  avg # of iterations =  2.5

     total cpu time spent up to now is        2.8 secs

     total energy              =     -84.25698937 Ry
     Harris-Foulkes estimate   =     -84.25698925 Ry
     estimated scf accuracy    <       0.00000035 Ry

     iteration #  5     ecut=    35.00 Ry     beta= 0.70
     Davidson diagonalization with overlap
     ethr =  3.15E-09,  avg # of iterations =  2.2

     total cpu time spent up to now is        3.1 secs

     total energy              =     -84.25698948 Ry
     Harris-Foulkes estimate   =     -84.25698949 Ry
     estimated scf accuracy    <       0.00000003 Ry

     iteration #  6     ecut=    35.00 Ry     beta= 0.70
     Davidson diagonalization with overlap
     ethr =  2.41E-10,  avg # of iterations =  2.4

     total cpu time spent up to now is        3.5 secs

     End of self-consistent calculation

          k = 0.0000 0.0000 0.0000 (   411 PWs)   bands (ev):

     5.0674   8.0766   8.0766   8.0766   9.1072   9.1072  29.8058  33.0906
    33.0906  37.3920

          k =-0.0909 0.0909-0.0909 (   402 PWs)   bands (ev):

     5.3224   8.0287   8.1490   8.1490   9.0878   9.0878  29.5825  31.1850
    33.0730  33.0730

          k =-0.1818 0.1818-0.1818 (   393 PWs)   bands (ev):

     5.9887   7.9868   8.2737   8.2737   9.1101   9.1101  26.7833  30.5265
    32.9313  32.9313

          k =-0.2727 0.2727-0.2727 (   395 PWs)   bands (ev):

     6.5382   8.2660   8.2660   8.5525   9.3200   9.3200  23.1866  30.0477
    32.4691  32.4691

          k =-0.3636 0.3636-0.3636 (   401 PWs)   bands (ev):

     6.5619   8.1539   8.1539   9.6485   9.6485  10.1367  19.7606  29.3488
    31.7292  31.7292

          k =-0.4545 0.4545-0.4545 (   401 PWs)   bands (ev):

     6.4868   8.0680   8.0680   9.8772   9.8772  12.0202  17.0151  28.9065
    31.1733  31.1733

          k = 0.0000 0.1818 0.0000 (   391 PWs)   bands (ev):

     5.4080   7.9448   8.2157   8.2157   8.9902   9.1724  29.8144  31.8614
    31.9611  31.9611

          k =-0.0909 0.2727-0.0909 (   394 PWs)   bands (ev):

     5.9502   7.8208   8.3495   8.3574   8.9220   9.2395  28.1369  30.2794
    31.0455  33.0141

          k =-0.1818 0.3636-0.1818 (   396 PWs)   bands (ev):

     6.6088   7.9321   8.3089   8.4101   9.2753   9.4264  24.5494  29.9174
    30.3251  33.1774

          k =-0.2727 0.4545-0.2727 (   403 PWs)   bands (ev):

     6.7322   8.1230   8.3241   8.6507   9.7130  10.3105  21.0147  29.2827
    29.8589  31.5928

          k =-0.3636 0.5455-0.3636 (   405 PWs)   bands (ev):

     6.6439   7.9959   8.2166   9.2454   9.9032  12.0673  17.9014  28.6515
    29.8228  30.3628

          k = 0.5455-0.3636 0.5455 (   403 PWs)   bands (ev):

     6.6188   7.9708   8.1704   9.4745   9.8651  13.0677  16.5973  28.1928
    29.8690  30.4141

          k = 0.4545-0.2727 0.4545 (   403 PWs)   bands (ev):

     6.6882   8.0515   8.2162   9.2729   9.5902  11.5064  18.8749  28.0283
    30.1766  31.7166

          k = 0.3636-0.1818 0.3636 (   402 PWs)   bands (ev):

     6.7666   8.1516   8.3316   8.5750   9.1970  10.1347  22.1793  28.2073
    31.1405  33.6591

          k = 0.2727-0.0909 0.2727 (   391 PWs)   bands (ev):

     6.4360   7.8688   8.3536   8.3976   8.9226   9.4775  25.7669  28.6332
    32.2957  34.3853

          k = 0.1818-0.0000 0.1818 (   391 PWs)   bands (ev):

     5.7253   7.9201   8.2533   8.2805   8.9695   9.1949  29.0354  29.3875
    32.2152  34.2799

          k = 0.0000 0.3636 0.0000 (   399 PWs)   bands (ev):

     6.3004   7.6018   8.5707   8.5707   8.7676   9.3294  29.5503  29.5503
    29.8452  30.2428

          k =-0.0909 0.4545-0.0909 (   401 PWs)   bands (ev):

     6.8322   7.4543   8.4682   8.7322   9.3013   9.4893  26.1910  28.4669
    29.4986  30.8013

          k =-0.1818 0.5455-0.1818 (   401 PWs)   bands (ev):

     6.9889   7.6834   8.2958   8.7060   9.7617  10.5800  22.5997  27.8593
    28.2079  30.2112

          k =-0.2727 0.6364-0.2727 (   405 PWs)   bands (ev):

     6.9231   7.8068   8.4728   8.5955   9.9364  12.4685  19.2686  26.7545
    27.8417  29.7920

          k = 0.6364-0.2727 0.6364 (   401 PWs)   bands (ev):

     6.9343   7.7722   8.5062   8.7403   9.8795  14.4367  16.7867  25.6090
    28.5176  29.6591

          k = 0.5455-0.1818 0.5455 (   406 PWs)   bands (ev):

     7.0413   7.8244   8.4896   8.6965   9.5746  13.2886  18.3724  24.9328
    29.8898  29.9471

          k = 0.4545-0.0909 0.4545 (   404 PWs)   bands (ev):

     7.2151   7.9009   8.3190   8.5660   9.1388  11.5037  21.5666  24.7853
    30.7516  31.8324

          k = 0.3636 0.0000 0.3636 (   397 PWs)   bands (ev):

     7.1133   7.6788   8.2897   8.7058   8.7285  10.2509  24.9235  25.2640
    32.0425  34.0938

          k = 0.0000 0.5455 0.0000 (   415 PWs)   bands (ev):

     6.9169   7.1772   9.0966   9.0966   9.3812   9.5357  27.0411  27.0411
    27.8802  29.8958

          k =-0.0909 0.6364-0.0909 (   411 PWs)   bands (ev):

     6.9254   7.0769   9.0000   9.2048   9.7653  10.7857  24.3254  25.9789
    26.1723  30.0218

          k =-0.1818 0.7273-0.1818 (   401 PWs)   bands (ev):

     6.8898   7.2484   8.7893   9.1147   9.9705  12.7961  21.0261  24.2539
    25.9910  29.8738

          k = 0.7273-0.1818 0.7273 (   406 PWs)   bands (ev):

     6.9665   7.4974   8.5614   8.9893   9.9155  15.2100  18.0573  22.8561
    26.5748  29.7722

          k = 0.6364-0.0909 0.6364 (   401 PWs)   bands (ev):

     7.1814   7.7522   8.2818   8.8884   9.6304  15.3177  18.2136  21.8988
    27.8751  29.8589

          k = 0.5455 0.0000 0.5455 (   403 PWs)   bands (ev):

     7.4483   7.8369   8.0699   8.7911   9.2782  13.2299  21.1813  21.6326
    29.7163  30.2089

          k = 0.0000 0.7273 0.0000 (   403 PWs)   bands (ev):

     6.7127   6.8151   9.6714   9.6714   9.7483  11.4715  23.8086  25.0168
    25.0168  29.9593

          k =-0.0909 0.8182-0.0909 (   404 PWs)   bands (ev):

     6.6471   6.7748   9.6070   9.6216   9.9910  13.1672  21.9071  23.0154
    24.5823  29.9864

          k = 0.8182-0.0909 0.8182 (   406 PWs)   bands (ev):

     6.7223   6.9956   9.1942   9.4828   9.9866  15.3903  19.9870  20.7913
    24.9786  29.9035

          k = 0.7273 0.0000 0.7273 (   403 PWs)   bands (ev):

     6.9320   7.4021   8.6483   9.2599   9.7889  17.5691  17.5772  20.1072
    26.1456  29.8445

          k = 0.0000 0.9091 0.0000 (   400 PWs)   bands (ev):

     6.4665   6.6064   9.8692  10.0678  10.0678  13.9172  20.3005  23.8657
    23.8657  29.9965

          k = 0.9091-0.0000 0.9091 (   406 PWs)   bands (ev):

     6.5152   6.6637   9.7898   9.8438  10.0844  14.9339  19.6309  22.4609
    24.0069  30.0011

          k =-0.1818 0.3636 0.0000 (   393 PWs)   bands (ev):

     6.5471   7.6530   8.3632   8.5707   8.9261   9.5003  27.1973  27.4161
    31.9700  32.0703

          k =-0.2727 0.4545-0.0909 (   399 PWs)   bands (ev):

     7.0346   7.7770   8.1687   8.6479   9.2112  10.2428  23.6792  26.7615
    30.3512  32.6061

          k =-0.3636 0.5455-0.1818 (   403 PWs)   bands (ev):

     6.9690   7.9544   8.3374   8.6077   9.6173  11.6490  20.2330  26.5633
    28.8415  31.7988

          k = 0.5455-0.3636 0.7273 (   397 PWs)   bands (ev):

     6.8812   7.8262   8.4144   8.8770   9.8356  13.5634  17.3166  26.8319
    27.6553  31.1364

          k =-0.1818 0.5455 0.0000 (   411 PWs)   bands (ev):

     7.1376   7.2800   8.4067   9.0887   9.3723  10.3185  25.2826  25.5146
    28.1568  31.6347

          k =-0.2727 0.6364-0.0909 (   405 PWs)   bands (ev):

     7.1126   7.4797   8.2694   9.0798   9.6741  11.8948  21.9272  25.0569
    26.3927  31.7431

          k = 0.6364-0.2727 0.8182 (   405 PWs)   bands (ev):

     7.0992   7.6108   8.2987   8.9131   9.8658  14.0122  18.7482  24.8716
    25.3207  31.5250

          k = 0.5455-0.1818 0.7273 (   403 PWs)   bands (ev):

     7.2078   7.6046   8.3757   8.7853   9.8010  15.4677  17.1124  23.8160
    26.0812  31.6695

          k = 0.4545-0.0909 0.6364 (   403 PWs)   bands (ev):

     7.3793   7.6879   8.0965   8.8685   9.5202  13.3967  19.8845  23.2394
    27.3007  32.3941

          k = 0.3636 0.0000 0.5455 (   406 PWs)   bands (ev):

     7.5453   7.5955   7.9241   9.0061   9.1115  11.5862  23.1567  23.2781
    28.7896  33.6576

          k =-0.1818 0.7273 0.0000 (   407 PWs)   bands (ev):

     6.9031   6.9538   8.9609   9.6677   9.6861  12.2685  23.5508  23.8169
    24.1784  31.3413

          k = 0.7273-0.1818 0.9091 (   404 PWs)   bands (ev):

     6.9131   7.1286   8.7366   9.4291   9.9392  14.3670  20.6479  22.4107
    23.8943  31.5041

          k = 0.6364-0.0909 0.8182 (   403 PWs)   bands (ev):

     7.0525   7.4413   8.4157   9.1778   9.9011  16.8649  17.8983  21.1692
    24.6122  31.6009

          k = 0.5455 0.0000 0.7273 (   399 PWs)   bands (ev):

     7.3138   7.7519   7.9903   9.0333   9.6759  15.4558  19.4594  20.7114
    25.8316  31.9720

          k = 0.8182-0.0909 1.0000 (   410 PWs)   bands (ev):

     6.6437   6.7619   9.4379   9.7359  10.0638  14.7247  20.3897  22.7984
    22.8970  31.2060

          k = 0.7273 0.0000 0.9091 (   407 PWs)   bands (ev):

     6.7985   7.0172   8.9985   9.4768  10.0595  16.3653  19.6649  20.4348
    23.4447  31.4663

          k = 0.6364-0.2727 1.0000 (   405 PWs)   bands (ev):

     7.3579   7.3644   8.0878   9.3012   9.6575  13.7245  21.6505  21.8835
    24.7361  34.1349

          k = 0.5455-0.1818 0.9091 (   403 PWs)   bands (ev):

     7.3337   7.5457   8.0043   9.0997   9.8902  15.9801  18.7016  22.1835
    23.4242  33.8836

          k = 0.6364-0.0909 1.0000 (   395 PWs)   bands (ev):

     7.0562   7.2492   8.4510   9.3181  10.0676  16.3956  20.5925  20.6878
    21.7201  33.8667

          k = 0.5455 0.0000 0.9091 (   400 PWs)   bands (ev):

     7.1875   7.6003   8.0234   9.1370  10.0624  18.2535  18.4254  20.2408
    22.1345  34.4987

     the Fermi energy is    13.1086 ev

!    total energy              =     -84.25698948 Ry
     Harris-Foulkes estimate   =     -84.25698949 Ry
     estimated scf accuracy    <          2.0E-09 Ry

     The total energy is the sum of the following terms:

     one-electron contribution =      -4.67929783 Ry
     hartree contribution      =      14.62951516 Ry
     xc contribution           =     -22.34580560 Ry
     ewald contribution        =     -71.86118026 Ry
     smearing contrib. (-TS)   =      -0.00022095 Ry

     convergence has been achieved in   6 iterations

     Forces acting on atoms (cartesian axes, Ry/au):

     atom    1 type  1   force =     0.00000000    0.00000000    0.00000000

     Total force =     0.000000     Total SCF correction =     0.000000


     Computing stress (Cartesian axis) and pressure

          total   stress  (Ry/bohr**3)                   (kbar)     P= -114.22
  -0.00077646  -0.00000000   0.00000000       -114.22     -0.00      0.00
  -0.00000000  -0.00077646  -0.00000000         -0.00   -114.22     -0.00
   0.00000000  -0.00000000  -0.00077646          0.00     -0.00   -114.22


     Writing output data file Ag.save/

     init_run     :      0.21s CPU      0.22s WALL (       1 calls)
     electrons    :      2.34s CPU      2.51s WALL (       1 calls)
     forces       :      0.03s CPU      0.03s WALL (       1 calls)
     stress       :      0.09s CPU      0.09s WALL (       1 calls)

     Called by init_run:
     wfcinit      :      0.08s CPU      0.09s WALL (       1 calls)
     potinit      :      0.00s CPU      0.00s WALL (       1 calls)
     hinit0       :      0.12s CPU      0.12s WALL (       1 calls)

     Called by electrons:
     c_bands      :      1.94s CPU      2.08s WALL (       7 calls)
     sum_band     :      0.36s CPU      0.38s WALL (       7 calls)
     v_of_rho     :      0.02s CPU      0.02s WALL (       7 calls)
     newd         :      0.02s CPU      0.02s WALL (       7 calls)
     mix_rho      :      0.00s CPU      0.00s WALL (       7 calls)

     Called by c_bands:
     init_us_2    :      0.05s CPU      0.05s WALL (     952 calls)
     cegterg      :      1.87s CPU      2.00s WALL (     392 calls)

     Called by sum_band:
     sum_band:bec :      0.00s CPU      0.00s WALL (     392 calls)
     addusdens    :      0.02s CPU      0.02s WALL (       7 calls)

     Called by *egterg:
     h_psi        :      1.42s CPU      1.52s WALL (    1451 calls)
     s_psi        :      0.04s CPU      0.04s WALL (    1451 calls)
     g_psi        :      0.00s CPU      0.00s WALL (    1003 calls)
     cdiaghg      :      0.27s CPU      0.29s WALL (    1339 calls)

     Called by h_psi:
     h_psi:pot    :      1.41s CPU      1.52s WALL (    1451 calls)
     h_psi:calbec :      0.06s CPU      0.07s WALL (    1451 calls)
     vloc_psi     :      1.30s CPU      1.40s WALL (    1451 calls)
     add_vuspsi   :      0.04s CPU      0.04s WALL (    1451 calls)

     General routines
     calbec       :      0.10s CPU      0.11s WALL (    2123 calls)
     fft          :      0.01s CPU      0.01s WALL (     104 calls)
     ffts         :      0.00s CPU      0.00s WALL (       7 calls)
     fftw         :      1.46s CPU      1.57s WALL (   24422 calls)

     Parallel routines
     fft_scatt_xy :      0.13s CPU      0.14s WALL (   24533 calls)
     fft_scatt_yz :      0.44s CPU      0.47s WALL (   24533 calls)

     PWSCF        :     3.46s CPU         3.71s WALL


   This run was terminated on:   0:14:23  27Mar2024            

=------------------------------------------------------------------------------=
   JOB DONE.
=------------------------------------------------------------------------------=
