
     Program PWSCF v.6.3MaX starts on 27Mar2024 at  0:26:18 

     This program is part of the open-source Quantum ESPRESSO suite
     for quantum simulation of materials; please cite
         "P. Giannozzi et al., J. Phys.:Condens. Matter 21 395502 (2009);
         "P. Giannozzi et al., J. Phys.:Condens. Matter 29 465901 (2017);
          URL http://www.quantum-espresso.org", 
     in publications or presentations arising from this work. More details at
     http://www.quantum-espresso.org/quote

     Parallel version (MPI), running on     5 processors

     MPI processes distributed on     1 nodes
     R & G space division:  proc/nbgrp/npool/nimage =       5
     Waiting for input...
     Reading input from standard input

     Current dimensions of program PWSCF are:
     Max number of different atomic species (ntypx) = 10
     Max number of k-points (npk) =  40000
     Max angular momentum in pseudopotentials (lmaxx) =  3
               file Ag.pbesol-n-kjpaw_psl.1.0.0.UPF: wavefunction(s)  5S 5P renormalized

     Subspace diagonalization in iterative solution of the eigenvalue problem:
     a serial algorithm will be used


     Parallelization info
     --------------------
     sticks:   dense  smooth     PW     G-vecs:    dense   smooth      PW
     Min          99      99     30                 1446     1446     248
     Max         100     100     31                 1449     1449     251
     Sum         499     499    151                 7239     7239    1243



     bravais-lattice index     =            2
     lattice parameter (alat)  =       7.7200  a.u.
     unit-cell volume          =     115.0249 (a.u.)^3
     number of atoms/cell      =            1
     number of atomic types    =            1
     number of electrons       =        11.00
     number of Kohn-Sham states=           10
     kinetic-energy cutoff     =      60.0000  Ry
     charge density cutoff     =     240.0000  Ry
     convergence threshold     =      1.0E-08
     mixing beta               =       0.7000
     number of iterations used =            8  plain     mixing
     Exchange-correlation      = SLA PW PSX PSC ( 1  4 10  8 0 0)

     celldm(1)=   7.720000  celldm(2)=   0.000000  celldm(3)=   0.000000
     celldm(4)=   0.000000  celldm(5)=   0.000000  celldm(6)=   0.000000

     crystal axes: (cart. coord. in units of alat)
               a(1) = (  -0.500000   0.000000   0.500000 )  
               a(2) = (   0.000000   0.500000   0.500000 )  
               a(3) = (  -0.500000   0.500000   0.000000 )  

     reciprocal axes: (cart. coord. in units 2 pi/alat)
               b(1) = ( -1.000000 -1.000000  1.000000 )  
               b(2) = (  1.000000  1.000000  1.000000 )  
               b(3) = ( -1.000000  1.000000 -1.000000 )  


     PseudoPot. # 1 for Ag read from file:
     /home/lorenzo/pseudos/Ag/Ag.pbesol-n-kjpaw_psl.1.0.0.UPF
     MD5 check sum: 3b245e14fa22881b2ac493bfd23f605f
     Pseudo is Projector augmented-wave + core cor, Zval = 11.0
     Generated using "atomic" code by A. Dal Corso v.6.2.2
     Shape of augmentation charge: PSQ
     Using radial grid of 1237 points,  6 beta functions with: 
                l(1) =   0
                l(2) =   0
                l(3) =   1
                l(4) =   1
                l(5) =   2
                l(6) =   2
     Q(r) pseudized with 0 coefficients 


     atomic species   valence    mass     pseudopotential
        Ag            11.00   107.86820     Ag( 1.00)

     48 Sym. Ops., with inversion, found



   Cartesian axes

     site n.     atom                  positions (alat units)
         1           Ag  tau(   1) = (   0.0000000   0.0000000   0.0000000  )

     number of k points=     8  gaussian smearing, width (Ry)=  0.0100
                       cart. coord. in units 2pi/alat
        k(    1) = (   0.0000000   0.0000000   0.0000000), wk =   0.0312500
        k(    2) = (  -0.2500000   0.2500000  -0.2500000), wk =   0.2500000
        k(    3) = (   0.5000000  -0.5000000   0.5000000), wk =   0.1250000
        k(    4) = (   0.0000000   0.5000000   0.0000000), wk =   0.1875000
        k(    5) = (   0.7500000  -0.2500000   0.7500000), wk =   0.7500000
        k(    6) = (   0.5000000   0.0000000   0.5000000), wk =   0.3750000
        k(    7) = (   0.0000000  -1.0000000   0.0000000), wk =   0.0937500
        k(    8) = (  -0.5000000  -1.0000000   0.0000000), wk =   0.1875000

     Dense  grid:     7239 G-vectors     FFT dimensions: (  27,  27,  27)

     Estimated max dynamical RAM per process >       7.17 MB

     Estimated total dynamical RAM >      35.86 MB

     Initial potential from superposition of free atoms

     starting charge   10.99964, renormalised to   11.00000
     Starting wfcs are    9 randomized atomic wfcs +    1 random wfcs
     Checking if some PAW data can be deallocated... 

     total cpu time spent up to now is        1.2 secs

     Self-consistent Calculation

     iteration #  1     ecut=    60.00 Ry     beta= 0.70
     Davidson diagonalization with overlap
     ethr =  1.00E-02,  avg # of iterations =  5.2

     Threshold (ethr) on eigenvalues was too large:
     Diagonalizing with lowered threshold

     Davidson diagonalization with overlap
     ethr =  4.92E-05,  avg # of iterations =  3.4

     total cpu time spent up to now is        1.5 secs

     total energy              =    -350.22391153 Ry
     Harris-Foulkes estimate   =    -350.22781567 Ry
     estimated scf accuracy    <       0.00588549 Ry

     iteration #  2     ecut=    60.00 Ry     beta= 0.70
     Davidson diagonalization with overlap
     ethr =  5.35E-05,  avg # of iterations =  2.0

     total cpu time spent up to now is        1.8 secs

     total energy              =    -350.22557226 Ry
     Harris-Foulkes estimate   =    -350.22765314 Ry
     estimated scf accuracy    <       0.00428609 Ry

     iteration #  3     ecut=    60.00 Ry     beta= 0.70
     Davidson diagonalization with overlap
     ethr =  3.90E-05,  avg # of iterations =  2.0

     total cpu time spent up to now is        2.1 secs

     total energy              =    -350.22640020 Ry
     Harris-Foulkes estimate   =    -350.22638418 Ry
     estimated scf accuracy    <       0.00001577 Ry

     iteration #  4     ecut=    60.00 Ry     beta= 0.70
     Davidson diagonalization with overlap
     ethr =  1.43E-07,  avg # of iterations =  2.6

     total cpu time spent up to now is        2.3 secs

     total energy              =    -350.22640849 Ry
     Harris-Foulkes estimate   =    -350.22640827 Ry
     estimated scf accuracy    <       0.00000047 Ry

     iteration #  5     ecut=    60.00 Ry     beta= 0.70
     Davidson diagonalization with overlap
     ethr =  4.31E-09,  avg # of iterations =  1.2

     total cpu time spent up to now is        2.5 secs

     End of self-consistent calculation

          k = 0.0000 0.0000 0.0000 (   893 PWs)   bands (ev):

     4.8022   7.8997   7.8997   7.8997   8.9545   8.9545  29.5394  32.8295
    32.8295  37.1511

          k =-0.2500 0.2500-0.2500 (   902 PWs)   bands (ev):

     6.2169   8.0982   8.1049   8.1049   9.0799   9.0799  23.8317  29.9506
    32.3548  32.3548

          k = 0.5000-0.5000 0.5000 (   886 PWs)   bands (ev):

     6.2664   7.8807   7.8807   9.7558   9.7558  12.1876  16.2424  28.5891
    30.8227  30.8227

          k = 0.0000 0.5000 0.0000 (   902 PWs)   bands (ev):

     6.6375   7.0970   8.7834   8.7834   8.8649   9.3303  27.3788  27.3788
    28.4679  29.6237

          k = 0.7500-0.2500 0.7500 (   898 PWs)   bands (ev):

     6.7537   7.3276   8.3688   8.7507   9.8132  13.6445  18.7682  23.8899
    26.3722  29.5103

          k = 0.5000 0.0000 0.5000 (   907 PWs)   bands (ev):

     7.3154   7.5558   7.9407   8.5698   8.9612  12.1085  21.9258  22.0415
    30.2383  30.4897

          k = 0.0000-1.0000 0.0000 (   934 PWs)   bands (ev):

     6.2378   6.3816   9.7264   9.9627   9.9627  14.2077  19.3682  23.4453
    23.4453  29.7353

          k =-0.5000-1.0000 0.0000 (   892 PWs)   bands (ev):

     6.9988   7.6128   7.6128   8.9618   9.9644  18.5945  18.5945  19.6727
    20.8438  36.0101

     the Fermi energy is    13.4779 ev

!    total energy              =    -350.22640852 Ry
     Harris-Foulkes estimate   =    -350.22640853 Ry
     estimated scf accuracy    <          7.6E-09 Ry

     total all-electron energy =    -10627.236817 Ry

     The total energy is the sum of the following terms:

     one-electron contribution =       1.63256013 Ry
     hartree contribution      =      14.55760619 Ry
     xc contribution           =     -22.14095606 Ry
     ewald contribution        =     -71.86118019 Ry
     one-center paw contrib.   =    -272.41396620 Ry
     smearing contrib. (-TS)   =      -0.00047239 Ry

     convergence has been achieved in   5 iterations

     Forces acting on atoms (cartesian axes, Ry/au):

     atom    1 type  1   force =     0.00000000    0.00000000    0.00000000

     Total force =     0.000000     Total SCF correction =     0.000000


     Computing stress (Cartesian axis) and pressure

          total   stress  (Ry/bohr**3)                   (kbar)     P=  -19.60
  -0.00013326   0.00000000  -0.00000000        -19.60      0.00     -0.00
   0.00000000  -0.00013326  -0.00000000          0.00    -19.60     -0.00
  -0.00000000  -0.00000000  -0.00013326         -0.00     -0.00    -19.60


     Writing output data file Ag.save/

     init_run     :      0.34s CPU      0.36s WALL (       1 calls)
     electrons    :      1.19s CPU      1.29s WALL (       1 calls)
     forces       :      0.03s CPU      0.03s WALL (       1 calls)
     stress       :      0.09s CPU      0.09s WALL (       1 calls)

     Called by init_run:
     wfcinit      :      0.03s CPU      0.04s WALL (       1 calls)
     potinit      :      0.12s CPU      0.13s WALL (       1 calls)
     hinit0       :      0.16s CPU      0.16s WALL (       1 calls)

     Called by electrons:
     c_bands      :      0.46s CPU      0.48s WALL (       6 calls)
     sum_band     :      0.14s CPU      0.14s WALL (       6 calls)
     v_of_rho     :      0.03s CPU      0.03s WALL (       6 calls)
     newd         :      0.04s CPU      0.06s WALL (       6 calls)
     PAW_pot      :      0.64s CPU      0.72s WALL (       6 calls)
     mix_rho      :      0.00s CPU      0.00s WALL (       6 calls)

     Called by c_bands:
     init_us_2    :      0.02s CPU      0.02s WALL (     120 calls)
     cegterg      :      0.44s CPU      0.46s WALL (      48 calls)

     Called by sum_band:
     sum_band:bec :      0.00s CPU      0.00s WALL (      48 calls)
     addusdens    :      0.05s CPU      0.05s WALL (       6 calls)

     Called by *egterg:
     h_psi        :      0.36s CPU      0.37s WALL (     188 calls)
     s_psi        :      0.01s CPU      0.01s WALL (     188 calls)
     g_psi        :      0.00s CPU      0.00s WALL (     132 calls)
     cdiaghg      :      0.04s CPU      0.05s WALL (     172 calls)

     Called by h_psi:
     h_psi:pot    :      0.36s CPU      0.37s WALL (     188 calls)
     h_psi:calbec :      0.02s CPU      0.02s WALL (     188 calls)
     vloc_psi     :      0.33s CPU      0.34s WALL (     188 calls)
     add_vuspsi   :      0.01s CPU      0.01s WALL (     188 calls)

     General routines
     calbec       :      0.03s CPU      0.03s WALL (     276 calls)
     fft          :      0.02s CPU      0.02s WALL (      93 calls)
     ffts         :      0.00s CPU      0.00s WALL (       6 calls)
     fftw         :      0.36s CPU      0.38s WALL (    2996 calls)

     Parallel routines
     fft_scatt_xy :      0.03s CPU      0.03s WALL (    3095 calls)
     fft_scatt_yz :      0.08s CPU      0.08s WALL (    3095 calls)

     PWSCF        :     2.46s CPU         2.62s WALL


   This run was terminated on:   0:26:20  27Mar2024            

=------------------------------------------------------------------------------=
   JOB DONE.
=------------------------------------------------------------------------------=
