
     Program PWSCF v.6.3MaX starts on 27Mar2024 at  0:23:59 

     This program is part of the open-source Quantum ESPRESSO suite
     for quantum simulation of materials; please cite
         "P. Giannozzi et al., J. Phys.:Condens. Matter 21 395502 (2009);
         "P. Giannozzi et al., J. Phys.:Condens. Matter 29 465901 (2017);
          URL http://www.quantum-espresso.org", 
     in publications or presentations arising from this work. More details at
     http://www.quantum-espresso.org/quote

     Parallel version (MPI), running on     5 processors

     MPI processes distributed on     1 nodes
     R & G space division:  proc/nbgrp/npool/nimage =       5
     Waiting for input...
     Reading input from standard input

     Current dimensions of program PWSCF are:
     Max number of different atomic species (ntypx) = 10
     Max number of k-points (npk) =  40000
     Max angular momentum in pseudopotentials (lmaxx) =  3
               file Ag.pbesol-n-kjpaw_psl.1.0.0.UPF: wavefunction(s)  5S 5P renormalized

     Subspace diagonalization in iterative solution of the eigenvalue problem:
     a serial algorithm will be used


     Parallelization info
     --------------------
     sticks:   dense  smooth     PW     G-vecs:    dense   smooth      PW
     Min          90      90     30                 1274     1274     227
     Max          91      91     31                 1276     1276     228
     Sum         451     451    151                 6375     6375    1139



     bravais-lattice index     =            2
     lattice parameter (alat)  =       7.7200  a.u.
     unit-cell volume          =     115.0249 (a.u.)^3
     number of atoms/cell      =            1
     number of atomic types    =            1
     number of electrons       =        11.00
     number of Kohn-Sham states=           10
     kinetic-energy cutoff     =      55.0000  Ry
     charge density cutoff     =     220.0000  Ry
     convergence threshold     =      1.0E-08
     mixing beta               =       0.7000
     number of iterations used =            8  plain     mixing
     Exchange-correlation      = SLA PW PSX PSC ( 1  4 10  8 0 0)

     celldm(1)=   7.720000  celldm(2)=   0.000000  celldm(3)=   0.000000
     celldm(4)=   0.000000  celldm(5)=   0.000000  celldm(6)=   0.000000

     crystal axes: (cart. coord. in units of alat)
               a(1) = (  -0.500000   0.000000   0.500000 )  
               a(2) = (   0.000000   0.500000   0.500000 )  
               a(3) = (  -0.500000   0.500000   0.000000 )  

     reciprocal axes: (cart. coord. in units 2 pi/alat)
               b(1) = ( -1.000000 -1.000000  1.000000 )  
               b(2) = (  1.000000  1.000000  1.000000 )  
               b(3) = ( -1.000000  1.000000 -1.000000 )  


     PseudoPot. # 1 for Ag read from file:
     /home/lorenzo/pseudos/Ag/Ag.pbesol-n-kjpaw_psl.1.0.0.UPF
     MD5 check sum: 3b245e14fa22881b2ac493bfd23f605f
     Pseudo is Projector augmented-wave + core cor, Zval = 11.0
     Generated using "atomic" code by A. Dal Corso v.6.2.2
     Shape of augmentation charge: PSQ
     Using radial grid of 1237 points,  6 beta functions with: 
                l(1) =   0
                l(2) =   0
                l(3) =   1
                l(4) =   1
                l(5) =   2
                l(6) =   2
     Q(r) pseudized with 0 coefficients 


     atomic species   valence    mass     pseudopotential
        Ag            11.00   107.86820     Ag( 1.00)

     48 Sym. Ops., with inversion, found



   Cartesian axes

     site n.     atom                  positions (alat units)
         1           Ag  tau(   1) = (   0.0000000   0.0000000   0.0000000  )

     number of k points=    10  gaussian smearing, width (Ry)=  0.0100
                       cart. coord. in units 2pi/alat
        k(    1) = (   0.0000000   0.0000000   0.0000000), wk =   0.0160000
        k(    2) = (  -0.2000000   0.2000000  -0.2000000), wk =   0.1280000
        k(    3) = (  -0.4000000   0.4000000  -0.4000000), wk =   0.1280000
        k(    4) = (   0.0000000   0.4000000   0.0000000), wk =   0.0960000
        k(    5) = (  -0.2000000   0.6000000  -0.2000000), wk =   0.3840000
        k(    6) = (   0.6000000  -0.2000000   0.6000000), wk =   0.3840000
        k(    7) = (   0.4000000   0.0000000   0.4000000), wk =   0.1920000
        k(    8) = (   0.0000000   0.8000000   0.0000000), wk =   0.0960000
        k(    9) = (   0.8000000   0.0000000   0.8000000), wk =   0.1920000
        k(   10) = (   0.6000000  -0.2000000   1.0000000), wk =   0.3840000

     Dense  grid:     6375 G-vectors     FFT dimensions: (  25,  25,  25)

     Estimated max dynamical RAM per process >       6.43 MB

     Estimated total dynamical RAM >      32.15 MB

     Initial potential from superposition of free atoms

     starting charge   10.99964, renormalised to   11.00000
     Starting wfcs are    9 randomized atomic wfcs +    1 random wfcs
     Checking if some PAW data can be deallocated... 

     total cpu time spent up to now is        1.1 secs

     Self-consistent Calculation

     iteration #  1     ecut=    55.00 Ry     beta= 0.70
     Davidson diagonalization with overlap
     ethr =  1.00E-02,  avg # of iterations =  4.7

     Threshold (ethr) on eigenvalues was too large:
     Diagonalizing with lowered threshold

     Davidson diagonalization with overlap
     ethr =  4.35E-05,  avg # of iterations =  2.1

     total cpu time spent up to now is        1.5 secs

     total energy              =    -350.24478101 Ry
     Harris-Foulkes estimate   =    -350.24821619 Ry
     estimated scf accuracy    <       0.00524667 Ry

     iteration #  2     ecut=    55.00 Ry     beta= 0.70
     Davidson diagonalization with overlap
     ethr =  4.77E-05,  avg # of iterations =  2.0

     total cpu time spent up to now is        1.7 secs

     total energy              =    -350.24627650 Ry
     Harris-Foulkes estimate   =    -350.24815049 Ry
     estimated scf accuracy    <       0.00388311 Ry

     iteration #  3     ecut=    55.00 Ry     beta= 0.70
     Davidson diagonalization with overlap
     ethr =  3.53E-05,  avg # of iterations =  1.9

     total cpu time spent up to now is        1.9 secs

     total energy              =    -350.24702517 Ry
     Harris-Foulkes estimate   =    -350.24700775 Ry
     estimated scf accuracy    <       0.00001466 Ry

     iteration #  4     ecut=    55.00 Ry     beta= 0.70
     Davidson diagonalization with overlap
     ethr =  1.33E-07,  avg # of iterations =  2.9

     total cpu time spent up to now is        2.1 secs

     total energy              =    -350.24703343 Ry
     Harris-Foulkes estimate   =    -350.24703326 Ry
     estimated scf accuracy    <       0.00000049 Ry

     iteration #  5     ecut=    55.00 Ry     beta= 0.70
     Davidson diagonalization with overlap
     ethr =  4.41E-09,  avg # of iterations =  1.2

     total cpu time spent up to now is        2.3 secs

     End of self-consistent calculation

          k = 0.0000 0.0000 0.0000 (   821 PWs)   bands (ev):

     4.8068   7.9240   7.9240   7.9240   8.9757   8.9757  29.5470  32.8296
    32.8296  32.8296

          k =-0.2000 0.2000-0.2000 (   800 PWs)   bands (ev):

     5.8855   7.8526   8.1318   8.1318   8.9859   8.9859  25.8212  30.2142
    32.6100  32.6100

          k =-0.4000 0.4000-0.4000 (   796 PWs)   bands (ev):

     6.3390   7.9567   7.9567   9.6294   9.6294  10.6752  18.2973  28.8684
    31.1935  31.1935

          k = 0.0000 0.4000 0.0000 (   801 PWs)   bands (ev):

     6.2456   7.3578   8.5117   8.5117   8.6142   9.2345  28.7749  28.7749
    29.6036  29.6735

          k =-0.2000 0.6000-0.2000 (   797 PWs)   bands (ev):

     6.7968   7.4780   8.1995   8.6118   9.7276  11.1247  21.3207  26.9026
    27.1349  29.7243

          k = 0.6000-0.2000 0.6000 (   785 PWs)   bands (ev):

     6.8695   7.5973   8.4188   8.4828   9.5935  14.2306  17.0370  24.2858
    28.5998  29.5181

          k = 0.4000 0.0000 0.4000 (   797 PWs)   bands (ev):

     7.1011   7.5010   8.0792   8.5618   8.6629  10.5288  23.8913  24.1870
    31.2690  32.9205

          k = 0.0000 0.8000 0.0000 (   789 PWs)   bands (ev):

     6.4137   6.5343   9.6724   9.7315   9.7315  12.2405  22.0006  24.1712
    24.1712  29.7252

          k = 0.8000 0.0000 0.8000 (   794 PWs)   bands (ev):

     6.5662   6.8756   8.9743   9.3646   9.8061  16.1034  19.1196  19.8004
    24.8149  29.6483

          k = 0.6000-0.2000 1.0000 (   794 PWs)   bands (ev):

     7.1140   7.2616   7.9213   9.1103   9.7199  14.8763  20.4724  20.9945
    23.1640  34.3680

     the Fermi energy is    12.2608 ev

!    total energy              =    -350.24703345 Ry
     Harris-Foulkes estimate   =    -350.24703345 Ry
     estimated scf accuracy    <          5.7E-09 Ry

     total all-electron energy =    -10627.257442 Ry

     The total energy is the sum of the following terms:

     one-electron contribution =       1.59845694 Ry
     hartree contribution      =      14.57269524 Ry
     xc contribution           =     -22.14393401 Ry
     ewald contribution        =     -71.86118025 Ry
     one-center paw contrib.   =    -272.41280649 Ry
     smearing contrib. (-TS)   =      -0.00026488 Ry

     convergence has been achieved in   5 iterations

     Forces acting on atoms (cartesian axes, Ry/au):

     atom    1 type  1   force =     0.00000000    0.00000000    0.00000000

     Total force =     0.000000     Total SCF correction =     0.000000


     Computing stress (Cartesian axis) and pressure

          total   stress  (Ry/bohr**3)                   (kbar)     P=  -48.59
  -0.00033033   0.00000000   0.00000000        -48.59      0.00      0.00
  -0.00000000  -0.00033033   0.00000000         -0.00    -48.59      0.00
   0.00000000   0.00000000  -0.00033033          0.00      0.00    -48.59


     Writing output data file Ag.save/

     init_run     :      0.29s CPU      0.31s WALL (       1 calls)
     electrons    :      1.12s CPU      1.21s WALL (       1 calls)
     forces       :      0.03s CPU      0.03s WALL (       1 calls)
     stress       :      0.08s CPU      0.08s WALL (       1 calls)

     Called by init_run:
     wfcinit      :      0.02s CPU      0.02s WALL (       1 calls)
     potinit      :      0.10s CPU      0.11s WALL (       1 calls)
     hinit0       :      0.15s CPU      0.15s WALL (       1 calls)

     Called by electrons:
     c_bands      :      0.46s CPU      0.48s WALL (       6 calls)
     sum_band     :      0.11s CPU      0.12s WALL (       6 calls)
     v_of_rho     :      0.02s CPU      0.02s WALL (       6 calls)
     newd         :      0.04s CPU      0.04s WALL (       6 calls)
     PAW_pot      :      0.58s CPU      0.65s WALL (       6 calls)
     mix_rho      :      0.00s CPU      0.00s WALL (       6 calls)

     Called by c_bands:
     init_us_2    :      0.02s CPU      0.02s WALL (     150 calls)
     cegterg      :      0.43s CPU      0.46s WALL (      60 calls)

     Called by sum_band:
     sum_band:bec :      0.00s CPU      0.00s WALL (      60 calls)
     addusdens    :      0.04s CPU      0.04s WALL (       6 calls)

     Called by *egterg:
     h_psi        :      0.33s CPU      0.35s WALL (     218 calls)
     s_psi        :      0.01s CPU      0.01s WALL (     218 calls)
     g_psi        :      0.00s CPU      0.00s WALL (     148 calls)
     cdiaghg      :      0.05s CPU      0.05s WALL (     198 calls)

     Called by h_psi:
     h_psi:pot    :      0.33s CPU      0.35s WALL (     218 calls)
     h_psi:calbec :      0.02s CPU      0.02s WALL (     218 calls)
     vloc_psi     :      0.30s CPU      0.32s WALL (     218 calls)
     add_vuspsi   :      0.01s CPU      0.01s WALL (     218 calls)

     General routines
     calbec       :      0.03s CPU      0.03s WALL (     328 calls)
     fft          :      0.01s CPU      0.02s WALL (      93 calls)
     ffts         :      0.00s CPU      0.00s WALL (       6 calls)
     fftw         :      0.33s CPU      0.35s WALL (    3726 calls)

     Parallel routines
     fft_scatt_xy :      0.03s CPU      0.03s WALL (    3825 calls)
     fft_scatt_yz :      0.09s CPU      0.09s WALL (    3825 calls)

     PWSCF        :     2.31s CPU         2.47s WALL


   This run was terminated on:   0:24: 1  27Mar2024            

=------------------------------------------------------------------------------=
   JOB DONE.
=------------------------------------------------------------------------------=
