
     Program PWSCF v.6.3MaX starts on 26Mar2024 at 11:14:23 

     This program is part of the open-source Quantum ESPRESSO suite
     for quantum simulation of materials; please cite
         "P. Giannozzi et al., J. Phys.:Condens. Matter 21 395502 (2009);
         "P. Giannozzi et al., J. Phys.:Condens. Matter 29 465901 (2017);
          URL http://www.quantum-espresso.org", 
     in publications or presentations arising from this work. More details at
     http://www.quantum-espresso.org/quote

     Parallel version (MPI), running on     5 processors

     MPI processes distributed on     1 nodes
     R & G space division:  proc/nbgrp/npool/nimage =       5
     Waiting for input...
     Reading input from standard input

     Current dimensions of program PWSCF are:
     Max number of different atomic species (ntypx) = 10
     Max number of k-points (npk) =  40000
     Max angular momentum in pseudopotentials (lmaxx) =  3
               file Au.pbe-n-kjpaw_psl.1.0.0.UPF: wavefunction(s)  6S 5D renormalized

     Subspace diagonalization in iterative solution of the eigenvalue problem:
     a serial algorithm will be used


     Parallelization info
     --------------------
     sticks:   dense  smooth     PW     G-vecs:    dense   smooth      PW
     Min          17      17      7                  106      106      27
     Max          17      17      8                  107      107      28
     Sum          85      85     37                  531      531     137



     bravais-lattice index     =            2
     lattice parameter (alat)  =       7.7100  a.u.
     unit-cell volume          =     114.5785 (a.u.)^3
     number of atoms/cell      =            1
     number of atomic types    =            1
     number of electrons       =        11.00
     number of Kohn-Sham states=           10
     kinetic-energy cutoff     =      10.0000  Ry
     charge density cutoff     =      40.0000  Ry
     convergence threshold     =      1.0E-08
     mixing beta               =       0.7000
     number of iterations used =            8  plain     mixing
     Exchange-correlation      = SLA PW PBX PBC ( 1  4  3  4 0 0)

     celldm(1)=   7.710000  celldm(2)=   0.000000  celldm(3)=   0.000000
     celldm(4)=   0.000000  celldm(5)=   0.000000  celldm(6)=   0.000000

     crystal axes: (cart. coord. in units of alat)
               a(1) = (  -0.500000   0.000000   0.500000 )  
               a(2) = (   0.000000   0.500000   0.500000 )  
               a(3) = (  -0.500000   0.500000   0.000000 )  

     reciprocal axes: (cart. coord. in units 2 pi/alat)
               b(1) = ( -1.000000 -1.000000  1.000000 )  
               b(2) = (  1.000000  1.000000  1.000000 )  
               b(3) = ( -1.000000  1.000000 -1.000000 )  


     PseudoPot. # 1 for Au read from file:
     /home/lorenzo/pseudos/Au/Au.pbe-n-kjpaw_psl.1.0.0.UPF
     MD5 check sum: 4db85c736373c707a97ce4c36c2a9d23
     Pseudo is Projector augmented-wave + core cor, Zval = 11.0
     Generated using "atomic" code by A. Dal Corso v.6.3
     Shape of augmentation charge: PSQ
     Using radial grid of 1279 points,  6 beta functions with: 
                l(1) =   0
                l(2) =   0
                l(3) =   1
                l(4) =   1
                l(5) =   2
                l(6) =   2
     Q(r) pseudized with 0 coefficients 


     atomic species   valence    mass     pseudopotential
        Au            11.00   196.96600     Au( 1.00)

     48 Sym. Ops., with inversion, found



   Cartesian axes

     site n.     atom                  positions (alat units)
         1           Au  tau(   1) = (   0.0000000   0.0000000   0.0000000  )

     number of k points=    10  gaussian smearing, width (Ry)=  0.0100
                       cart. coord. in units 2pi/alat
        k(    1) = (   0.0000000   0.0000000   0.0000000), wk =   0.0160000
        k(    2) = (  -0.2000000   0.2000000  -0.2000000), wk =   0.1280000
        k(    3) = (  -0.4000000   0.4000000  -0.4000000), wk =   0.1280000
        k(    4) = (   0.0000000   0.4000000   0.0000000), wk =   0.0960000
        k(    5) = (  -0.2000000   0.6000000  -0.2000000), wk =   0.3840000
        k(    6) = (   0.6000000  -0.2000000   0.6000000), wk =   0.3840000
        k(    7) = (   0.4000000   0.0000000   0.4000000), wk =   0.1920000
        k(    8) = (   0.0000000   0.8000000   0.0000000), wk =   0.0960000
        k(    9) = (   0.8000000   0.0000000   0.8000000), wk =   0.1920000
        k(   10) = (   0.6000000  -0.2000000   1.0000000), wk =   0.3840000

     Dense  grid:      531 G-vectors     FFT dimensions: (  12,  12,  12)

     Estimated max dynamical RAM per process >       1.05 MB

     Estimated total dynamical RAM >       5.25 MB

     Check: negative/imaginary core charge=   -0.000057    0.000000

     Initial potential from superposition of free atoms

     starting charge   10.99989, renormalised to   11.00000

     negative rho (up, down):  4.368E-05 0.000E+00
     Starting wfcs are    9 randomized atomic wfcs +    1 random wfcs
     Checking if some PAW data can be deallocated... 

     total cpu time spent up to now is        1.2 secs

     Self-consistent Calculation

     iteration #  1     ecut=    10.00 Ry     beta= 0.70
     Davidson diagonalization with overlap
     ethr =  1.00E-02,  avg # of iterations =  4.2

     total cpu time spent up to now is        1.4 secs

     total energy              =    -773.51622875 Ry
     Harris-Foulkes estimate   =    -774.11486916 Ry
     estimated scf accuracy    <       0.76771697 Ry

     iteration #  2     ecut=    10.00 Ry     beta= 0.70
     Davidson diagonalization with overlap
     ethr =  6.98E-03,  avg # of iterations =  2.0

     total cpu time spent up to now is        1.6 secs

     total energy              =    -773.73049438 Ry
     Harris-Foulkes estimate   =    -773.73832841 Ry
     estimated scf accuracy    <       0.03793793 Ry

     iteration #  3     ecut=    10.00 Ry     beta= 0.70
     Davidson diagonalization with overlap
     ethr =  3.45E-04,  avg # of iterations =  1.8

     total cpu time spent up to now is        1.7 secs

     total energy              =    -773.73420708 Ry
     Harris-Foulkes estimate   =    -773.73341101 Ry
     estimated scf accuracy    <       0.00210385 Ry

     iteration #  4     ecut=    10.00 Ry     beta= 0.70
     Davidson diagonalization with overlap
     ethr =  1.91E-05,  avg # of iterations =  2.4

     total cpu time spent up to now is        1.9 secs

     total energy              =    -773.73429127 Ry
     Harris-Foulkes estimate   =    -773.73429311 Ry
     estimated scf accuracy    <       0.00000545 Ry

     iteration #  5     ecut=    10.00 Ry     beta= 0.70
     Davidson diagonalization with overlap
     ethr =  4.96E-08,  avg # of iterations =  2.4

     total cpu time spent up to now is        2.0 secs

     total energy              =    -773.73429316 Ry
     Harris-Foulkes estimate   =    -773.73429314 Ry
     estimated scf accuracy    <       0.00000008 Ry

     iteration #  6     ecut=    10.00 Ry     beta= 0.70
     Davidson diagonalization with overlap
     ethr =  6.82E-10,  avg # of iterations =  2.1

     total cpu time spent up to now is        2.2 secs

     total energy              =    -773.73429317 Ry
     Harris-Foulkes estimate   =    -773.73429318 Ry
     estimated scf accuracy    <       0.00000002 Ry

     iteration #  7     ecut=    10.00 Ry     beta= 0.70
     Davidson diagonalization with overlap
     ethr =  1.84E-10,  avg # of iterations =  1.3

     total cpu time spent up to now is        2.3 secs

     End of self-consistent calculation

          k = 0.0000 0.0000 0.0000 (    59 PWs)   bands (ev):

     6.2026   9.8679   9.8679   9.8679  12.1891  12.1891  32.4685  35.6584
    35.6584  35.6584

          k =-0.2000 0.2000-0.2000 (    62 PWs)   bands (ev):

     7.3591  10.0286  10.2404  10.2404  11.6791  11.6791  30.0524  33.9670
    36.7117  36.7117

          k =-0.4000 0.4000-0.4000 (    61 PWs)   bands (ev):

     8.0962  10.1118  10.1118  13.4606  13.5577  13.5577  21.7871  32.1061
    34.2640  34.2640

          k = 0.0000 0.4000 0.0000 (    60 PWs)   bands (ev):

     7.8156   9.2016  11.0394  11.1128  11.1128  12.7915  33.3585  33.3799
    33.3799  35.2008

          k =-0.2000 0.6000-0.2000 (    66 PWs)   bands (ev):

     8.5609   9.5839  10.3908  11.0501  12.4874  14.0738  24.5321  30.9712
    31.9249  34.8521

          k = 0.6000-0.2000 0.6000 (    60 PWs)   bands (ev):

     8.8344  10.1784  10.9907  11.4802  13.3458  17.7628  20.3648  28.9610
    32.6423  34.0611

          k = 0.4000 0.0000 0.4000 (    61 PWs)   bands (ev):

     8.8070  10.0286  10.5369  11.0505  11.3298  14.0566  26.8082  30.5422
    34.9532  37.8318

          k = 0.0000 0.8000 0.0000 (    64 PWs)   bands (ev):

     8.2437   8.4514  13.0265  13.0265  13.1309  14.7945  24.5773  27.2211
    27.2211  36.1039

          k = 0.8000 0.0000 0.8000 (    60 PWs)   bands (ev):

     8.5385   9.2008  12.4594  13.1717  13.2726  20.0408  20.3553  25.0543
    28.1699  37.4308

          k = 0.6000-0.2000 1.0000 (    61 PWs)   bands (ev):

     9.5805   9.6015  10.3233  12.1687  13.1665  18.0647  23.0885  25.1502
    29.2763  38.3334

     the Fermi energy is    14.8147 ev

!    total energy              =    -773.73429317 Ry
     Harris-Foulkes estimate   =    -773.73429317 Ry
     estimated scf accuracy    <          5.2E-11 Ry

     total all-electron energy =    -38022.580384 Ry

     The total energy is the sum of the following terms:

     one-electron contribution =      15.63932182 Ry
     hartree contribution      =       5.76731965 Ry
     xc contribution           =     -31.22667221 Ry
     ewald contribution        =     -71.95438535 Ry
     one-center paw contrib.   =    -691.95961220 Ry
     smearing contrib. (-TS)   =      -0.00026488 Ry

     convergence has been achieved in   7 iterations

     Forces acting on atoms (cartesian axes, Ry/au):

     atom    1 type  1   force =     0.00000000    0.00000000    0.00000000

     Total force =     0.000000     Total SCF correction =     0.000000


     Computing stress (Cartesian axis) and pressure

          total   stress  (Ry/bohr**3)                   (kbar)     P=-4632.26
  -0.03148945  -0.00000000  -0.00000000      -4632.26     -0.00     -0.00
  -0.00000000  -0.03148945   0.00000000         -0.00  -4632.26      0.00
  -0.00000000   0.00000000  -0.03148945         -0.00      0.00  -4632.26


     Writing output data file Au.save/

     init_run     :      0.21s CPU      0.23s WALL (       1 calls)
     electrons    :      0.99s CPU      1.17s WALL (       1 calls)
     forces       :      0.00s CPU      0.01s WALL (       1 calls)
     stress       :      0.01s CPU      0.01s WALL (       1 calls)

     Called by init_run:
     wfcinit      :      0.01s CPU      0.01s WALL (       1 calls)
     potinit      :      0.12s CPU      0.13s WALL (       1 calls)
     hinit0       :      0.07s CPU      0.07s WALL (       1 calls)

     Called by electrons:
     c_bands      :      0.15s CPU      0.18s WALL (       7 calls)
     sum_band     :      0.04s CPU      0.04s WALL (       7 calls)
     v_of_rho     :      0.00s CPU      0.00s WALL (       8 calls)
     newd         :      0.01s CPU      0.01s WALL (       8 calls)
     PAW_pot      :      0.90s CPU      1.04s WALL (       8 calls)
     mix_rho      :      0.01s CPU      0.01s WALL (       7 calls)

     Called by c_bands:
     init_us_2    :      0.00s CPU      0.00s WALL (     170 calls)
     cegterg      :      0.15s CPU      0.18s WALL (      70 calls)

     Called by sum_band:
     sum_band:bec :      0.00s CPU      0.00s WALL (      70 calls)
     addusdens    :      0.00s CPU      0.00s WALL (       7 calls)

     Called by *egterg:
     h_psi        :      0.08s CPU      0.10s WALL (     242 calls)
     s_psi        :      0.00s CPU      0.00s WALL (     242 calls)
     g_psi        :      0.00s CPU      0.00s WALL (     162 calls)
     cdiaghg      :      0.05s CPU      0.06s WALL (     232 calls)

     Called by h_psi:
     h_psi:pot    :      0.08s CPU      0.10s WALL (     242 calls)
     h_psi:calbec :      0.01s CPU      0.01s WALL (     242 calls)
     vloc_psi     :      0.07s CPU      0.09s WALL (     242 calls)
     add_vuspsi   :      0.00s CPU      0.00s WALL (     242 calls)

     General routines
     calbec       :      0.01s CPU      0.01s WALL (     362 calls)
     fft          :      0.00s CPU      0.01s WALL (     114 calls)
     ffts         :      0.00s CPU      0.00s WALL (       7 calls)
     fftw         :      0.08s CPU      0.10s WALL (    4316 calls)

     Parallel routines
     fft_scatt_xy :      0.01s CPU      0.01s WALL (    4437 calls)
     fft_scatt_yz :      0.04s CPU      0.06s WALL (    4437 calls)

     PWSCF        :     2.17s CPU         2.43s WALL


   This run was terminated on:  11:14:25  26Mar2024            

=------------------------------------------------------------------------------=
   JOB DONE.
=------------------------------------------------------------------------------=
