
     Program PWSCF v.6.3MaX starts on 26Mar2024 at 12:19:55 

     This program is part of the open-source Quantum ESPRESSO suite
     for quantum simulation of materials; please cite
         "P. Giannozzi et al., J. Phys.:Condens. Matter 21 395502 (2009);
         "P. Giannozzi et al., J. Phys.:Condens. Matter 29 465901 (2017);
          URL http://www.quantum-espresso.org", 
     in publications or presentations arising from this work. More details at
     http://www.quantum-espresso.org/quote

     Parallel version (MPI), running on     5 processors

     MPI processes distributed on     1 nodes
     R & G space division:  proc/nbgrp/npool/nimage =       5
     Waiting for input...
     Reading input from standard input

     Current dimensions of program PWSCF are:
     Max number of different atomic species (ntypx) = 10
     Max number of k-points (npk) =  40000
     Max angular momentum in pseudopotentials (lmaxx) =  3

     Subspace diagonalization in iterative solution of the eigenvalue problem:
     a serial algorithm will be used


     Parallelization info
     --------------------
     sticks:   dense  smooth     PW     G-vecs:    dense   smooth      PW
     Min         129     129     32                 2201     2201     280
     Max         130     130     33                 2204     2204     283
     Sum         649     649    163                11017    11017    1411



     bravais-lattice index     =            2
     lattice parameter (alat)  =       7.7100  a.u.
     unit-cell volume          =     114.5785 (a.u.)^3
     number of atoms/cell      =            1
     number of atomic types    =            1
     number of electrons       =        11.00
     number of Kohn-Sham states=           10
     kinetic-energy cutoff     =      80.0000  Ry
     charge density cutoff     =     320.0000  Ry
     convergence threshold     =      1.0E-08
     mixing beta               =       0.7000
     number of iterations used =            8  plain     mixing
     Exchange-correlation      = PBESOL ( 1  4 10  8 0 0)

     celldm(1)=   7.710000  celldm(2)=   0.000000  celldm(3)=   0.000000
     celldm(4)=   0.000000  celldm(5)=   0.000000  celldm(6)=   0.000000

     crystal axes: (cart. coord. in units of alat)
               a(1) = (  -0.500000   0.000000   0.500000 )  
               a(2) = (   0.000000   0.500000   0.500000 )  
               a(3) = (  -0.500000   0.500000   0.000000 )  

     reciprocal axes: (cart. coord. in units 2 pi/alat)
               b(1) = ( -1.000000 -1.000000  1.000000 )  
               b(2) = (  1.000000  1.000000  1.000000 )  
               b(3) = ( -1.000000  1.000000 -1.000000 )  


     PseudoPot. # 1 for Au read from file:
     /home/lorenzo/pseudos/Au/Au.pbesol-n-rrkjus_psl.1.0.0.UPF
     MD5 check sum: 09626e9411213730b9a56fcc59c03ca8
     Pseudo is Ultrasoft + core correction, Zval = 11.0
     Generated using "atomic" code by A. Dal Corso v.6.3
     Using radial grid of 1279 points,  6 beta functions with: 
                l(1) =   0
                l(2) =   0
                l(3) =   1
                l(4) =   1
                l(5) =   2
                l(6) =   2
     Q(r) pseudized with 0 coefficients 


     atomic species   valence    mass     pseudopotential
        Au            11.00   196.96600     Au( 1.00)

     48 Sym. Ops., with inversion, found



   Cartesian axes

     site n.     atom                  positions (alat units)
         1           Au  tau(   1) = (   0.0000000   0.0000000   0.0000000  )

     number of k points=     1  gaussian smearing, width (Ry)=  0.0100
                       cart. coord. in units 2pi/alat
        k(    1) = (   0.0000000   0.0000000   0.0000000), wk =   2.0000000

     Dense  grid:    11017 G-vectors     FFT dimensions: (  32,  32,  32)

     Estimated max dynamical RAM per process >      10.04 MB

     Estimated total dynamical RAM >      50.19 MB

     Initial potential from superposition of free atoms

     starting charge   10.99990, renormalised to   11.00000
     Starting wfcs are    9 randomized atomic wfcs +    1 random wfcs

     total cpu time spent up to now is        1.1 secs

     Self-consistent Calculation

     iteration #  1     ecut=    80.00 Ry     beta= 0.70
     Davidson diagonalization with overlap
     ethr =  1.00E-02,  avg # of iterations = 12.0

     Threshold (ethr) on eigenvalues was too large:
     Diagonalizing with lowered threshold

     Davidson diagonalization with overlap
     ethr =  9.60E-04,  avg # of iterations =  1.0

     negative rho (up, down):  6.898E-03 0.000E+00

     total cpu time spent up to now is        1.1 secs

     total energy              =     -85.99355698 Ry
     Harris-Foulkes estimate   =     -86.04475595 Ry
     estimated scf accuracy    <       0.10569385 Ry

     iteration #  2     ecut=    80.00 Ry     beta= 0.70
     Davidson diagonalization with overlap
     ethr =  9.61E-04,  avg # of iterations =  6.0

     total cpu time spent up to now is        1.2 secs

     total energy              =     -45.36368798 Ry
     Harris-Foulkes estimate   =    -113.21534408 Ry
     estimated scf accuracy    <  173606.85827493 Ry

     iteration #  3     ecut=    80.00 Ry     beta= 0.70
     Davidson diagonalization with overlap
     ethr =  9.61E-04,  avg # of iterations =  3.0

     total cpu time spent up to now is        1.3 secs

     total energy              =     -86.00594672 Ry
     Harris-Foulkes estimate   =     -86.00980890 Ry
     estimated scf accuracy    <       0.02015945 Ry

     iteration #  4     ecut=    80.00 Ry     beta= 0.70
     Davidson diagonalization with overlap
     ethr =  1.83E-04,  avg # of iterations =  1.0

     total cpu time spent up to now is        1.3 secs

     total energy              =     -86.00701365 Ry
     Harris-Foulkes estimate   =     -86.00708055 Ry
     estimated scf accuracy    <       0.01048459 Ry

     iteration #  5     ecut=    80.00 Ry     beta= 0.70
     Davidson diagonalization with overlap
     ethr =  9.53E-05,  avg # of iterations =  1.0

     total cpu time spent up to now is        1.3 secs

     total energy              =     -86.00710079 Ry
     Harris-Foulkes estimate   =     -86.00710489 Ry
     estimated scf accuracy    <       0.00817785 Ry

     iteration #  6     ecut=    80.00 Ry     beta= 0.70
     Davidson diagonalization with overlap
     ethr =  7.43E-05,  avg # of iterations =  1.0

     total cpu time spent up to now is        1.4 secs

     total energy              =     -86.00711990 Ry
     Harris-Foulkes estimate   =     -86.00712918 Ry
     estimated scf accuracy    <       0.00733147 Ry

     iteration #  7     ecut=    80.00 Ry     beta= 0.70
     Davidson diagonalization with overlap
     ethr =  6.66E-05,  avg # of iterations = 11.0

     total cpu time spent up to now is        1.4 secs

     total energy              =     -86.00711018 Ry
     Harris-Foulkes estimate   =     -86.00713152 Ry
     estimated scf accuracy    <       0.00673702 Ry

     iteration #  8     ecut=    80.00 Ry     beta= 0.70
     Davidson diagonalization with overlap
     ethr =  6.12E-05,  avg # of iterations =  1.0

     total cpu time spent up to now is        1.5 secs

     total energy              =     -86.00711816 Ry
     Harris-Foulkes estimate   =     -86.00711396 Ry
     estimated scf accuracy    <       0.00658487 Ry

     iteration #  9     ecut=    80.00 Ry     beta= 0.70
     Davidson diagonalization with overlap
     ethr =  5.99E-05,  avg # of iterations =  1.0

     total cpu time spent up to now is        1.5 secs

     total energy              =     -86.00711910 Ry
     Harris-Foulkes estimate   =     -86.00711957 Ry
     estimated scf accuracy    <       0.00645023 Ry

     iteration # 10     ecut=    80.00 Ry     beta= 0.70
     Davidson diagonalization with overlap
     ethr =  5.86E-05,  avg # of iterations =  1.0

     total cpu time spent up to now is        1.6 secs

     total energy              =     -86.00712041 Ry
     Harris-Foulkes estimate   =     -86.00711955 Ry
     estimated scf accuracy    <       0.00639138 Ry

     iteration # 11     ecut=    80.00 Ry     beta= 0.70
     Davidson diagonalization with overlap
     ethr =  5.81E-05,  avg # of iterations =  1.0

     total cpu time spent up to now is        1.6 secs

     total energy              =     -86.00715598 Ry
     Harris-Foulkes estimate   =     -86.00712067 Ry
     estimated scf accuracy    <       0.00633122 Ry

     iteration # 12     ecut=    80.00 Ry     beta= 0.70
     Davidson diagonalization with overlap
     ethr =  5.76E-05,  avg # of iterations =  1.0

     total cpu time spent up to now is        1.6 secs

     total energy              =     -86.00696660 Ry
     Harris-Foulkes estimate   =     -86.00719689 Ry
     estimated scf accuracy    <       0.00686912 Ry

     iteration # 13     ecut=    80.00 Ry     beta= 0.70
     Davidson diagonalization with overlap
     ethr =  5.76E-05,  avg # of iterations =  1.0

     total cpu time spent up to now is        1.7 secs

     total energy              =     -86.00705910 Ry
     Harris-Foulkes estimate   =     -86.00698993 Ry
     estimated scf accuracy    <       0.00659012 Ry

     iteration # 14     ecut=    80.00 Ry     beta= 0.70
     Davidson diagonalization with overlap
     ethr =  5.76E-05,  avg # of iterations =  1.0

     total cpu time spent up to now is        1.7 secs

     total energy              =     -86.00708875 Ry
     Harris-Foulkes estimate   =     -86.00706001 Ry
     estimated scf accuracy    <       0.00653366 Ry

     iteration # 15     ecut=    80.00 Ry     beta= 0.70
     Davidson diagonalization with overlap
     ethr =  5.76E-05,  avg # of iterations =  1.0

     total cpu time spent up to now is        1.8 secs

     total energy              =     -86.00710097 Ry
     Harris-Foulkes estimate   =     -86.00708933 Ry
     estimated scf accuracy    <       0.00659034 Ry

     iteration # 16     ecut=    80.00 Ry     beta= 0.70
     Davidson diagonalization with overlap
     ethr =  5.76E-05,  avg # of iterations =  1.0

     total cpu time spent up to now is        1.8 secs

     total energy              =     -86.00746862 Ry
     Harris-Foulkes estimate   =     -86.00710120 Ry
     estimated scf accuracy    <       0.00661571 Ry

     iteration # 17     ecut=    80.00 Ry     beta= 0.70
     Davidson diagonalization with overlap
     ethr =  5.76E-05,  avg # of iterations =  1.0

     total cpu time spent up to now is        1.9 secs

     total energy              =     -86.00760879 Ry
     Harris-Foulkes estimate   =     -86.00750974 Ry
     estimated scf accuracy    <       0.00870051 Ry

     iteration # 18     ecut=    80.00 Ry     beta= 0.70
     Davidson diagonalization with overlap
     ethr =  5.76E-05,  avg # of iterations =  1.0

     total cpu time spent up to now is        1.9 secs

     total energy              =     -86.00738220 Ry
     Harris-Foulkes estimate   =     -86.00761772 Ry
     estimated scf accuracy    <       0.00909374 Ry

     iteration # 19     ecut=    80.00 Ry     beta= 0.70
     Davidson diagonalization with overlap
     ethr =  5.76E-05,  avg # of iterations =  1.0

     total cpu time spent up to now is        2.0 secs

     total energy              =     -86.00680122 Ry
     Harris-Foulkes estimate   =     -86.00738481 Ry
     estimated scf accuracy    <       0.00889800 Ry

     iteration # 20     ecut=    80.00 Ry     beta= 0.70
     Davidson diagonalization with overlap
     ethr =  5.76E-05,  avg # of iterations =  6.0

     total cpu time spent up to now is        2.0 secs

     total energy              =     -86.00673662 Ry
     Harris-Foulkes estimate   =     -86.00686325 Ry
     estimated scf accuracy    <       0.00717752 Ry

     iteration # 21     ecut=    80.00 Ry     beta= 0.70
     Davidson diagonalization with overlap
     ethr =  5.76E-05,  avg # of iterations =  1.0

     total cpu time spent up to now is        2.0 secs

     total energy              =     -86.00694526 Ry
     Harris-Foulkes estimate   =     -86.00677728 Ry
     estimated scf accuracy    <       0.00767214 Ry

     iteration # 22     ecut=    80.00 Ry     beta= 0.70
     Davidson diagonalization with overlap
     ethr =  5.76E-05,  avg # of iterations =  1.0

     total cpu time spent up to now is        2.1 secs

     total energy              =     -86.00616181 Ry
     Harris-Foulkes estimate   =     -86.00694910 Ry
     estimated scf accuracy    <       0.00742395 Ry

     iteration # 23     ecut=    80.00 Ry     beta= 0.70
     Davidson diagonalization with overlap
     ethr =  5.76E-05,  avg # of iterations =  1.0

     total cpu time spent up to now is        2.1 secs

     total energy              =     -86.00588197 Ry
     Harris-Foulkes estimate   =     -86.00625194 Ry
     estimated scf accuracy    <       0.00584000 Ry

     iteration # 24     ecut=    80.00 Ry     beta= 0.70
     Davidson diagonalization with overlap
     ethr =  5.31E-05,  avg # of iterations =  1.0

     total cpu time spent up to now is        2.2 secs

     total energy              =     -86.00668747 Ry
     Harris-Foulkes estimate   =     -86.00591742 Ry
     estimated scf accuracy    <       0.00488231 Ry

     iteration # 25     ecut=    80.00 Ry     beta= 0.70
     Davidson diagonalization with overlap
     ethr =  4.44E-05,  avg # of iterations =  1.0

     total cpu time spent up to now is        2.2 secs

     total energy              =     -86.00815979 Ry
     Harris-Foulkes estimate   =     -86.00673508 Ry
     estimated scf accuracy    <       0.00577644 Ry

     iteration # 26     ecut=    80.00 Ry     beta= 0.70
     Davidson diagonalization with overlap
     ethr =  4.44E-05,  avg # of iterations =  3.0

     total cpu time spent up to now is        2.2 secs

     total energy              =     -86.00587788 Ry
     Harris-Foulkes estimate   =     -86.00886546 Ry
     estimated scf accuracy    <       0.01922742 Ry

     iteration # 27     ecut=    80.00 Ry     beta= 0.70
     Davidson diagonalization with overlap
     ethr =  4.44E-05,  avg # of iterations =  2.0

     total cpu time spent up to now is        2.3 secs

     total energy              =     -86.00581899 Ry
     Harris-Foulkes estimate   =     -86.00670674 Ry
     estimated scf accuracy    <       0.00582360 Ry

     iteration # 28     ecut=    80.00 Ry     beta= 0.70
     Davidson diagonalization with overlap
     ethr =  4.44E-05,  avg # of iterations =  1.0

     total cpu time spent up to now is        2.3 secs

     total energy              =     -86.00607152 Ry
     Harris-Foulkes estimate   =     -86.00593187 Ry
     estimated scf accuracy    <       0.00419611 Ry

     iteration # 29     ecut=    80.00 Ry     beta= 0.70
     Davidson diagonalization with overlap
     ethr =  3.81E-05,  avg # of iterations =  1.0

     total cpu time spent up to now is        2.4 secs

     total energy              =     -86.00592961 Ry
     Harris-Foulkes estimate   =     -86.00608721 Ry
     estimated scf accuracy    <       0.00405601 Ry

     iteration # 30     ecut=    80.00 Ry     beta= 0.70
     Davidson diagonalization with overlap
     ethr =  3.69E-05,  avg # of iterations =  1.0

     total cpu time spent up to now is        2.4 secs

     total energy              =     -86.00506314 Ry
     Harris-Foulkes estimate   =     -86.00593570 Ry
     estimated scf accuracy    <       0.00393312 Ry

     iteration # 31     ecut=    80.00 Ry     beta= 0.70
     Davidson diagonalization with overlap
     ethr =  3.58E-05,  avg # of iterations =  1.0

     total cpu time spent up to now is        2.5 secs

     total energy              =     -86.00525235 Ry
     Harris-Foulkes estimate   =     -86.00517010 Ry
     estimated scf accuracy    <       0.00314767 Ry

     iteration # 32     ecut=    80.00 Ry     beta= 0.70
     Davidson diagonalization with overlap
     ethr =  2.86E-05,  avg # of iterations =  1.0

     total cpu time spent up to now is        2.5 secs

     total energy              =     -86.00458112 Ry
     Harris-Foulkes estimate   =     -86.00526678 Ry
     estimated scf accuracy    <       0.00301581 Ry

     iteration # 33     ecut=    80.00 Ry     beta= 0.70
     Davidson diagonalization with overlap
     ethr =  2.74E-05,  avg # of iterations =  1.0

     total cpu time spent up to now is        2.6 secs

     total energy              =     -86.00461003 Ry
     Harris-Foulkes estimate   =     -86.00465584 Ry
     estimated scf accuracy    <       0.00253374 Ry

     iteration # 34     ecut=    80.00 Ry     beta= 0.70
     Davidson diagonalization with overlap
     ethr =  2.30E-05,  avg # of iterations =  1.0

     negative rho (up, down):  9.723E-03 0.000E+00

     total cpu time spent up to now is        2.6 secs

     total energy              =     -85.99211550 Ry
     Harris-Foulkes estimate   =     -86.00461904 Ry
     estimated scf accuracy    <       0.00251755 Ry

     iteration # 35     ecut=    80.00 Ry     beta= 0.70
     Davidson diagonalization with overlap
     ethr =  2.29E-05,  avg # of iterations =  6.0

     total cpu time spent up to now is        2.7 secs

     total energy              =     -61.72838936 Ry
     Harris-Foulkes estimate   =    -138.69506129 Ry
     estimated scf accuracy    <  193800.99949357 Ry

     iteration # 36     ecut=    80.00 Ry     beta= 0.70
     Davidson diagonalization with overlap
     ethr =  2.29E-05,  avg # of iterations =  4.0

     negative rho (up, down):  3.268E-03 0.000E+00

     total cpu time spent up to now is        2.7 secs

     total energy              =     -86.00088828 Ry
     Harris-Foulkes estimate   =     -86.00456738 Ry
     estimated scf accuracy    <       0.00183444 Ry

     iteration # 37     ecut=    80.00 Ry     beta= 0.70
     Davidson diagonalization with overlap
     ethr =  1.67E-05,  avg # of iterations =  3.0

     negative rho (up, down):  5.718E-03 0.000E+00

     total cpu time spent up to now is        2.8 secs

     total energy              =    -108.13771901 Ry
     Harris-Foulkes estimate   =     -94.45571784 Ry
     estimated scf accuracy    <  134123.10097847 Ry

     iteration # 38     ecut=    80.00 Ry     beta= 0.70
     Davidson diagonalization with overlap
     ethr =  1.67E-05,  avg # of iterations =  3.0

     negative rho (up, down):  1.109E-01 0.000E+00

     total cpu time spent up to now is        2.8 secs

     total energy              =     236.78516288 Ry
     Harris-Foulkes estimate   =    -109.06013445 Ry
     estimated scf accuracy    <  167857.07301836 Ry

     iteration # 39     ecut=    80.00 Ry     beta= 0.70
     Davidson diagonalization with overlap
     ethr =  1.67E-05,  avg # of iterations = 15.0

     negative rho (up, down):  4.217E-02 0.000E+00

     total cpu time spent up to now is        2.8 secs

     total energy              =     144.22005606 Ry
     Harris-Foulkes estimate   =    -370.29570504 Ry
     estimated scf accuracy    <  220452.29318989 Ry

     iteration # 40     ecut=    80.00 Ry     beta= 0.70
     Davidson diagonalization with overlap
     ethr =  1.67E-05,  avg # of iterations =  5.0

     total cpu time spent up to now is        2.9 secs

     total energy              =     -62.58086421 Ry
     Harris-Foulkes estimate   =    -221.30536303 Ry
     estimated scf accuracy    <  211914.63311258 Ry

     iteration # 41     ecut=    80.00 Ry     beta= 0.70
     Davidson diagonalization with overlap
     ethr =  1.67E-05,  avg # of iterations =  4.0

     total cpu time spent up to now is        2.9 secs

     total energy              =     -86.00477727 Ry
     Harris-Foulkes estimate   =     -86.00427493 Ry
     estimated scf accuracy    <       0.00098312 Ry

     iteration # 42     ecut=    80.00 Ry     beta= 0.70
     Davidson diagonalization with overlap
     ethr =  8.94E-06,  avg # of iterations =  3.0

     total cpu time spent up to now is        3.0 secs

     total energy              =     -86.00541312 Ry
     Harris-Foulkes estimate   =     -86.00505434 Ry
     estimated scf accuracy    <       0.00175531 Ry

     iteration # 43     ecut=    80.00 Ry     beta= 0.70
     Davidson diagonalization with overlap
     ethr =  8.94E-06,  avg # of iterations =  3.0

     total cpu time spent up to now is        3.0 secs

     total energy              =     -86.00635728 Ry
     Harris-Foulkes estimate   =     -86.00543435 Ry
     estimated scf accuracy    <       0.00198294 Ry

     iteration # 44     ecut=    80.00 Ry     beta= 0.70
     Davidson diagonalization with overlap
     ethr =  8.94E-06,  avg # of iterations =  3.0

     negative rho (up, down):  1.822E-03 0.000E+00

     total cpu time spent up to now is        3.1 secs

     total energy              =     -86.00026458 Ry
     Harris-Foulkes estimate   =     -86.00656288 Ry
     estimated scf accuracy    <       0.00348228 Ry

     iteration # 45     ecut=    80.00 Ry     beta= 0.70
     Davidson diagonalization with overlap
     ethr =  8.94E-06,  avg # of iterations =  4.0

     total cpu time spent up to now is        3.1 secs

     total energy              =     -64.26956973 Ry
     Harris-Foulkes estimate   =     -87.14544091 Ry
     estimated scf accuracy    <  101438.80484143 Ry

     iteration # 46     ecut=    80.00 Ry     beta= 0.70
     Davidson diagonalization with overlap
     ethr =  8.94E-06,  avg # of iterations =  4.0

     total cpu time spent up to now is        3.2 secs

     total energy              =     -86.00768040 Ry
     Harris-Foulkes estimate   =     -86.00588921 Ry
     estimated scf accuracy    <       0.00246083 Ry

     iteration # 47     ecut=    80.00 Ry     beta= 0.70
     Davidson diagonalization with overlap
     ethr =  8.94E-06,  avg # of iterations =  4.0

     total cpu time spent up to now is        3.2 secs

     total energy              =     -86.00112144 Ry
     Harris-Foulkes estimate   =     -86.00886477 Ry
     estimated scf accuracy    <       0.01410702 Ry

     iteration # 48     ecut=    80.00 Ry     beta= 0.70
     Davidson diagonalization with overlap
     ethr =  8.94E-06,  avg # of iterations =  4.0

     total cpu time spent up to now is        3.3 secs

     total energy              =     -86.00562142 Ry
     Harris-Foulkes estimate   =     -86.00484099 Ry
     estimated scf accuracy    <       0.00163053 Ry

     iteration # 49     ecut=    80.00 Ry     beta= 0.70
     Davidson diagonalization with overlap
     ethr =  8.94E-06,  avg # of iterations =  3.0

     negative rho (up, down):  5.218E-03 0.000E+00

     total cpu time spent up to now is        3.3 secs

     total energy              =     -85.99710461 Ry
     Harris-Foulkes estimate   =     -86.00578087 Ry
     estimated scf accuracy    <       0.00252871 Ry

     iteration # 50     ecut=    80.00 Ry     beta= 0.70
     Davidson diagonalization with overlap
     ethr =  8.94E-06,  avg # of iterations =  5.0

     negative rho (up, down):  3.060E-03 0.000E+00

     total cpu time spent up to now is        3.4 secs

     total energy              =      -5.57673787 Ry
     Harris-Foulkes estimate   =    -105.43291959 Ry
     estimated scf accuracy    <  161825.18235847 Ry

     iteration # 51     ecut=    80.00 Ry     beta= 0.70
     Davidson diagonalization with overlap
     ethr =  8.94E-06,  avg # of iterations = 14.0

     negative rho (up, down):  1.605E-04 0.000E+00

     total cpu time spent up to now is        3.4 secs

     total energy              =     -27.91342082 Ry
     Harris-Foulkes estimate   =    -100.05234201 Ry
     estimated scf accuracy    <  167755.51165592 Ry

     iteration # 52     ecut=    80.00 Ry     beta= 0.70
     Davidson diagonalization with overlap
     ethr =  8.94E-06,  avg # of iterations =  5.0

     total cpu time spent up to now is        3.5 secs

     total energy              =     -86.00190123 Ry
     Harris-Foulkes estimate   =     -86.00482918 Ry
     estimated scf accuracy    <       0.00799191 Ry

     iteration # 53     ecut=    80.00 Ry     beta= 0.70
     Davidson diagonalization with overlap
     ethr =  8.94E-06,  avg # of iterations =  4.0

     total cpu time spent up to now is        3.5 secs

     total energy              =     -86.00606274 Ry
     Harris-Foulkes estimate   =     -86.00504037 Ry
     estimated scf accuracy    <       0.00191724 Ry

     iteration # 54     ecut=    80.00 Ry     beta= 0.70
     Davidson diagonalization with overlap
     ethr =  8.94E-06,  avg # of iterations =  4.0

     total cpu time spent up to now is        3.6 secs

     total energy              =     -86.00763080 Ry
     Harris-Foulkes estimate   =     -86.00632342 Ry
     estimated scf accuracy    <       0.00349044 Ry

     iteration # 55     ecut=    80.00 Ry     beta= 0.70
     Davidson diagonalization with overlap
     ethr =  8.94E-06,  avg # of iterations =  3.0

     total cpu time spent up to now is        3.6 secs

     total energy              =     -86.00633828 Ry
     Harris-Foulkes estimate   =     -86.00817515 Ry
     estimated scf accuracy    <       0.01126133 Ry

     iteration # 56     ecut=    80.00 Ry     beta= 0.70
     Davidson diagonalization with overlap
     ethr =  8.94E-06,  avg # of iterations = 18.0

     total cpu time spent up to now is        3.7 secs

     total energy              =     -86.00715570 Ry
     Harris-Foulkes estimate   =     -86.00673186 Ry
     estimated scf accuracy    <       0.00481751 Ry

     iteration # 57     ecut=    80.00 Ry     beta= 0.70
     Davidson diagonalization with overlap
     ethr =  8.94E-06,  avg # of iterations =  2.0

     total cpu time spent up to now is        3.7 secs

     total energy              =     -86.00713325 Ry
     Harris-Foulkes estimate   =     -86.00719366 Ry
     estimated scf accuracy    <       0.00636682 Ry

     iteration # 58     ecut=    80.00 Ry     beta= 0.70
     Davidson diagonalization with overlap
     ethr =  8.94E-06,  avg # of iterations =  1.0

     total cpu time spent up to now is        3.7 secs

     total energy              =     -86.00718838 Ry
     Harris-Foulkes estimate   =     -86.00713392 Ry
     estimated scf accuracy    <       0.00630307 Ry

     iteration # 59     ecut=    80.00 Ry     beta= 0.70
     Davidson diagonalization with overlap
     ethr =  8.94E-06,  avg # of iterations =  1.0

     total cpu time spent up to now is        3.8 secs

     total energy              =     -86.01050364 Ry
     Harris-Foulkes estimate   =     -86.00718878 Ry
     estimated scf accuracy    <       0.00632025 Ry

     iteration # 60     ecut=    80.00 Ry     beta= 0.70
     Davidson diagonalization with overlap
     ethr =  8.94E-06,  avg # of iterations =  4.0

     total cpu time spent up to now is        3.8 secs

     total energy              =     -86.01451545 Ry
     Harris-Foulkes estimate   =     -86.01412080 Ry
     estimated scf accuracy    <       0.15404788 Ry

     iteration # 61     ecut=    80.00 Ry     beta= 0.70
     Davidson diagonalization with overlap
     ethr =  8.94E-06,  avg # of iterations =  3.0

     total cpu time spent up to now is        3.9 secs

     total energy              =     -86.00270388 Ry
     Harris-Foulkes estimate   =     -86.01462964 Ry
     estimated scf accuracy    <       0.21257894 Ry

     iteration # 62     ecut=    80.00 Ry     beta= 0.70
     Davidson diagonalization with overlap
     ethr =  8.94E-06,  avg # of iterations =  4.0

     total cpu time spent up to now is        3.9 secs

     total energy              =     -86.00151151 Ry
     Harris-Foulkes estimate   =     -86.00856351 Ry
     estimated scf accuracy    <       0.01459340 Ry

     iteration # 63     ecut=    80.00 Ry     beta= 0.70
     Davidson diagonalization with overlap
     ethr =  8.94E-06,  avg # of iterations =  3.0

     total cpu time spent up to now is        3.9 secs

     total energy              =     -86.00492643 Ry
     Harris-Foulkes estimate   =     -86.00483772 Ry
     estimated scf accuracy    <       0.00233988 Ry

     iteration # 64     ecut=    80.00 Ry     beta= 0.70
     Davidson diagonalization with overlap
     ethr =  8.94E-06,  avg # of iterations =  1.0

     total cpu time spent up to now is        4.0 secs

     total energy              =     -86.00474968 Ry
     Harris-Foulkes estimate   =     -86.00495017 Ry
     estimated scf accuracy    <       0.00219197 Ry

     iteration # 65     ecut=    80.00 Ry     beta= 0.70
     Davidson diagonalization with overlap
     ethr =  8.94E-06,  avg # of iterations =  1.0

     total cpu time spent up to now is        4.0 secs

     total energy              =     -86.00414680 Ry
     Harris-Foulkes estimate   =     -86.00476790 Ry
     estimated scf accuracy    <       0.00214638 Ry

     iteration # 66     ecut=    80.00 Ry     beta= 0.70
     Davidson diagonalization with overlap
     ethr =  8.94E-06,  avg # of iterations =  2.0

     total cpu time spent up to now is        4.1 secs

     total energy              =     -86.00519595 Ry
     Harris-Foulkes estimate   =     -86.00419914 Ry
     estimated scf accuracy    <       0.00201154 Ry

     iteration # 67     ecut=    80.00 Ry     beta= 0.70
     Davidson diagonalization with overlap
     ethr =  8.94E-06,  avg # of iterations =  2.0

     total cpu time spent up to now is        4.1 secs

     total energy              =     -86.00520120 Ry
     Harris-Foulkes estimate   =     -86.00536954 Ry
     estimated scf accuracy    <       0.00233815 Ry

     iteration # 68     ecut=    80.00 Ry     beta= 0.70
     Davidson diagonalization with overlap
     ethr =  8.94E-06,  avg # of iterations =  1.0

     total cpu time spent up to now is        4.1 secs

     total energy              =     -86.00451706 Ry
     Harris-Foulkes estimate   =     -86.00520697 Ry
     estimated scf accuracy    <       0.00239811 Ry

     iteration # 69     ecut=    80.00 Ry     beta= 0.70
     Davidson diagonalization with overlap
     ethr =  8.94E-06,  avg # of iterations =  2.0

     total cpu time spent up to now is        4.2 secs

     total energy              =     -86.00438091 Ry
     Harris-Foulkes estimate   =     -86.00462088 Ry
     estimated scf accuracy    <       0.00173213 Ry

     iteration # 70     ecut=    80.00 Ry     beta= 0.70
     Davidson diagonalization with overlap
     ethr =  8.94E-06,  avg # of iterations =  1.0

     negative rho (up, down):  5.723E-03 0.000E+00

     total cpu time spent up to now is        4.2 secs

     total energy              =     -85.99887978 Ry
     Harris-Foulkes estimate   =     -86.00440221 Ry
     estimated scf accuracy    <       0.00170627 Ry

     iteration # 71     ecut=    80.00 Ry     beta= 0.70
     Davidson diagonalization with overlap
     ethr =  8.94E-06,  avg # of iterations =  6.0

     negative rho (up, down):  3.769E-04 0.000E+00

     total cpu time spent up to now is        4.3 secs

     total energy              =     -77.04769828 Ry
     Harris-Foulkes estimate   =    -108.88155667 Ry
     estimated scf accuracy    <  167615.61559732 Ry

     iteration # 72     ecut=    80.00 Ry     beta= 0.70
     Davidson diagonalization with overlap
     ethr =  8.94E-06,  avg # of iterations =  4.0

     negative rho (up, down):  4.662E-03 0.000E+00

     total cpu time spent up to now is        4.3 secs

     total energy              =     -86.00443893 Ry
     Harris-Foulkes estimate   =     -86.00405751 Ry
     estimated scf accuracy    <       0.00300680 Ry

     iteration # 73     ecut=    80.00 Ry     beta= 0.70
     Davidson diagonalization with overlap
     ethr =  8.94E-06,  avg # of iterations =  4.0

     negative rho (up, down):  6.796E-04 0.000E+00

     total cpu time spent up to now is        4.4 secs

     total energy              =     -79.63098742 Ry
     Harris-Foulkes estimate   =    -102.00681870 Ry
     estimated scf accuracy    <  154980.10039179 Ry

     iteration # 74     ecut=    80.00 Ry     beta= 0.70
     Davidson diagonalization with overlap
     ethr =  8.94E-06,  avg # of iterations =  3.0

     negative rho (up, down):  8.845E-04 0.000E+00

     total cpu time spent up to now is        4.4 secs

     total energy              =     -86.00356783 Ry
     Harris-Foulkes estimate   =     -86.00356915 Ry
     estimated scf accuracy    <       0.00044547 Ry

     iteration # 75     ecut=    80.00 Ry     beta= 0.70
     Davidson diagonalization with overlap
     ethr =  4.05E-06,  avg # of iterations =  2.0

     negative rho (up, down):  9.339E-04 0.000E+00

     total cpu time spent up to now is        4.5 secs

     total energy              =     -86.00359592 Ry
     Harris-Foulkes estimate   =     -86.00360262 Ry
     estimated scf accuracy    <       0.00236264 Ry

     iteration # 76     ecut=    80.00 Ry     beta= 0.70
     Davidson diagonalization with overlap
     ethr =  4.05E-06,  avg # of iterations =  2.0

     negative rho (up, down):  3.713E-04 0.000E+00

     total cpu time spent up to now is        4.5 secs

     total energy              =     -86.00340857 Ry
     Harris-Foulkes estimate   =     -86.00359718 Ry
     estimated scf accuracy    <       0.00291005 Ry

     iteration # 77     ecut=    80.00 Ry     beta= 0.70
     Davidson diagonalization with overlap
     ethr =  4.05E-06,  avg # of iterations =  3.0

     negative rho (up, down):  2.688E-04 0.000E+00

     total cpu time spent up to now is        4.6 secs

     total energy              =     -86.00346867 Ry
     Harris-Foulkes estimate   =     -86.00361686 Ry
     estimated scf accuracy    <       0.00031560 Ry

     iteration # 78     ecut=    80.00 Ry     beta= 0.70
     Davidson diagonalization with overlap
     ethr =  2.87E-06,  avg # of iterations =  2.0

     negative rho (up, down):  1.378E-03 0.000E+00

     total cpu time spent up to now is        4.6 secs

     total energy              =     -86.00334247 Ry
     Harris-Foulkes estimate   =     -86.00377254 Ry
     estimated scf accuracy    <       0.00307803 Ry

     iteration # 79     ecut=    80.00 Ry     beta= 0.70
     Davidson diagonalization with overlap
     ethr =  2.87E-06,  avg # of iterations =  3.0

     negative rho (up, down):  1.701E-03 0.000E+00

     total cpu time spent up to now is        4.7 secs

     total energy              =     -86.00323440 Ry
     Harris-Foulkes estimate   =     -86.00339247 Ry
     estimated scf accuracy    <       0.00146830 Ry

     iteration # 80     ecut=    80.00 Ry     beta= 0.70
     Davidson diagonalization with overlap
     ethr =  2.87E-06,  avg # of iterations =  3.0

     negative rho (up, down):  4.738E-02 0.000E+00

     total cpu time spent up to now is        4.7 secs

     total energy              =    -189.30463109 Ry
     Harris-Foulkes estimate   =     -86.41956427 Ry
     estimated scf accuracy    <   95663.38857848 Ry

     iteration # 81     ecut=    80.00 Ry     beta= 0.70
     Davidson diagonalization with overlap
     ethr =  2.87E-06,  avg # of iterations =  3.0

     negative rho (up, down):  1.892E-03 0.000E+00

     total cpu time spent up to now is        4.7 secs

     total energy              =     -78.32083818 Ry
     Harris-Foulkes estimate   =    -230.61283691 Ry
     estimated scf accuracy    <  212737.18609939 Ry

     iteration # 82     ecut=    80.00 Ry     beta= 0.70
     Davidson diagonalization with overlap
     ethr =  2.87E-06,  avg # of iterations =  4.0

     negative rho (up, down):  1.864E-03 0.000E+00

     total cpu time spent up to now is        4.8 secs

     total energy              =     -87.10685346 Ry
     Harris-Foulkes estimate   =     -87.22173879 Ry
     estimated scf accuracy    <  102279.90054447 Ry

     iteration # 83     ecut=    80.00 Ry     beta= 0.70
     Davidson diagonalization with overlap
     ethr =  2.87E-06,  avg # of iterations =  2.0

     negative rho (up, down):  9.474E-04 0.000E+00

     total cpu time spent up to now is        4.8 secs

     total energy              =     -83.18862887 Ry
     Harris-Foulkes estimate   =     -87.10704540 Ry
     estimated scf accuracy    <  101611.67653808 Ry

     iteration # 84     ecut=    80.00 Ry     beta= 0.70
     Davidson diagonalization with overlap
     ethr =  2.87E-06,  avg # of iterations =  3.0

     negative rho (up, down):  1.203E-03 0.000E+00

     total cpu time spent up to now is        4.9 secs

     total energy              =     -86.00336225 Ry
     Harris-Foulkes estimate   =     -86.00340950 Ry
     estimated scf accuracy    <       0.00024653 Ry

     iteration # 85     ecut=    80.00 Ry     beta= 0.70
     Davidson diagonalization with overlap
     ethr =  2.24E-06,  avg # of iterations =  3.0

     negative rho (up, down):  1.115E-03 0.000E+00

     total cpu time spent up to now is        4.9 secs

     total energy              =     -86.00339387 Ry
     Harris-Foulkes estimate   =     -86.00342982 Ry
     estimated scf accuracy    <       0.00180474 Ry

     iteration # 86     ecut=    80.00 Ry     beta= 0.70
     Davidson diagonalization with overlap
     ethr =  2.24E-06,  avg # of iterations =  2.0

     negative rho (up, down):  1.048E-03 0.000E+00

     total cpu time spent up to now is        5.0 secs

     total energy              =     -86.00340597 Ry
     Harris-Foulkes estimate   =     -86.00340745 Ry
     estimated scf accuracy    <       0.00035384 Ry

     iteration # 87     ecut=    80.00 Ry     beta= 0.70
     Davidson diagonalization with overlap
     ethr =  2.24E-06,  avg # of iterations =  2.0

     negative rho (up, down):  1.154E-03 0.000E+00

     total cpu time spent up to now is        5.0 secs

     total energy              =     -86.00342543 Ry
     Harris-Foulkes estimate   =     -86.00340899 Ry
     estimated scf accuracy    <       0.00012906 Ry

     iteration # 88     ecut=    80.00 Ry     beta= 0.70
     Davidson diagonalization with overlap
     ethr =  1.17E-06,  avg # of iterations =  2.0

     negative rho (up, down):  1.195E-03 0.000E+00

     total cpu time spent up to now is        5.1 secs

     total energy              =     -86.00349801 Ry
     Harris-Foulkes estimate   =     -86.00344964 Ry
     estimated scf accuracy    <       0.00176805 Ry

     iteration # 89     ecut=    80.00 Ry     beta= 0.70
     Davidson diagonalization with overlap
     ethr =  1.17E-06,  avg # of iterations =  2.0

     negative rho (up, down):  1.172E-03 0.000E+00

     total cpu time spent up to now is        5.1 secs

     total energy              =     -86.00350887 Ry
     Harris-Foulkes estimate   =     -86.00350979 Ry
     estimated scf accuracy    <       0.00495342 Ry

     iteration # 90     ecut=    80.00 Ry     beta= 0.70
     Davidson diagonalization with overlap
     ethr =  1.17E-06,  avg # of iterations =  2.0

     negative rho (up, down):  8.863E-04 0.000E+00

     total cpu time spent up to now is        5.1 secs

     total energy              =     -86.00356996 Ry
     Harris-Foulkes estimate   =     -86.00350924 Ry
     estimated scf accuracy    <       0.00446924 Ry

     iteration # 91     ecut=    80.00 Ry     beta= 0.70
     Davidson diagonalization with overlap
     ethr =  1.17E-06,  avg # of iterations =  3.0

     negative rho (up, down):  5.739E-03 0.000E+00

     total cpu time spent up to now is        5.2 secs

     total energy              =     -86.00525839 Ry
     Harris-Foulkes estimate   =     -86.00359332 Ry
     estimated scf accuracy    <       0.00216251 Ry

     iteration # 92     ecut=    80.00 Ry     beta= 0.70
     Davidson diagonalization with overlap
     ethr =  1.17E-06,  avg # of iterations =  4.0

     negative rho (up, down):  5.856E-03 0.000E+00

     total cpu time spent up to now is        5.2 secs

     total energy              =    -109.10231693 Ry
     Harris-Foulkes estimate   =    -108.30014448 Ry
     estimated scf accuracy    <  166773.71692448 Ry

     iteration # 93     ecut=    80.00 Ry     beta= 0.70
     Davidson diagonalization with overlap
     ethr =  1.17E-06,  avg # of iterations =  2.0

     negative rho (up, down):  1.465E-03 0.000E+00

     total cpu time spent up to now is        5.3 secs

     total energy              =     -82.78722454 Ry
     Harris-Foulkes estimate   =    -109.10380883 Ry
     estimated scf accuracy    <  168009.93643167 Ry

     iteration # 94     ecut=    80.00 Ry     beta= 0.70
     Davidson diagonalization with overlap
     ethr =  1.17E-06,  avg # of iterations =  4.0

     negative rho (up, down):  1.141E-03 0.000E+00

     total cpu time spent up to now is        5.3 secs

     total energy              =     -86.00289205 Ry
     Harris-Foulkes estimate   =     -86.00358240 Ry
     estimated scf accuracy    <       0.04475387 Ry

     iteration # 95     ecut=    80.00 Ry     beta= 0.70
     Davidson diagonalization with overlap
     ethr =  1.17E-06,  avg # of iterations =  3.0

     negative rho (up, down):  1.282E-03 0.000E+00

     total cpu time spent up to now is        5.4 secs

     total energy              =     -86.00341950 Ry
     Harris-Foulkes estimate   =     -86.00338058 Ry
     estimated scf accuracy    <       0.00014110 Ry

     iteration # 96     ecut=    80.00 Ry     beta= 0.70
     Davidson diagonalization with overlap
     ethr =  1.17E-06,  avg # of iterations =  2.0

     negative rho (up, down):  1.109E-03 0.000E+00

     total cpu time spent up to now is        5.4 secs

     total energy              =     -86.00355606 Ry
     Harris-Foulkes estimate   =     -86.00353074 Ry
     estimated scf accuracy    <       0.01144847 Ry

     iteration # 97     ecut=    80.00 Ry     beta= 0.70
     Davidson diagonalization with overlap
     ethr =  1.17E-06,  avg # of iterations =  2.0

     negative rho (up, down):  1.743E-03 0.000E+00

     total cpu time spent up to now is        5.4 secs

     total energy              =     -86.00354078 Ry
     Harris-Foulkes estimate   =     -86.00357040 Ry
     estimated scf accuracy    <       0.00659033 Ry

     iteration # 98     ecut=    80.00 Ry     beta= 0.70
     Davidson diagonalization with overlap
     ethr =  1.17E-06,  avg # of iterations =  4.0

     negative rho (up, down):  1.476E-01 0.000E+00

     total cpu time spent up to now is        5.5 secs

     total energy              =    -343.33265980 Ry
     Harris-Foulkes estimate   =     -86.55707112 Ry
     estimated scf accuracy    <   98399.87379240 Ry

     iteration # 99     ecut=    80.00 Ry     beta= 0.70
     Davidson diagonalization with overlap
     ethr =  1.17E-06,  avg # of iterations =  4.0

     negative rho (up, down):  1.323E-01 0.000E+00

     total cpu time spent up to now is        5.5 secs

     total energy              =    -417.56714011 Ry
     Harris-Foulkes estimate   =    -457.50732662 Ry
     estimated scf accuracy    <  219892.20961962 Ry

     iteration #100     ecut=    80.00 Ry     beta= 0.70
     Davidson diagonalization with overlap
     ethr =  1.17E-06,  avg # of iterations =  3.0

     negative rho (up, down):  2.358E-03 0.000E+00

     total cpu time spent up to now is        5.6 secs

     total energy              =     -77.76398739 Ry
     Harris-Foulkes estimate   =    -417.58991291 Ry
     estimated scf accuracy    <  219383.82865091 Ry

     End of self-consistent calculation

     convergence NOT achieved after 100 iterations: stopping

     Writing output data file Au.save/

     init_run     :      0.23s CPU      0.23s WALL (       1 calls)
     electrons    :      4.42s CPU      4.53s WALL (       1 calls)

     Called by init_run:
     wfcinit      :      0.00s CPU      0.00s WALL (       1 calls)
     potinit      :      0.01s CPU      0.01s WALL (       1 calls)
     hinit0       :      0.19s CPU      0.20s WALL (       1 calls)

     Called by electrons:
     c_bands      :      1.13s CPU      1.18s WALL (     101 calls)
     sum_band     :      1.42s CPU      1.44s WALL (     101 calls)
     v_of_rho     :      0.65s CPU      0.66s WALL (     101 calls)
     newd         :      1.07s CPU      1.09s WALL (     101 calls)
     mix_rho      :      0.14s CPU      0.14s WALL (     101 calls)

     Called by c_bands:
     init_us_2    :      0.05s CPU      0.05s WALL (     203 calls)
     cegterg      :      1.06s CPU      1.11s WALL (     101 calls)

     Called by sum_band:
     sum_band:bec :      0.00s CPU      0.00s WALL (     101 calls)
     addusdens    :      1.07s CPU      1.08s WALL (     101 calls)

     Called by *egterg:
     h_psi        :      0.75s CPU      0.79s WALL (     410 calls)
     s_psi        :      0.03s CPU      0.03s WALL (     410 calls)
     g_psi        :      0.00s CPU      0.00s WALL (     308 calls)
     cdiaghg      :      0.10s CPU      0.10s WALL (     408 calls)

     Called by h_psi:
     h_psi:pot    :      0.75s CPU      0.78s WALL (     410 calls)
     h_psi:calbec :      0.05s CPU      0.05s WALL (     410 calls)
     vloc_psi     :      0.67s CPU      0.70s WALL (     410 calls)
     add_vuspsi   :      0.03s CPU      0.03s WALL (     410 calls)

     General routines
     calbec       :      0.06s CPU      0.06s WALL (     511 calls)
     fft          :      0.27s CPU      0.27s WALL (    1114 calls)
     ffts         :      0.02s CPU      0.02s WALL (     101 calls)
     fftw         :      0.73s CPU      0.77s WALL (    6506 calls)
     davcio       :      0.00s CPU      0.00s WALL (      19 calls)

     Parallel routines
     fft_scatt_xy :      0.09s CPU      0.10s WALL (    7721 calls)
     fft_scatt_yz :      0.32s CPU      0.33s WALL (    7721 calls)

     PWSCF        :     5.49s CPU         5.63s WALL


   This run was terminated on:  12:20: 0  26Mar2024            

=------------------------------------------------------------------------------=
   JOB DONE.
=------------------------------------------------------------------------------=
