
     Program PWSCF v.6.3MaX starts on 26Mar2024 at 11: 8: 8 

     This program is part of the open-source Quantum ESPRESSO suite
     for quantum simulation of materials; please cite
         "P. Giannozzi et al., J. Phys.:Condens. Matter 21 395502 (2009);
         "P. Giannozzi et al., J. Phys.:Condens. Matter 29 465901 (2017);
          URL http://www.quantum-espresso.org", 
     in publications or presentations arising from this work. More details at
     http://www.quantum-espresso.org/quote

     Parallel version (MPI), running on     5 processors

     MPI processes distributed on     1 nodes
     R & G space division:  proc/nbgrp/npool/nimage =       5
     Waiting for input...
     Reading input from standard input

     Current dimensions of program PWSCF are:
     Max number of different atomic species (ntypx) = 10
     Max number of k-points (npk) =  40000
     Max angular momentum in pseudopotentials (lmaxx) =  3

     Subspace diagonalization in iterative solution of the eigenvalue problem:
     a serial algorithm will be used


     Parallelization info
     --------------------
     sticks:   dense  smooth     PW     G-vecs:    dense   smooth      PW
     Min         164     164     48                 3094     3094     488
     Max         165     165     49                 3095     3095     491
     Sum         823     823    241                15473    15473    2445



     bravais-lattice index     =            2
     lattice parameter (alat)  =       7.7100  a.u.
     unit-cell volume          =     114.5785 (a.u.)^3
     number of atoms/cell      =            1
     number of atomic types    =            1
     number of electrons       =        11.00
     number of Kohn-Sham states=           10
     kinetic-energy cutoff     =     100.0000  Ry
     charge density cutoff     =     400.0000  Ry
     convergence threshold     =      1.0E-08
     mixing beta               =       0.7000
     number of iterations used =            8  plain     mixing
     Exchange-correlation      = PBE ( 1  4  3  4 0 0)

     celldm(1)=   7.710000  celldm(2)=   0.000000  celldm(3)=   0.000000
     celldm(4)=   0.000000  celldm(5)=   0.000000  celldm(6)=   0.000000

     crystal axes: (cart. coord. in units of alat)
               a(1) = (  -0.500000   0.000000   0.500000 )  
               a(2) = (   0.000000   0.500000   0.500000 )  
               a(3) = (  -0.500000   0.500000   0.000000 )  

     reciprocal axes: (cart. coord. in units 2 pi/alat)
               b(1) = ( -1.000000 -1.000000  1.000000 )  
               b(2) = (  1.000000  1.000000  1.000000 )  
               b(3) = ( -1.000000  1.000000 -1.000000 )  


     PseudoPot. # 1 for Au read from file:
     /home/lorenzo/pseudos/Au/Au.pbe-n-rrkjus_psl.1.0.0.UPF
     MD5 check sum: d7e77ba19504afed2c9b41c931dde4f0
     Pseudo is Ultrasoft + core correction, Zval = 11.0
     Generated using "atomic" code by A. Dal Corso v.6.3
     Using radial grid of 1279 points,  6 beta functions with: 
                l(1) =   0
                l(2) =   0
                l(3) =   1
                l(4) =   1
                l(5) =   2
                l(6) =   2
     Q(r) pseudized with 0 coefficients 


     atomic species   valence    mass     pseudopotential
        Au            11.00   196.96600     Au( 1.00)

     48 Sym. Ops., with inversion, found



   Cartesian axes

     site n.     atom                  positions (alat units)
         1           Au  tau(   1) = (   0.0000000   0.0000000   0.0000000  )

     number of k points=     3  gaussian smearing, width (Ry)=  0.0100
                       cart. coord. in units 2pi/alat
        k(    1) = (   0.0000000   0.0000000   0.0000000), wk =   0.2500000
        k(    2) = (   0.5000000  -0.5000000   0.5000000), wk =   1.0000000
        k(    3) = (   0.0000000  -1.0000000   0.0000000), wk =   0.7500000

     Dense  grid:    15473 G-vectors     FFT dimensions: (  36,  36,  36)

     Estimated max dynamical RAM per process >      13.80 MB

     Estimated total dynamical RAM >      69.01 MB

     Initial potential from superposition of free atoms

     starting charge   10.99989, renormalised to   11.00000
     Starting wfcs are    9 randomized atomic wfcs +    1 random wfcs

     total cpu time spent up to now is        2.3 secs

     Self-consistent Calculation

     iteration #  1     ecut=   100.00 Ry     beta= 0.70
     Davidson diagonalization with overlap
     ethr =  1.00E-02,  avg # of iterations =  8.3

     Threshold (ethr) on eigenvalues was too large:
     Diagonalizing with lowered threshold

     Davidson diagonalization with overlap
     ethr =  3.63E-04,  avg # of iterations =  3.0

     total cpu time spent up to now is        2.5 secs

     total energy              =     -85.12529532 Ry
     Harris-Foulkes estimate   =     -85.14589089 Ry
     estimated scf accuracy    <       0.03879055 Ry

     iteration #  2     ecut=   100.00 Ry     beta= 0.70
     Davidson diagonalization with overlap
     ethr =  3.53E-04,  avg # of iterations =  2.3

     total cpu time spent up to now is        2.7 secs

     total energy              =     -85.13742058 Ry
     Harris-Foulkes estimate   =     -85.14855005 Ry
     estimated scf accuracy    <       0.02070034 Ry

     iteration #  3     ecut=   100.00 Ry     beta= 0.70
     Davidson diagonalization with overlap
     ethr =  1.88E-04,  avg # of iterations =  1.7

     total cpu time spent up to now is        2.8 secs

     total energy              =     -85.13800953 Ry
     Harris-Foulkes estimate   =     -85.13963323 Ry
     estimated scf accuracy    <       0.00219076 Ry

     iteration #  4     ecut=   100.00 Ry     beta= 0.70
     Davidson diagonalization with overlap
     ethr =  1.99E-05,  avg # of iterations =  4.3

     total cpu time spent up to now is        2.9 secs

     total energy              =     -85.13772066 Ry
     Harris-Foulkes estimate   =     -85.14026654 Ry
     estimated scf accuracy    <       0.00664846 Ry

     iteration #  5     ecut=   100.00 Ry     beta= 0.70
     Davidson diagonalization with overlap
     ethr =  1.99E-05,  avg # of iterations =  2.0

     total cpu time spent up to now is        3.0 secs

     total energy              =     -85.13945910 Ry
     Harris-Foulkes estimate   =     -85.13949840 Ry
     estimated scf accuracy    <       0.00054308 Ry

     iteration #  6     ecut=   100.00 Ry     beta= 0.70
     Davidson diagonalization with overlap
     ethr =  4.94E-06,  avg # of iterations =  1.3

     total cpu time spent up to now is        3.1 secs

     total energy              =     -85.13937259 Ry
     Harris-Foulkes estimate   =     -85.13948564 Ry
     estimated scf accuracy    <       0.00042338 Ry

     iteration #  7     ecut=   100.00 Ry     beta= 0.70
     Davidson diagonalization with overlap
     ethr =  3.85E-06,  avg # of iterations =  1.0

     total cpu time spent up to now is        3.2 secs

     total energy              =     -85.13934983 Ry
     Harris-Foulkes estimate   =     -85.13939109 Ry
     estimated scf accuracy    <       0.00010186 Ry

     iteration #  8     ecut=   100.00 Ry     beta= 0.70
     Davidson diagonalization with overlap
     ethr =  9.26E-07,  avg # of iterations =  1.0

     total cpu time spent up to now is        3.3 secs

     total energy              =     -85.13936713 Ry
     Harris-Foulkes estimate   =     -85.13936710 Ry
     estimated scf accuracy    <       0.00000005 Ry

     iteration #  9     ecut=   100.00 Ry     beta= 0.70
     Davidson diagonalization with overlap
     ethr =  4.25E-10,  avg # of iterations =  4.7

     total cpu time spent up to now is        3.4 secs

     total energy              =     -85.13936951 Ry
     Harris-Foulkes estimate   =     -85.13936932 Ry
     estimated scf accuracy    <       0.00000082 Ry

     iteration # 10     ecut=   100.00 Ry     beta= 0.70
     Davidson diagonalization with overlap
     ethr =  4.25E-10,  avg # of iterations =  2.3

     total cpu time spent up to now is        3.5 secs

     total energy              =     -85.13936880 Ry
     Harris-Foulkes estimate   =     -85.13936954 Ry
     estimated scf accuracy    <       0.00000182 Ry

     iteration # 11     ecut=   100.00 Ry     beta= 0.70
     Davidson diagonalization with overlap
     ethr =  4.25E-10,  avg # of iterations =  3.7

     total cpu time spent up to now is        3.6 secs

     total energy              =     -85.13936915 Ry
     Harris-Foulkes estimate   =     -85.13936916 Ry
     estimated scf accuracy    <       0.00000012 Ry

     iteration # 12     ecut=   100.00 Ry     beta= 0.70
     Davidson diagonalization with overlap
     ethr =  4.25E-10,  avg # of iterations =  1.0

     total cpu time spent up to now is        3.7 secs

     total energy              =     -85.13936914 Ry
     Harris-Foulkes estimate   =     -85.13936915 Ry
     estimated scf accuracy    <       0.00000006 Ry

     iteration # 13     ecut=   100.00 Ry     beta= 0.70
     Davidson diagonalization with overlap
     ethr =  4.25E-10,  avg # of iterations =  1.0

     total cpu time spent up to now is        3.9 secs

     total energy              =     -85.13936914 Ry
     Harris-Foulkes estimate   =     -85.13936914 Ry
     estimated scf accuracy    <       0.00000001 Ry

     iteration # 14     ecut=   100.00 Ry     beta= 0.70
     Davidson diagonalization with overlap
     ethr =  1.01E-10,  avg # of iterations =  1.7

     total cpu time spent up to now is        4.0 secs

     End of self-consistent calculation

          k = 0.0000 0.0000 0.0000 (  1917 PWs)   bands (ev):

     6.1280  11.7291  11.7291  11.7291  13.3492  13.3492  31.3253  35.2849
    35.2849  35.2849

          k = 0.5000-0.5000 0.5000 (  1916 PWs)   bands (ev):

     8.8936  11.6997  11.6997  14.5843  14.5843  15.0447  19.4397  30.6063
    33.7111  33.7111

          k = 0.0000-1.0000 0.0000 (  1964 PWs)   bands (ev):

     9.2001   9.5588  14.5584  14.9086  14.9086  17.0740  22.0876  26.2996
    26.2996  33.3379

     the Fermi energy is    15.1167 ev

!    total energy              =     -85.13936914 Ry
     Harris-Foulkes estimate   =     -85.13936914 Ry
     estimated scf accuracy    <          4.0E-09 Ry

     The total energy is the sum of the following terms:

     one-electron contribution =      11.14301505 Ry
     hartree contribution      =       7.91294086 Ry
     xc contribution           =     -32.23839966 Ry
     ewald contribution        =     -71.95438534 Ry
     smearing contrib. (-TS)   =      -0.00254005 Ry

     convergence has been achieved in  14 iterations

     Forces acting on atoms (cartesian axes, Ry/au):

     atom    1 type  1   force =     0.00000000    0.00000000    0.00000000

     Total force =     0.000000     Total SCF correction =     0.000000


     Computing stress (Cartesian axis) and pressure

          total   stress  (Ry/bohr**3)                   (kbar)     P=  597.10
   0.00405900   0.00000000   0.00000000        597.10      0.00      0.00
   0.00000000   0.00405900  -0.00000000          0.00    597.10     -0.00
   0.00000000  -0.00000000   0.00405900          0.00     -0.00    597.10


     Writing output data file Au.save/

     init_run     :      0.45s CPU      0.47s WALL (       1 calls)
     electrons    :      1.66s CPU      1.73s WALL (       1 calls)
     forces       :      0.05s CPU      0.05s WALL (       1 calls)
     stress       :      0.14s CPU      0.14s WALL (       1 calls)

     Called by init_run:
     wfcinit      :      0.02s CPU      0.03s WALL (       1 calls)
     potinit      :      0.02s CPU      0.02s WALL (       1 calls)
     hinit0       :      0.37s CPU      0.38s WALL (       1 calls)

     Called by electrons:
     c_bands      :      0.81s CPU      0.85s WALL (      15 calls)
     sum_band     :      0.43s CPU      0.45s WALL (      15 calls)
     v_of_rho     :      0.16s CPU      0.16s WALL (      15 calls)
     newd         :      0.26s CPU      0.27s WALL (      15 calls)
     mix_rho      :      0.02s CPU      0.02s WALL (      15 calls)

     Called by c_bands:
     init_us_2    :      0.03s CPU      0.03s WALL (      99 calls)
     cegterg      :      0.77s CPU      0.81s WALL (      45 calls)

     Called by sum_band:
     sum_band:bec :      0.00s CPU      0.00s WALL (      45 calls)
     addusdens    :      0.23s CPU      0.24s WALL (      15 calls)

     Called by *egterg:
     h_psi        :      0.63s CPU      0.66s WALL (     166 calls)
     s_psi        :      0.02s CPU      0.02s WALL (     166 calls)
     g_psi        :      0.00s CPU      0.00s WALL (     118 calls)
     cdiaghg      :      0.04s CPU      0.04s WALL (     160 calls)

     Called by h_psi:
     h_psi:pot    :      0.62s CPU      0.66s WALL (     166 calls)
     h_psi:calbec :      0.03s CPU      0.04s WALL (     166 calls)
     vloc_psi     :      0.57s CPU      0.60s WALL (     166 calls)
     add_vuspsi   :      0.02s CPU      0.02s WALL (     166 calls)

     General routines
     calbec       :      0.05s CPU      0.05s WALL (     226 calls)
     fft          :      0.10s CPU      0.11s WALL (     192 calls)
     ffts         :      0.00s CPU      0.01s WALL (      15 calls)
     fftw         :      0.63s CPU      0.67s WALL (    2762 calls)

     Parallel routines
     fft_scatt_xy :      0.05s CPU      0.06s WALL (    2969 calls)
     fft_scatt_yz :      0.23s CPU      0.25s WALL (    2969 calls)

     PWSCF        :     4.08s CPU         4.20s WALL


   This run was terminated on:  11: 8:12  26Mar2024            

=------------------------------------------------------------------------------=
   JOB DONE.
=------------------------------------------------------------------------------=
