
     Program PWSCF v.6.3MaX starts on 26Mar2024 at 11:29:30 

     This program is part of the open-source Quantum ESPRESSO suite
     for quantum simulation of materials; please cite
         "P. Giannozzi et al., J. Phys.:Condens. Matter 21 395502 (2009);
         "P. Giannozzi et al., J. Phys.:Condens. Matter 29 465901 (2017);
          URL http://www.quantum-espresso.org", 
     in publications or presentations arising from this work. More details at
     http://www.quantum-espresso.org/quote

     Parallel version (MPI), running on     5 processors

     MPI processes distributed on     1 nodes
     R & G space division:  proc/nbgrp/npool/nimage =       5
     Waiting for input...
     Reading input from standard input

     Current dimensions of program PWSCF are:
     Max number of different atomic species (ntypx) = 10
     Max number of k-points (npk) =  40000
     Max angular momentum in pseudopotentials (lmaxx) =  3
               file Au.pbe-n-kjpaw_psl.1.0.0.UPF: wavefunction(s)  6S 5D renormalized

     Subspace diagonalization in iterative solution of the eigenvalue problem:
     a serial algorithm will be used


     Parallelization info
     --------------------
     sticks:   dense  smooth     PW     G-vecs:    dense   smooth      PW
     Min          56      56     18                  627      627     121
     Max          57      57     19                  630      630     123
     Sum         283     283     91                 3143     3143     609



     bravais-lattice index     =            2
     lattice parameter (alat)  =       7.7100  a.u.
     unit-cell volume          =     114.5785 (a.u.)^3
     number of atoms/cell      =            1
     number of atomic types    =            1
     number of electrons       =        11.00
     number of Kohn-Sham states=           10
     kinetic-energy cutoff     =      35.0000  Ry
     charge density cutoff     =     140.0000  Ry
     convergence threshold     =      1.0E-08
     mixing beta               =       0.7000
     number of iterations used =            8  plain     mixing
     Exchange-correlation      = SLA PW PBX PBC ( 1  4  3  4 0 0)

     celldm(1)=   7.710000  celldm(2)=   0.000000  celldm(3)=   0.000000
     celldm(4)=   0.000000  celldm(5)=   0.000000  celldm(6)=   0.000000

     crystal axes: (cart. coord. in units of alat)
               a(1) = (  -0.500000   0.000000   0.500000 )  
               a(2) = (   0.000000   0.500000   0.500000 )  
               a(3) = (  -0.500000   0.500000   0.000000 )  

     reciprocal axes: (cart. coord. in units 2 pi/alat)
               b(1) = ( -1.000000 -1.000000  1.000000 )  
               b(2) = (  1.000000  1.000000  1.000000 )  
               b(3) = ( -1.000000  1.000000 -1.000000 )  


     PseudoPot. # 1 for Au read from file:
     /home/lorenzo/pseudos/Au/Au.pbe-n-kjpaw_psl.1.0.0.UPF
     MD5 check sum: 4db85c736373c707a97ce4c36c2a9d23
     Pseudo is Projector augmented-wave + core cor, Zval = 11.0
     Generated using "atomic" code by A. Dal Corso v.6.3
     Shape of augmentation charge: PSQ
     Using radial grid of 1279 points,  6 beta functions with: 
                l(1) =   0
                l(2) =   0
                l(3) =   1
                l(4) =   1
                l(5) =   2
                l(6) =   2
     Q(r) pseudized with 0 coefficients 


     atomic species   valence    mass     pseudopotential
        Au            11.00   196.96600     Au( 1.00)

     48 Sym. Ops., with inversion, found



   Cartesian axes

     site n.     atom                  positions (alat units)
         1           Au  tau(   1) = (   0.0000000   0.0000000   0.0000000  )

     number of k points=    10  gaussian smearing, width (Ry)=  0.0100
                       cart. coord. in units 2pi/alat
        k(    1) = (   0.0000000   0.0000000   0.0000000), wk =   0.0160000
        k(    2) = (  -0.2000000   0.2000000  -0.2000000), wk =   0.1280000
        k(    3) = (  -0.4000000   0.4000000  -0.4000000), wk =   0.1280000
        k(    4) = (   0.0000000   0.4000000   0.0000000), wk =   0.0960000
        k(    5) = (  -0.2000000   0.6000000  -0.2000000), wk =   0.3840000
        k(    6) = (   0.6000000  -0.2000000   0.6000000), wk =   0.3840000
        k(    7) = (   0.4000000   0.0000000   0.4000000), wk =   0.1920000
        k(    8) = (   0.0000000   0.8000000   0.0000000), wk =   0.0960000
        k(    9) = (   0.8000000   0.0000000   0.8000000), wk =   0.1920000
        k(   10) = (   0.6000000  -0.2000000   1.0000000), wk =   0.3840000

     Dense  grid:     3143 G-vectors     FFT dimensions: (  24,  24,  24)

     Estimated max dynamical RAM per process >       3.71 MB

     Estimated total dynamical RAM >      18.53 MB

     Initial potential from superposition of free atoms

     starting charge   10.99989, renormalised to   11.00000
     Starting wfcs are    9 randomized atomic wfcs +    1 random wfcs
     Checking if some PAW data can be deallocated... 

     total cpu time spent up to now is        1.3 secs

     Self-consistent Calculation

     iteration #  1     ecut=    35.00 Ry     beta= 0.70
     Davidson diagonalization with overlap
     ethr =  1.00E-02,  avg # of iterations =  5.5

     Threshold (ethr) on eigenvalues was too large:
     Diagonalizing with lowered threshold

     Davidson diagonalization with overlap
     ethr =  4.64E-04,  avg # of iterations =  1.6

     total cpu time spent up to now is        1.6 secs

     total energy              =    -775.12448065 Ry
     Harris-Foulkes estimate   =    -775.15996362 Ry
     estimated scf accuracy    <       0.05248267 Ry

     iteration #  2     ecut=    35.00 Ry     beta= 0.70
     Davidson diagonalization with overlap
     ethr =  4.77E-04,  avg # of iterations =  2.7

     total cpu time spent up to now is        1.8 secs

     total energy              =    -775.14052311 Ry
     Harris-Foulkes estimate   =    -775.15028031 Ry
     estimated scf accuracy    <       0.01609830 Ry

     iteration #  3     ecut=    35.00 Ry     beta= 0.70
     Davidson diagonalization with overlap
     ethr =  1.46E-04,  avg # of iterations =  2.3

     total cpu time spent up to now is        2.0 secs

     total energy              =    -775.14390113 Ry
     Harris-Foulkes estimate   =    -775.14395822 Ry
     estimated scf accuracy    <       0.00026243 Ry

     iteration #  4     ecut=    35.00 Ry     beta= 0.70
     Davidson diagonalization with overlap
     ethr =  2.39E-06,  avg # of iterations =  3.8

     total cpu time spent up to now is        2.2 secs

     total energy              =    -775.14419239 Ry
     Harris-Foulkes estimate   =    -775.14434309 Ry
     estimated scf accuracy    <       0.00032575 Ry

     iteration #  5     ecut=    35.00 Ry     beta= 0.70
     Davidson diagonalization with overlap
     ethr =  2.39E-06,  avg # of iterations =  1.0

     total cpu time spent up to now is        2.4 secs

     total energy              =    -775.14420541 Ry
     Harris-Foulkes estimate   =    -775.14422263 Ry
     estimated scf accuracy    <       0.00003540 Ry

     iteration #  6     ecut=    35.00 Ry     beta= 0.70
     Davidson diagonalization with overlap
     ethr =  3.22E-07,  avg # of iterations =  2.1

     total cpu time spent up to now is        2.6 secs

     total energy              =    -775.14421739 Ry
     Harris-Foulkes estimate   =    -775.14421777 Ry
     estimated scf accuracy    <       0.00000048 Ry

     iteration #  7     ecut=    35.00 Ry     beta= 0.70
     Davidson diagonalization with overlap
     ethr =  4.40E-09,  avg # of iterations =  4.0

     total cpu time spent up to now is        2.9 secs

     total energy              =    -775.14421800 Ry
     Harris-Foulkes estimate   =    -775.14421831 Ry
     estimated scf accuracy    <       0.00000066 Ry

     iteration #  8     ecut=    35.00 Ry     beta= 0.70
     Davidson diagonalization with overlap
     ethr =  4.40E-09,  avg # of iterations =  1.1

     total cpu time spent up to now is        3.1 secs

     total energy              =    -775.14421803 Ry
     Harris-Foulkes estimate   =    -775.14421806 Ry
     estimated scf accuracy    <       0.00000006 Ry

     iteration #  9     ecut=    35.00 Ry     beta= 0.70
     Davidson diagonalization with overlap
     ethr =  5.14E-10,  avg # of iterations =  2.8

     total cpu time spent up to now is        3.3 secs

     End of self-consistent calculation

          k = 0.0000 0.0000 0.0000 (   411 PWs)   bands (ev):

     6.0768  11.2893  11.2893  11.2893  12.8119  12.8119  31.3891  35.2432
    35.2432  35.2432

          k =-0.2000 0.2000-0.2000 (   386 PWs)   bands (ev):

     7.3458  11.0490  11.5770  11.5770  12.8131  12.8131  29.2571  32.4783
    36.1899  36.1899

          k =-0.4000 0.4000-0.4000 (   407 PWs)   bands (ev):

     8.6246  11.3254  11.3254  13.3420  13.7846  13.7846  21.3830  31.0112
    34.2164  34.2164

          k = 0.0000 0.4000 0.0000 (   399 PWs)   bands (ev):

     7.7906  10.4858  12.0557  12.1081  12.1081  13.1929  32.4345  32.4345
    32.6767  33.1306

          k =-0.2000 0.6000-0.2000 (   404 PWs)   bands (ev):

     9.2875  10.4929  11.3354  12.2488  13.9395  14.5452  24.3990  30.5704
    30.5834  33.1863

          k = 0.6000-0.2000 0.6000 (   403 PWs)   bands (ev):

     9.5228  10.7795  11.8912  11.9677  13.7266  17.5749  19.9685  27.8348
    32.1154  32.4427

          k = 0.4000 0.0000 0.4000 (   395 PWs)   bands (ev):

     9.0452  10.6577  11.3870  12.1751  12.3366  14.4175  26.6497  28.6022
    33.7912  36.6176

          k = 0.0000 0.8000 0.0000 (   404 PWs)   bands (ev):

     9.0270   9.3833  13.8566  13.9271  13.9271  14.7538  24.8576  27.1419
    27.1419  32.9631

          k = 0.8000 0.0000 0.8000 (   405 PWs)   bands (ev):

     9.3343   9.8151  12.6220  13.3581  14.0598  19.6794  20.6448  23.8955
    27.9210  34.0036

          k = 0.6000-0.2000 1.0000 (   404 PWs)   bands (ev):

    10.0783  10.3281  11.0304  12.9388  13.9132  18.0076  23.1146  24.3552
    27.3728  37.4598

     the Fermi energy is    14.7811 ev

!    total energy              =    -775.14421806 Ry
     Harris-Foulkes estimate   =    -775.14421806 Ry
     estimated scf accuracy    <          5.9E-09 Ry

     total all-electron energy =    -38023.990309 Ry

     The total energy is the sum of the following terms:

     one-electron contribution =      13.81663995 Ry
     hartree contribution      =       7.64501301 Ry
     xc contribution           =     -32.12637803 Ry
     ewald contribution        =     -71.95438545 Ry
     one-center paw contrib.   =    -692.52479342 Ry
     smearing contrib. (-TS)   =      -0.00031411 Ry

     convergence has been achieved in   9 iterations

     Forces acting on atoms (cartesian axes, Ry/au):

     atom    1 type  1   force =     0.00000000    0.00000000    0.00000000

     Total force =     0.000000     Total SCF correction =     0.000000


     Computing stress (Cartesian axis) and pressure

          total   stress  (Ry/bohr**3)                   (kbar)     P=   86.90
   0.00059074  -0.00000000  -0.00000000         86.90     -0.00     -0.00
  -0.00000000   0.00059074   0.00000000         -0.00     86.90      0.00
  -0.00000000   0.00000000   0.00059074         -0.00      0.00     86.90


     Writing output data file Au.save/

     init_run     :      0.29s CPU      0.32s WALL (       1 calls)
     electrons    :      1.78s CPU      1.98s WALL (       1 calls)
     forces       :      0.02s CPU      0.02s WALL (       1 calls)
     stress       :      0.04s CPU      0.04s WALL (       1 calls)

     Called by init_run:
     wfcinit      :      0.02s CPU      0.02s WALL (       1 calls)
     potinit      :      0.11s CPU      0.14s WALL (       1 calls)
     hinit0       :      0.14s CPU      0.14s WALL (       1 calls)

     Called by electrons:
     c_bands      :      0.61s CPU      0.65s WALL (      10 calls)
     sum_band     :      0.14s CPU      0.14s WALL (      10 calls)
     v_of_rho     :      0.03s CPU      0.03s WALL (      10 calls)
     newd         :      0.03s CPU      0.03s WALL (      10 calls)
     PAW_pot      :      1.07s CPU      1.24s WALL (      10 calls)
     mix_rho      :      0.00s CPU      0.00s WALL (      10 calls)

     Called by c_bands:
     init_us_2    :      0.01s CPU      0.01s WALL (     230 calls)
     cegterg      :      0.59s CPU      0.62s WALL (     100 calls)

     Called by sum_band:
     sum_band:bec :      0.00s CPU      0.00s WALL (     100 calls)
     addusdens    :      0.03s CPU      0.03s WALL (      10 calls)

     Called by *egterg:
     h_psi        :      0.41s CPU      0.44s WALL (     379 calls)
     s_psi        :      0.01s CPU      0.01s WALL (     379 calls)
     g_psi        :      0.00s CPU      0.00s WALL (     269 calls)
     cdiaghg      :      0.10s CPU      0.10s WALL (     359 calls)

     Called by h_psi:
     h_psi:pot    :      0.41s CPU      0.44s WALL (     379 calls)
     h_psi:calbec :      0.02s CPU      0.02s WALL (     379 calls)
     vloc_psi     :      0.38s CPU      0.40s WALL (     379 calls)
     add_vuspsi   :      0.01s CPU      0.01s WALL (     379 calls)

     General routines
     calbec       :      0.03s CPU      0.03s WALL (     529 calls)
     fft          :      0.02s CPU      0.02s WALL (     137 calls)
     ffts         :      0.00s CPU      0.00s WALL (      10 calls)
     fftw         :      0.42s CPU      0.45s WALL (    6532 calls)

     Parallel routines
     fft_scatt_xy :      0.04s CPU      0.04s WALL (    6679 calls)
     fft_scatt_yz :      0.16s CPU      0.17s WALL (    6679 calls)

     PWSCF        :     3.13s CPU         3.42s WALL


   This run was terminated on:  11:29:33  26Mar2024            

=------------------------------------------------------------------------------=
   JOB DONE.
=------------------------------------------------------------------------------=
