
     Program PWSCF v.6.3MaX starts on 26Mar2024 at 12: 6:33 

     This program is part of the open-source Quantum ESPRESSO suite
     for quantum simulation of materials; please cite
         "P. Giannozzi et al., J. Phys.:Condens. Matter 21 395502 (2009);
         "P. Giannozzi et al., J. Phys.:Condens. Matter 29 465901 (2017);
          URL http://www.quantum-espresso.org", 
     in publications or presentations arising from this work. More details at
     http://www.quantum-espresso.org/quote

     Parallel version (MPI), running on     5 processors

     MPI processes distributed on     1 nodes
     R & G space division:  proc/nbgrp/npool/nimage =       5
     Waiting for input...
     Reading input from standard input

     Current dimensions of program PWSCF are:
     Max number of different atomic species (ntypx) = 10
     Max number of k-points (npk) =  40000
     Max angular momentum in pseudopotentials (lmaxx) =  3
               file Au.pbesol-n-kjpaw_psl.1.0.0.UPF: wavefunction(s)  6S 5D renormalized

     Subspace diagonalization in iterative solution of the eigenvalue problem:
     a serial algorithm will be used


     Parallelization info
     --------------------
     sticks:   dense  smooth     PW     G-vecs:    dense   smooth      PW
     Min         116     116     32                 1836     1836     290
     Max         117     117     33                 1838     1838     293
     Sum         583     583    163                 9185     9185    1459



     bravais-lattice index     =            2
     lattice parameter (alat)  =       7.7100  a.u.
     unit-cell volume          =     114.5785 (a.u.)^3
     number of atoms/cell      =            1
     number of atomic types    =            1
     number of electrons       =        11.00
     number of Kohn-Sham states=           10
     kinetic-energy cutoff     =      70.0000  Ry
     charge density cutoff     =     280.0000  Ry
     convergence threshold     =      1.0E-08
     mixing beta               =       0.7000
     number of iterations used =            8  plain     mixing
     Exchange-correlation      = SLA PW PSX PSC ( 1  4 10  8 0 0)

     celldm(1)=   7.710000  celldm(2)=   0.000000  celldm(3)=   0.000000
     celldm(4)=   0.000000  celldm(5)=   0.000000  celldm(6)=   0.000000

     crystal axes: (cart. coord. in units of alat)
               a(1) = (  -0.500000   0.000000   0.500000 )  
               a(2) = (   0.000000   0.500000   0.500000 )  
               a(3) = (  -0.500000   0.500000   0.000000 )  

     reciprocal axes: (cart. coord. in units 2 pi/alat)
               b(1) = ( -1.000000 -1.000000  1.000000 )  
               b(2) = (  1.000000  1.000000  1.000000 )  
               b(3) = ( -1.000000  1.000000 -1.000000 )  


     PseudoPot. # 1 for Au read from file:
     /home/lorenzo/pseudos/Au/Au.pbesol-n-kjpaw_psl.1.0.0.UPF
     MD5 check sum: abc371be705c47a6b6a6b4088b452d3e
     Pseudo is Projector augmented-wave + core cor, Zval = 11.0
     Generated using "atomic" code by A. Dal Corso v.6.3
     Shape of augmentation charge: PSQ
     Using radial grid of 1279 points,  6 beta functions with: 
                l(1) =   0
                l(2) =   0
                l(3) =   1
                l(4) =   1
                l(5) =   2
                l(6) =   2
     Q(r) pseudized with 0 coefficients 


     atomic species   valence    mass     pseudopotential
        Au            11.00   196.96600     Au( 1.00)

     48 Sym. Ops., with inversion, found



   Cartesian axes

     site n.     atom                  positions (alat units)
         1           Au  tau(   1) = (   0.0000000   0.0000000   0.0000000  )

     number of k points=     3  gaussian smearing, width (Ry)=  0.0100
                       cart. coord. in units 2pi/alat
        k(    1) = (   0.0000000   0.0000000   0.0000000), wk =   0.2500000
        k(    2) = (   0.5000000  -0.5000000   0.5000000), wk =   1.0000000
        k(    3) = (   0.0000000  -1.0000000   0.0000000), wk =   0.7500000

     Dense  grid:     9185 G-vectors     FFT dimensions: (  30,  30,  30)

     Estimated max dynamical RAM per process >       8.62 MB

     Estimated total dynamical RAM >      43.10 MB

     Initial potential from superposition of free atoms

     starting charge   10.99990, renormalised to   11.00000
     Starting wfcs are    9 randomized atomic wfcs +    1 random wfcs
     Checking if some PAW data can be deallocated... 

     total cpu time spent up to now is        1.3 secs

     Self-consistent Calculation

     iteration #  1     ecut=    70.00 Ry     beta= 0.70
     Davidson diagonalization with overlap
     ethr =  1.00E-02,  avg # of iterations =  7.7

     Threshold (ethr) on eigenvalues was too large:
     Diagonalizing with lowered threshold

     Davidson diagonalization with overlap
     ethr =  4.07E-04,  avg # of iterations =  2.0

     negative rho (up, down):  2.003E-03 0.000E+00

     total cpu time spent up to now is        1.5 secs

     total energy              =    -764.41928253 Ry
     Harris-Foulkes estimate   =    -764.44251360 Ry
     estimated scf accuracy    <       0.04540028 Ry

     iteration #  2     ecut=    70.00 Ry     beta= 0.70
     Davidson diagonalization with overlap
     ethr =  4.13E-04,  avg # of iterations =  5.7

     total cpu time spent up to now is        1.8 secs

     total energy              =    -763.68266428 Ry
     Harris-Foulkes estimate   =    -764.60826832 Ry
     estimated scf accuracy    <     152.38957144 Ry

     iteration #  3     ecut=    70.00 Ry     beta= 0.70
     Davidson diagonalization with overlap
     ethr =  4.13E-04,  avg # of iterations =  3.7

     total cpu time spent up to now is        1.9 secs

     total energy              =    -764.42981981 Ry
     Harris-Foulkes estimate   =    -764.44565993 Ry
     estimated scf accuracy    <       0.06404391 Ry

     iteration #  4     ecut=    70.00 Ry     beta= 0.70
     Davidson diagonalization with overlap
     ethr =  4.13E-04,  avg # of iterations =  2.3

     total cpu time spent up to now is        2.1 secs

     total energy              =    -764.43122026 Ry
     Harris-Foulkes estimate   =    -764.43298265 Ry
     estimated scf accuracy    <       0.03611178 Ry

     iteration #  5     ecut=    70.00 Ry     beta= 0.70
     Davidson diagonalization with overlap
     ethr =  3.28E-04,  avg # of iterations =  1.0

     total cpu time spent up to now is        2.3 secs

     total energy              =    -764.43134911 Ry
     Harris-Foulkes estimate   =    -764.43353531 Ry
     estimated scf accuracy    <       0.01831289 Ry

     iteration #  6     ecut=    70.00 Ry     beta= 0.70
     Davidson diagonalization with overlap
     ethr =  1.66E-04,  avg # of iterations =  2.7

     total cpu time spent up to now is        2.5 secs

     total energy              =    -764.43285123 Ry
     Harris-Foulkes estimate   =    -764.43296172 Ry
     estimated scf accuracy    <       0.01483162 Ry

     iteration #  7     ecut=    70.00 Ry     beta= 0.70
     Davidson diagonalization with overlap
     ethr =  1.35E-04,  avg # of iterations =  4.7

     total cpu time spent up to now is        2.7 secs

     total energy              =    -764.43274043 Ry
     Harris-Foulkes estimate   =    -764.43288221 Ry
     estimated scf accuracy    <       0.01370780 Ry

     iteration #  8     ecut=    70.00 Ry     beta= 0.70
     Davidson diagonalization with overlap
     ethr =  1.25E-04,  avg # of iterations =  1.0

     total cpu time spent up to now is        2.8 secs

     total energy              =    -764.43268451 Ry
     Harris-Foulkes estimate   =    -764.43276810 Ry
     estimated scf accuracy    <       0.01200945 Ry

     iteration #  9     ecut=    70.00 Ry     beta= 0.70
     Davidson diagonalization with overlap
     ethr =  1.09E-04,  avg # of iterations =  2.3

     total cpu time spent up to now is        3.0 secs

     total energy              =    -764.43270670 Ry
     Harris-Foulkes estimate   =    -764.43270417 Ry
     estimated scf accuracy    <       0.00984822 Ry

     iteration # 10     ecut=    70.00 Ry     beta= 0.70
     Davidson diagonalization with overlap
     ethr =  8.95E-05,  avg # of iterations =  1.0

     total cpu time spent up to now is        3.2 secs

     total energy              =    -764.43268776 Ry
     Harris-Foulkes estimate   =    -764.43271149 Ry
     estimated scf accuracy    <       0.00955677 Ry

     iteration # 11     ecut=    70.00 Ry     beta= 0.70
     Davidson diagonalization with overlap
     ethr =  8.69E-05,  avg # of iterations =  1.0

     total cpu time spent up to now is        3.3 secs

     total energy              =    -764.43218606 Ry
     Harris-Foulkes estimate   =    -764.43269136 Ry
     estimated scf accuracy    <       0.00863208 Ry

     iteration # 12     ecut=    70.00 Ry     beta= 0.70
     Davidson diagonalization with overlap
     ethr =  7.85E-05,  avg # of iterations =  1.3

     total cpu time spent up to now is        3.5 secs

     total energy              =    -764.43237213 Ry
     Harris-Foulkes estimate   =    -764.43241679 Ry
     estimated scf accuracy    <       0.00031807 Ry

     iteration # 13     ecut=    70.00 Ry     beta= 0.70
     Davidson diagonalization with overlap
     ethr =  2.89E-06,  avg # of iterations =  2.0

     total cpu time spent up to now is        3.7 secs

     total energy              =    -764.43241971 Ry
     Harris-Foulkes estimate   =    -764.43242090 Ry
     estimated scf accuracy    <       0.00000891 Ry

     iteration # 14     ecut=    70.00 Ry     beta= 0.70
     Davidson diagonalization with overlap
     ethr =  8.10E-08,  avg # of iterations =  4.0

     total cpu time spent up to now is        3.9 secs

     total energy              =    -764.43245109 Ry
     Harris-Foulkes estimate   =    -764.43245502 Ry
     estimated scf accuracy    <       0.00096627 Ry

     iteration # 15     ecut=    70.00 Ry     beta= 0.70
     Davidson diagonalization with overlap
     ethr =  8.10E-08,  avg # of iterations =  1.0

     total cpu time spent up to now is        4.1 secs

     total energy              =    -764.43246240 Ry
     Harris-Foulkes estimate   =    -764.43245127 Ry
     estimated scf accuracy    <       0.00085184 Ry

     iteration # 16     ecut=    70.00 Ry     beta= 0.70
     Davidson diagonalization with overlap
     ethr =  8.10E-08,  avg # of iterations =  2.3

     total cpu time spent up to now is        4.3 secs

     total energy              =    -764.43244348 Ry
     Harris-Foulkes estimate   =    -764.43246686 Ry
     estimated scf accuracy    <       0.00140586 Ry

     iteration # 17     ecut=    70.00 Ry     beta= 0.70
     Davidson diagonalization with overlap
     ethr =  8.10E-08,  avg # of iterations =  1.7

     total cpu time spent up to now is        4.4 secs

     total energy              =    -764.43243858 Ry
     Harris-Foulkes estimate   =    -764.43244661 Ry
     estimated scf accuracy    <       0.00076664 Ry

     iteration # 18     ecut=    70.00 Ry     beta= 0.70
     Davidson diagonalization with overlap
     ethr =  8.10E-08,  avg # of iterations =  1.3

     total cpu time spent up to now is        4.6 secs

     total energy              =    -764.43236954 Ry
     Harris-Foulkes estimate   =    -764.43243935 Ry
     estimated scf accuracy    <       0.00056139 Ry

     iteration # 19     ecut=    70.00 Ry     beta= 0.70
     Davidson diagonalization with overlap
     ethr =  8.10E-08,  avg # of iterations =  3.3

     total cpu time spent up to now is        4.8 secs

     total energy              =    -764.43241300 Ry
     Harris-Foulkes estimate   =    -764.43244058 Ry
     estimated scf accuracy    <       0.00052396 Ry

     iteration # 20     ecut=    70.00 Ry     beta= 0.70
     Davidson diagonalization with overlap
     ethr =  8.10E-08,  avg # of iterations =  2.7

     total cpu time spent up to now is        5.0 secs

     total energy              =    -764.43242535 Ry
     Harris-Foulkes estimate   =    -764.43242430 Ry
     estimated scf accuracy    <       0.00001978 Ry

     iteration # 21     ecut=    70.00 Ry     beta= 0.70
     Davidson diagonalization with overlap
     ethr =  8.10E-08,  avg # of iterations =  1.3

     total cpu time spent up to now is        5.1 secs

     total energy              =    -764.43242494 Ry
     Harris-Foulkes estimate   =    -764.43242589 Ry
     estimated scf accuracy    <       0.00006484 Ry

     iteration # 22     ecut=    70.00 Ry     beta= 0.70
     Davidson diagonalization with overlap
     ethr =  8.10E-08,  avg # of iterations =  1.0

     total cpu time spent up to now is        5.3 secs

     total energy              =    -764.43242364 Ry
     Harris-Foulkes estimate   =    -764.43242504 Ry
     estimated scf accuracy    <       0.00005091 Ry

     iteration # 23     ecut=    70.00 Ry     beta= 0.70
     Davidson diagonalization with overlap
     ethr =  8.10E-08,  avg # of iterations =  1.3

     total cpu time spent up to now is        5.5 secs

     total energy              =    -764.43242294 Ry
     Harris-Foulkes estimate   =    -764.43242402 Ry
     estimated scf accuracy    <       0.00001693 Ry

     iteration # 24     ecut=    70.00 Ry     beta= 0.70
     Davidson diagonalization with overlap
     ethr =  8.10E-08,  avg # of iterations =  1.7

     total cpu time spent up to now is        5.7 secs

     total energy              =    -764.43242346 Ry
     Harris-Foulkes estimate   =    -764.43242351 Ry
     estimated scf accuracy    <       0.00000095 Ry

     iteration # 25     ecut=    70.00 Ry     beta= 0.70
     Davidson diagonalization with overlap
     ethr =  8.61E-09,  avg # of iterations =  2.7

     total cpu time spent up to now is        5.9 secs

     total energy              =    -764.43242366 Ry
     Harris-Foulkes estimate   =    -764.43242374 Ry
     estimated scf accuracy    <       0.00000113 Ry

     iteration # 26     ecut=    70.00 Ry     beta= 0.70
     Davidson diagonalization with overlap
     ethr =  8.61E-09,  avg # of iterations =  1.3

     total cpu time spent up to now is        6.1 secs

     total energy              =    -764.43242367 Ry
     Harris-Foulkes estimate   =    -764.43242369 Ry
     estimated scf accuracy    <       0.00000013 Ry

     iteration # 27     ecut=    70.00 Ry     beta= 0.70
     Davidson diagonalization with overlap
     ethr =  1.21E-09,  avg # of iterations =  2.3

     total cpu time spent up to now is        6.2 secs

     total energy              =    -764.43242369 Ry
     Harris-Foulkes estimate   =    -764.43242371 Ry
     estimated scf accuracy    <       0.00000040 Ry

     iteration # 28     ecut=    70.00 Ry     beta= 0.70
     Davidson diagonalization with overlap
     ethr =  1.21E-09,  avg # of iterations =  1.3

     total cpu time spent up to now is        6.4 secs

     total energy              =    -764.43242370 Ry
     Harris-Foulkes estimate   =    -764.43242370 Ry
     estimated scf accuracy    <       0.00000005 Ry

     iteration # 29     ecut=    70.00 Ry     beta= 0.70
     Davidson diagonalization with overlap
     ethr =  4.34E-10,  avg # of iterations =  1.3

     total cpu time spent up to now is        6.6 secs

     End of self-consistent calculation

          k = 0.0000 0.0000 0.0000 (  1139 PWs)   bands (ev):

     5.8305  11.4608  11.4608  11.4608  13.0911  13.0911  31.0252  35.0163
    35.0163  35.0163

          k = 0.5000-0.5000 0.5000 (  1158 PWs)   bands (ev):

     8.6188  11.4375  11.4375  14.3211  14.3211  14.7403  19.1792  30.3439
    33.3952  33.3952

          k = 0.0000-1.0000 0.0000 (  1138 PWs)   bands (ev):

     8.9306   9.2943  14.2947  14.6472  14.6472  16.7465  21.7396  25.9886
    25.9886  32.8247

     the Fermi energy is    14.8219 ev

!    total energy              =    -764.43242370 Ry
     Harris-Foulkes estimate   =    -764.43242370 Ry
     estimated scf accuracy    <          1.3E-09 Ry

     total all-electron energy =    -38013.266886 Ry

     The total energy is the sum of the following terms:

     one-electron contribution =      13.99055787 Ry
     hartree contribution      =       7.85765201 Ry
     xc contribution           =     -31.93783129 Ry
     ewald contribution        =     -71.95438534 Ry
     one-center paw contrib.   =    -682.38563625 Ry
     smearing contrib. (-TS)   =      -0.00278070 Ry

     convergence has been achieved in  29 iterations

     Forces acting on atoms (cartesian axes, Ry/au):

     atom    1 type  1   force =     0.00000000    0.00000000    0.00000000

     Total force =     0.000000     Total SCF correction =     0.000000


     Computing stress (Cartesian axis) and pressure

          total   stress  (Ry/bohr**3)                   (kbar)     P=  494.68
   0.00336277   0.00000000  -0.00000000        494.68      0.00     -0.00
  -0.00000000   0.00336277  -0.00000000         -0.00    494.68     -0.00
  -0.00000000  -0.00000000   0.00336277         -0.00     -0.00    494.68


     Writing output data file Au.save/

     init_run     :      0.33s CPU      0.35s WALL (       1 calls)
     electrons    :      4.88s CPU      5.36s WALL (       1 calls)
     forces       :      0.03s CPU      0.03s WALL (       1 calls)
     stress       :      0.09s CPU      0.09s WALL (       1 calls)

     Called by init_run:
     wfcinit      :      0.01s CPU      0.01s WALL (       1 calls)
     potinit      :      0.10s CPU      0.12s WALL (       1 calls)
     hinit0       :      0.18s CPU      0.18s WALL (       1 calls)

     Called by electrons:
     c_bands      :      0.86s CPU      0.90s WALL (      30 calls)
     sum_band     :      0.48s CPU      0.49s WALL (      30 calls)
     v_of_rho     :      0.16s CPU      0.16s WALL (      30 calls)
     newd         :      0.29s CPU      0.35s WALL (      30 calls)
     PAW_pot      :      3.14s CPU      3.51s WALL (      30 calls)
     mix_rho      :      0.03s CPU      0.03s WALL (      30 calls)

     Called by c_bands:
     init_us_2    :      0.03s CPU      0.03s WALL (     189 calls)
     cegterg      :      0.81s CPU      0.85s WALL (      90 calls)

     Called by sum_band:
     sum_band:bec :      0.00s CPU      0.00s WALL (      90 calls)
     addusdens    :      0.27s CPU      0.28s WALL (      30 calls)

     Called by *egterg:
     h_psi        :      0.62s CPU      0.65s WALL (     300 calls)
     s_psi        :      0.02s CPU      0.02s WALL (     300 calls)
     g_psi        :      0.00s CPU      0.00s WALL (     207 calls)
     cdiaghg      :      0.07s CPU      0.07s WALL (     294 calls)

     Called by h_psi:
     h_psi:pot    :      0.62s CPU      0.65s WALL (     300 calls)
     h_psi:calbec :      0.03s CPU      0.03s WALL (     300 calls)
     vloc_psi     :      0.56s CPU      0.59s WALL (     300 calls)
     add_vuspsi   :      0.02s CPU      0.02s WALL (     300 calls)

     General routines
     calbec       :      0.04s CPU      0.05s WALL (     405 calls)
     fft          :      0.09s CPU      0.09s WALL (     357 calls)
     ffts         :      0.01s CPU      0.01s WALL (      30 calls)
     fftw         :      0.64s CPU      0.67s WALL (    5220 calls)

     Parallel routines
     fft_scatt_xy :      0.06s CPU      0.06s WALL (    5607 calls)
     fft_scatt_yz :      0.21s CPU      0.22s WALL (    5607 calls)

     PWSCF        :     6.23s CPU         6.77s WALL


   This run was terminated on:  12: 6:39  26Mar2024            

=------------------------------------------------------------------------------=
   JOB DONE.
=------------------------------------------------------------------------------=
