
     Program PWSCF v.6.3MaX starts on 26Mar2024 at 11:29:20 

     This program is part of the open-source Quantum ESPRESSO suite
     for quantum simulation of materials; please cite
         "P. Giannozzi et al., J. Phys.:Condens. Matter 21 395502 (2009);
         "P. Giannozzi et al., J. Phys.:Condens. Matter 29 465901 (2017);
          URL http://www.quantum-espresso.org", 
     in publications or presentations arising from this work. More details at
     http://www.quantum-espresso.org/quote

     Parallel version (MPI), running on     5 processors

     MPI processes distributed on     1 nodes
     R & G space division:  proc/nbgrp/npool/nimage =       5
     Waiting for input...
     Reading input from standard input

     Current dimensions of program PWSCF are:
     Max number of different atomic species (ntypx) = 10
     Max number of k-points (npk) =  40000
     Max angular momentum in pseudopotentials (lmaxx) =  3
               file Au.pbesol-n-kjpaw_psl.1.0.0.UPF: wavefunction(s)  6S 5D renormalized

     Subspace diagonalization in iterative solution of the eigenvalue problem:
     a serial algorithm will be used


     Parallelization info
     --------------------
     sticks:   dense  smooth     PW     G-vecs:    dense   smooth      PW
     Min          56      56     18                  627      627     121
     Max          57      57     19                  630      630     123
     Sum         283     283     91                 3143     3143     609



     bravais-lattice index     =            2
     lattice parameter (alat)  =       7.7100  a.u.
     unit-cell volume          =     114.5785 (a.u.)^3
     number of atoms/cell      =            1
     number of atomic types    =            1
     number of electrons       =        11.00
     number of Kohn-Sham states=           10
     kinetic-energy cutoff     =      35.0000  Ry
     charge density cutoff     =     140.0000  Ry
     convergence threshold     =      1.0E-08
     mixing beta               =       0.7000
     number of iterations used =            8  plain     mixing
     Exchange-correlation      = SLA PW PSX PSC ( 1  4 10  8 0 0)

     celldm(1)=   7.710000  celldm(2)=   0.000000  celldm(3)=   0.000000
     celldm(4)=   0.000000  celldm(5)=   0.000000  celldm(6)=   0.000000

     crystal axes: (cart. coord. in units of alat)
               a(1) = (  -0.500000   0.000000   0.500000 )  
               a(2) = (   0.000000   0.500000   0.500000 )  
               a(3) = (  -0.500000   0.500000   0.000000 )  

     reciprocal axes: (cart. coord. in units 2 pi/alat)
               b(1) = ( -1.000000 -1.000000  1.000000 )  
               b(2) = (  1.000000  1.000000  1.000000 )  
               b(3) = ( -1.000000  1.000000 -1.000000 )  


     PseudoPot. # 1 for Au read from file:
     /home/lorenzo/pseudos/Au/Au.pbesol-n-kjpaw_psl.1.0.0.UPF
     MD5 check sum: abc371be705c47a6b6a6b4088b452d3e
     Pseudo is Projector augmented-wave + core cor, Zval = 11.0
     Generated using "atomic" code by A. Dal Corso v.6.3
     Shape of augmentation charge: PSQ
     Using radial grid of 1279 points,  6 beta functions with: 
                l(1) =   0
                l(2) =   0
                l(3) =   1
                l(4) =   1
                l(5) =   2
                l(6) =   2
     Q(r) pseudized with 0 coefficients 


     atomic species   valence    mass     pseudopotential
        Au            11.00   196.96600     Au( 1.00)

     48 Sym. Ops., with inversion, found



   Cartesian axes

     site n.     atom                  positions (alat units)
         1           Au  tau(   1) = (   0.0000000   0.0000000   0.0000000  )

     number of k points=     8  gaussian smearing, width (Ry)=  0.0100
                       cart. coord. in units 2pi/alat
        k(    1) = (   0.0000000   0.0000000   0.0000000), wk =   0.0312500
        k(    2) = (  -0.2500000   0.2500000  -0.2500000), wk =   0.2500000
        k(    3) = (   0.5000000  -0.5000000   0.5000000), wk =   0.1250000
        k(    4) = (   0.0000000   0.5000000   0.0000000), wk =   0.1875000
        k(    5) = (   0.7500000  -0.2500000   0.7500000), wk =   0.7500000
        k(    6) = (   0.5000000   0.0000000   0.5000000), wk =   0.3750000
        k(    7) = (   0.0000000  -1.0000000   0.0000000), wk =   0.0937500
        k(    8) = (  -0.5000000  -1.0000000   0.0000000), wk =   0.1875000

     Dense  grid:     3143 G-vectors     FFT dimensions: (  24,  24,  24)

     Estimated max dynamical RAM per process >       3.68 MB

     Estimated total dynamical RAM >      18.41 MB

     Initial potential from superposition of free atoms

     starting charge   10.99990, renormalised to   11.00000
     Starting wfcs are    9 randomized atomic wfcs +    1 random wfcs
     Checking if some PAW data can be deallocated... 

     total cpu time spent up to now is        1.2 secs

     Self-consistent Calculation

     iteration #  1     ecut=    35.00 Ry     beta= 0.70
     Davidson diagonalization with overlap
     ethr =  1.00E-02,  avg # of iterations =  5.5

     Threshold (ethr) on eigenvalues was too large:
     Diagonalizing with lowered threshold

     Davidson diagonalization with overlap
     ethr =  5.38E-04,  avg # of iterations =  1.5

     total cpu time spent up to now is        1.5 secs

     total energy              =    -764.64399871 Ry
     Harris-Foulkes estimate   =    -764.68550536 Ry
     estimated scf accuracy    <       0.06037218 Ry

     iteration #  2     ecut=    35.00 Ry     beta= 0.70
     Davidson diagonalization with overlap
     ethr =  5.49E-04,  avg # of iterations =  4.6

     total cpu time spent up to now is        1.7 secs

     total energy              =    -740.62930780 Ry
     Harris-Foulkes estimate   =    -766.49260297 Ry
     estimated scf accuracy    <   35760.81875179 Ry

     iteration #  3     ecut=    35.00 Ry     beta= 0.70
     Davidson diagonalization with overlap
     ethr =  5.49E-04,  avg # of iterations =  4.9

     total cpu time spent up to now is        1.9 secs

     total energy              =    -764.66130940 Ry
     Harris-Foulkes estimate   =    -764.67366020 Ry
     estimated scf accuracy    <       0.02440148 Ry

     iteration #  4     ecut=    35.00 Ry     beta= 0.70
     Davidson diagonalization with overlap
     ethr =  2.22E-04,  avg # of iterations =  3.5

     total cpu time spent up to now is        2.1 secs

     total energy              =    -764.66517829 Ry
     Harris-Foulkes estimate   =    -764.66540007 Ry
     estimated scf accuracy    <       0.00232352 Ry

     iteration #  5     ecut=    35.00 Ry     beta= 0.70
     Davidson diagonalization with overlap
     ethr =  2.11E-05,  avg # of iterations =  3.9

     total cpu time spent up to now is        2.2 secs

     total energy              =    -764.66572636 Ry
     Harris-Foulkes estimate   =    -764.66576536 Ry
     estimated scf accuracy    <       0.00053921 Ry

     iteration #  6     ecut=    35.00 Ry     beta= 0.70
     Davidson diagonalization with overlap
     ethr =  4.90E-06,  avg # of iterations =  1.4

     total cpu time spent up to now is        2.4 secs

     total energy              =    -764.66575027 Ry
     Harris-Foulkes estimate   =    -764.66574542 Ry
     estimated scf accuracy    <       0.00055649 Ry

     iteration #  7     ecut=    35.00 Ry     beta= 0.70
     Davidson diagonalization with overlap
     ethr =  4.90E-06,  avg # of iterations =  1.0

     total cpu time spent up to now is        2.6 secs

     total energy              =    -764.66575501 Ry
     Harris-Foulkes estimate   =    -764.66575611 Ry
     estimated scf accuracy    <       0.00062706 Ry

     iteration #  8     ecut=    35.00 Ry     beta= 0.70
     Davidson diagonalization with overlap
     ethr =  4.90E-06,  avg # of iterations =  1.0

     total cpu time spent up to now is        2.7 secs

     total energy              =    -764.66575495 Ry
     Harris-Foulkes estimate   =    -764.66575649 Ry
     estimated scf accuracy    <       0.00065262 Ry

     iteration #  9     ecut=    35.00 Ry     beta= 0.70
     Davidson diagonalization with overlap
     ethr =  4.90E-06,  avg # of iterations =  1.0

     total cpu time spent up to now is        2.9 secs

     total energy              =    -764.66575496 Ry
     Harris-Foulkes estimate   =    -764.66575552 Ry
     estimated scf accuracy    <       0.00067020 Ry

     iteration # 10     ecut=    35.00 Ry     beta= 0.70
     Davidson diagonalization with overlap
     ethr =  4.90E-06,  avg # of iterations =  1.0

     total cpu time spent up to now is        3.0 secs

     total energy              =    -764.66575554 Ry
     Harris-Foulkes estimate   =    -764.66575518 Ry
     estimated scf accuracy    <       0.00068212 Ry

     iteration # 11     ecut=    35.00 Ry     beta= 0.70
     Davidson diagonalization with overlap
     ethr =  4.90E-06,  avg # of iterations =  1.0

     total cpu time spent up to now is        3.2 secs

     total energy              =    -764.66580321 Ry
     Harris-Foulkes estimate   =    -764.66575568 Ry
     estimated scf accuracy    <       0.00069308 Ry

     iteration # 12     ecut=    35.00 Ry     beta= 0.70
     Davidson diagonalization with overlap
     ethr =  4.90E-06,  avg # of iterations =  1.0

     total cpu time spent up to now is        3.3 secs

     total energy              =    -764.66582572 Ry
     Harris-Foulkes estimate   =    -764.66582134 Ry
     estimated scf accuracy    <       0.00096342 Ry

     iteration # 13     ecut=    35.00 Ry     beta= 0.70
     Davidson diagonalization with overlap
     ethr =  4.90E-06,  avg # of iterations =  1.0

     total cpu time spent up to now is        3.5 secs

     total energy              =    -764.66581697 Ry
     Harris-Foulkes estimate   =    -764.66582774 Ry
     estimated scf accuracy    <       0.00099861 Ry

     iteration # 14     ecut=    35.00 Ry     beta= 0.70
     Davidson diagonalization with overlap
     ethr =  4.90E-06,  avg # of iterations =  1.0

     total cpu time spent up to now is        3.7 secs

     total energy              =    -764.66578895 Ry
     Harris-Foulkes estimate   =    -764.66581781 Ry
     estimated scf accuracy    <       0.00097513 Ry

     iteration # 15     ecut=    35.00 Ry     beta= 0.70
     Davidson diagonalization with overlap
     ethr =  4.90E-06,  avg # of iterations =  1.0

     total cpu time spent up to now is        3.8 secs

     total energy              =    -764.66576729 Ry
     Harris-Foulkes estimate   =    -764.66579017 Ry
     estimated scf accuracy    <       0.00081970 Ry

     iteration # 16     ecut=    35.00 Ry     beta= 0.70
     Davidson diagonalization with overlap
     ethr =  4.90E-06,  avg # of iterations =  1.0

     total cpu time spent up to now is        4.0 secs

     total energy              =    -764.66584632 Ry
     Harris-Foulkes estimate   =    -764.66576859 Ry
     estimated scf accuracy    <       0.00069327 Ry

     iteration # 17     ecut=    35.00 Ry     beta= 0.70
     Davidson diagonalization with overlap
     ethr =  4.90E-06,  avg # of iterations =  1.6

     total cpu time spent up to now is        4.2 secs

     total energy              =    -764.66569108 Ry
     Harris-Foulkes estimate   =    -764.66585473 Ry
     estimated scf accuracy    <       0.00111129 Ry

     iteration # 18     ecut=    35.00 Ry     beta= 0.70
     Davidson diagonalization with overlap
     ethr =  4.90E-06,  avg # of iterations =  2.1

     total cpu time spent up to now is        4.3 secs

     total energy              =    -764.66564995 Ry
     Harris-Foulkes estimate   =    -764.66572275 Ry
     estimated scf accuracy    <       0.00032895 Ry

     iteration # 19     ecut=    35.00 Ry     beta= 0.70
     Davidson diagonalization with overlap
     ethr =  2.99E-06,  avg # of iterations =  2.5

     total cpu time spent up to now is        4.5 secs

     total energy              =    -764.66567487 Ry
     Harris-Foulkes estimate   =    -764.66567955 Ry
     estimated scf accuracy    <       0.00001242 Ry

     iteration # 20     ecut=    35.00 Ry     beta= 0.70
     Davidson diagonalization with overlap
     ethr =  1.13E-07,  avg # of iterations =  3.4

     total cpu time spent up to now is        4.7 secs

     total energy              =    -764.66567821 Ry
     Harris-Foulkes estimate   =    -764.66567936 Ry
     estimated scf accuracy    <       0.00000614 Ry

     iteration # 21     ecut=    35.00 Ry     beta= 0.70
     Davidson diagonalization with overlap
     ethr =  5.58E-08,  avg # of iterations =  1.8

     total cpu time spent up to now is        4.8 secs

     total energy              =    -764.66567861 Ry
     Harris-Foulkes estimate   =    -764.66567871 Ry
     estimated scf accuracy    <       0.00000051 Ry

     iteration # 22     ecut=    35.00 Ry     beta= 0.70
     Davidson diagonalization with overlap
     ethr =  4.59E-09,  avg # of iterations =  2.6

     total cpu time spent up to now is        5.0 secs

     total energy              =    -764.66567870 Ry
     Harris-Foulkes estimate   =    -764.66567870 Ry
     estimated scf accuracy    <       0.00000004 Ry

     iteration # 23     ecut=    35.00 Ry     beta= 0.70
     Davidson diagonalization with overlap
     ethr =  3.94E-10,  avg # of iterations =  2.8

     total cpu time spent up to now is        5.2 secs

     End of self-consistent calculation

          k = 0.0000 0.0000 0.0000 (   411 PWs)   bands (ev):

     5.8122  11.0813  11.0813  11.0813  12.6231  12.6231  31.1253  34.9883
    34.9883  34.9883

          k =-0.2500 0.2500-0.2500 (   395 PWs)   bands (ev):

     7.6249  10.9331  11.3673  11.3673  12.7910  12.7910  27.0764  32.0809
    35.9374  35.9374

          k = 0.5000-0.5000 0.5000 (   392 PWs)   bands (ev):

     8.4137  11.0478  11.0478  13.8335  13.8335  14.7362  18.8718  30.4105
    33.3322  33.3322

          k = 0.0000 0.5000 0.0000 (   415 PWs)   bands (ev):

     8.2520   9.9479  11.7757  12.3280  12.3280  13.1814  30.7490  30.7490
    31.9233  32.8631

          k = 0.7500-0.2500 0.7500 (   404 PWs)   bands (ev):

     9.2876  10.2088  11.4149  12.2821  13.9237  16.7997  21.2219  27.2953
    29.4030  32.9672

          k = 0.5000 0.0000 0.5000 (   407 PWs)   bands (ev):

     9.6285  10.5314  10.8756  12.0178  12.6100  15.5009  24.3451  26.0887
    32.7830  34.0625

          k = 0.0000-1.0000 0.0000 (   388 PWs)   bands (ev):

     8.6689   9.0007  13.7879  14.1618  14.1618  16.7418  21.5034  25.9438
    25.9438  32.7760

          k =-0.5000-1.0000 0.0000 (   396 PWs)   bands (ev):

     9.7865  10.5988  10.5988  12.4715  14.1639  20.5199  22.1057  22.1057
    25.0926  39.3247

     the Fermi energy is    16.6178 ev

!    total energy              =    -764.66567872 Ry
     Harris-Foulkes estimate   =    -764.66567870 Ry
     estimated scf accuracy    <          2.4E-09 Ry

     total all-electron energy =    -38013.500141 Ry

     The total energy is the sum of the following terms:

     one-electron contribution =      13.88436827 Ry
     hartree contribution      =       7.57356341 Ry
     xc contribution           =     -31.82197436 Ry
     ewald contribution        =     -71.95438545 Ry
     one-center paw contrib.   =    -682.34678127 Ry
     smearing contrib. (-TS)   =      -0.00046933 Ry

     convergence has been achieved in  23 iterations

     Forces acting on atoms (cartesian axes, Ry/au):

     atom    1 type  1   force =     0.00000000    0.00000000    0.00000000

     Total force =     0.000000     Total SCF correction =     0.000000


     Computing stress (Cartesian axis) and pressure

          total   stress  (Ry/bohr**3)                   (kbar)     P=   28.66
   0.00019480  -0.00000000  -0.00000000         28.66     -0.00     -0.00
  -0.00000000   0.00019480   0.00000000         -0.00     28.66      0.00
  -0.00000000   0.00000000   0.00019480         -0.00      0.00     28.66


     Writing output data file Au.save/

     init_run     :      0.28s CPU      0.30s WALL (       1 calls)
     electrons    :      3.55s CPU      3.97s WALL (       1 calls)
     forces       :      0.01s CPU      0.01s WALL (       1 calls)
     stress       :      0.04s CPU      0.04s WALL (       1 calls)

     Called by init_run:
     wfcinit      :      0.01s CPU      0.01s WALL (       1 calls)
     potinit      :      0.13s CPU      0.15s WALL (       1 calls)
     hinit0       :      0.12s CPU      0.12s WALL (       1 calls)

     Called by electrons:
     c_bands      :      0.89s CPU      0.96s WALL (      24 calls)
     sum_band     :      0.24s CPU      0.26s WALL (      24 calls)
     v_of_rho     :      0.07s CPU      0.07s WALL (      24 calls)
     newd         :      0.07s CPU      0.08s WALL (      24 calls)
     PAW_pot      :      2.38s CPU      2.72s WALL (      24 calls)
     mix_rho      :      0.01s CPU      0.01s WALL (      24 calls)

     Called by c_bands:
     init_us_2    :      0.02s CPU      0.03s WALL (     408 calls)
     cegterg      :      0.85s CPU      0.92s WALL (     192 calls)

     Called by sum_band:
     sum_band:bec :      0.00s CPU      0.00s WALL (     192 calls)
     addusdens    :      0.07s CPU      0.07s WALL (      24 calls)

     Called by *egterg:
     h_psi        :      0.62s CPU      0.68s WALL (     616 calls)
     s_psi        :      0.02s CPU      0.02s WALL (     616 calls)
     g_psi        :      0.00s CPU      0.00s WALL (     416 calls)
     cdiaghg      :      0.12s CPU      0.13s WALL (     600 calls)

     Called by h_psi:
     h_psi:pot    :      0.62s CPU      0.67s WALL (     616 calls)
     h_psi:calbec :      0.03s CPU      0.03s WALL (     616 calls)
     vloc_psi     :      0.57s CPU      0.62s WALL (     616 calls)
     add_vuspsi   :      0.02s CPU      0.02s WALL (     616 calls)

     General routines
     calbec       :      0.04s CPU      0.04s WALL (     848 calls)
     fft          :      0.04s CPU      0.04s WALL (     291 calls)
     ffts         :      0.00s CPU      0.00s WALL (      24 calls)
     fftw         :      0.63s CPU      0.69s WALL (   11282 calls)

     Parallel routines
     fft_scatt_xy :      0.06s CPU      0.07s WALL (   11597 calls)
     fft_scatt_yz :      0.21s CPU      0.23s WALL (   11597 calls)

     PWSCF        :     4.77s CPU         5.28s WALL


   This run was terminated on:  11:29:25  26Mar2024            

=------------------------------------------------------------------------------=
   JOB DONE.
=------------------------------------------------------------------------------=
