
     Program PWSCF v.6.3MaX starts on 26Mar2024 at 12:13:49 

     This program is part of the open-source Quantum ESPRESSO suite
     for quantum simulation of materials; please cite
         "P. Giannozzi et al., J. Phys.:Condens. Matter 21 395502 (2009);
         "P. Giannozzi et al., J. Phys.:Condens. Matter 29 465901 (2017);
          URL http://www.quantum-espresso.org", 
     in publications or presentations arising from this work. More details at
     http://www.quantum-espresso.org/quote

     Parallel version (MPI), running on     5 processors

     MPI processes distributed on     1 nodes
     R & G space division:  proc/nbgrp/npool/nimage =       5
     Waiting for input...
     Reading input from standard input

     Current dimensions of program PWSCF are:
     Max number of different atomic species (ntypx) = 10
     Max number of k-points (npk) =  40000
     Max angular momentum in pseudopotentials (lmaxx) =  3

     Subspace diagonalization in iterative solution of the eigenvalue problem:
     a serial algorithm will be used


     Parallelization info
     --------------------
     sticks:   dense  smooth     PW     G-vecs:    dense   smooth      PW
     Min         122     122     37                 1997     1997     327
     Max         123     123     38                 1997     1997     329
     Sum         613     613    187                 9985     9985    1639



     bravais-lattice index     =            2
     lattice parameter (alat)  =       7.7100  a.u.
     unit-cell volume          =     114.5785 (a.u.)^3
     number of atoms/cell      =            1
     number of atomic types    =            1
     number of electrons       =        11.00
     number of Kohn-Sham states=           10
     kinetic-energy cutoff     =      75.0000  Ry
     charge density cutoff     =     300.0000  Ry
     convergence threshold     =      1.0E-08
     mixing beta               =       0.7000
     number of iterations used =            8  plain     mixing
     Exchange-correlation      = PBESOL ( 1  4 10  8 0 0)

     celldm(1)=   7.710000  celldm(2)=   0.000000  celldm(3)=   0.000000
     celldm(4)=   0.000000  celldm(5)=   0.000000  celldm(6)=   0.000000

     crystal axes: (cart. coord. in units of alat)
               a(1) = (  -0.500000   0.000000   0.500000 )  
               a(2) = (   0.000000   0.500000   0.500000 )  
               a(3) = (  -0.500000   0.500000   0.000000 )  

     reciprocal axes: (cart. coord. in units 2 pi/alat)
               b(1) = ( -1.000000 -1.000000  1.000000 )  
               b(2) = (  1.000000  1.000000  1.000000 )  
               b(3) = ( -1.000000  1.000000 -1.000000 )  


     PseudoPot. # 1 for Au read from file:
     /home/lorenzo/pseudos/Au/Au.pbesol-n-rrkjus_psl.1.0.0.UPF
     MD5 check sum: 09626e9411213730b9a56fcc59c03ca8
     Pseudo is Ultrasoft + core correction, Zval = 11.0
     Generated using "atomic" code by A. Dal Corso v.6.3
     Using radial grid of 1279 points,  6 beta functions with: 
                l(1) =   0
                l(2) =   0
                l(3) =   1
                l(4) =   1
                l(5) =   2
                l(6) =   2
     Q(r) pseudized with 0 coefficients 


     atomic species   valence    mass     pseudopotential
        Au            11.00   196.96600     Au( 1.00)

     48 Sym. Ops., with inversion, found



   Cartesian axes

     site n.     atom                  positions (alat units)
         1           Au  tau(   1) = (   0.0000000   0.0000000   0.0000000  )

     number of k points=     4  gaussian smearing, width (Ry)=  0.0100
                       cart. coord. in units 2pi/alat
        k(    1) = (   0.0000000   0.0000000   0.0000000), wk =   0.0740741
        k(    2) = (  -0.3333333   0.3333333  -0.3333333), wk =   0.5925926
        k(    3) = (   0.0000000   0.6666667   0.0000000), wk =   0.4444444
        k(    4) = (   0.6666667  -0.0000000   0.6666667), wk =   0.8888889

     Dense  grid:     9985 G-vectors     FFT dimensions: (  32,  32,  32)

     Estimated max dynamical RAM per process >       9.41 MB

     Estimated total dynamical RAM >      47.07 MB

     Initial potential from superposition of free atoms

     starting charge   10.99990, renormalised to   11.00000
     Starting wfcs are    9 randomized atomic wfcs +    1 random wfcs

     total cpu time spent up to now is        1.0 secs

     Self-consistent Calculation

     iteration #  1     ecut=    75.00 Ry     beta= 0.70
     Davidson diagonalization with overlap
     ethr =  1.00E-02,  avg # of iterations =  7.0

     Threshold (ethr) on eigenvalues was too large:
     Diagonalizing with lowered threshold

     Davidson diagonalization with overlap
     ethr =  6.08E-04,  avg # of iterations =  1.5

     total cpu time spent up to now is        1.3 secs

     total energy              =     -85.21728494 Ry
     Harris-Foulkes estimate   =     -85.26086593 Ry
     estimated scf accuracy    <       0.06650002 Ry

     iteration #  2     ecut=    75.00 Ry     beta= 0.70
     Davidson diagonalization with overlap
     ethr =  6.05E-04,  avg # of iterations =  2.8

     negative rho (up, down):  1.353E-02 0.000E+00

     total cpu time spent up to now is        1.4 secs

     total energy              =     -85.29081508 Ry
     Harris-Foulkes estimate   =     -85.24679497 Ry
     estimated scf accuracy    <       0.06469822 Ry

     iteration #  3     ecut=    75.00 Ry     beta= 0.70
     Davidson diagonalization with overlap
     ethr =  5.88E-04,  avg # of iterations =  4.2

     total cpu time spent up to now is        1.6 secs

     total energy              =     -42.84993326 Ry
     Harris-Foulkes estimate   =    -176.52915140 Ry
     estimated scf accuracy    <  205486.10192897 Ry

     iteration #  4     ecut=    75.00 Ry     beta= 0.70
     Davidson diagonalization with overlap
     ethr =  5.88E-04,  avg # of iterations =  5.5

     total cpu time spent up to now is        1.7 secs

     total energy              =     -85.23951327 Ry
     Harris-Foulkes estimate   =     -85.23950234 Ry
     estimated scf accuracy    <       0.02386433 Ry

     iteration #  5     ecut=    75.00 Ry     beta= 0.70
     Davidson diagonalization with overlap
     ethr =  2.17E-04,  avg # of iterations =  3.2

     total cpu time spent up to now is        1.8 secs

     total energy              =     -85.23962653 Ry
     Harris-Foulkes estimate   =     -85.23969398 Ry
     estimated scf accuracy    <       0.02369720 Ry

     iteration #  6     ecut=    75.00 Ry     beta= 0.70
     Davidson diagonalization with overlap
     ethr =  2.15E-04,  avg # of iterations =  2.0

     total cpu time spent up to now is        1.9 secs

     total energy              =     -85.23963594 Ry
     Harris-Foulkes estimate   =     -85.23965556 Ry
     estimated scf accuracy    <       0.02278076 Ry

     iteration #  7     ecut=    75.00 Ry     beta= 0.70
     Davidson diagonalization with overlap
     ethr =  2.07E-04,  avg # of iterations =  1.0

     total cpu time spent up to now is        2.0 secs

     total energy              =     -85.23961176 Ry
     Harris-Foulkes estimate   =     -85.23963846 Ry
     estimated scf accuracy    <       0.02267893 Ry

     iteration #  8     ecut=    75.00 Ry     beta= 0.70
     Davidson diagonalization with overlap
     ethr =  2.06E-04,  avg # of iterations =  1.0

     total cpu time spent up to now is        2.1 secs

     total energy              =     -85.23960119 Ry
     Harris-Foulkes estimate   =     -85.23961242 Ry
     estimated scf accuracy    <       0.02242845 Ry

     iteration #  9     ecut=    75.00 Ry     beta= 0.70
     Davidson diagonalization with overlap
     ethr =  2.04E-04,  avg # of iterations =  1.0

     total cpu time spent up to now is        2.2 secs

     total energy              =     -85.23959236 Ry
     Harris-Foulkes estimate   =     -85.23960145 Ry
     estimated scf accuracy    <       0.02220173 Ry

     iteration # 10     ecut=    75.00 Ry     beta= 0.70
     Davidson diagonalization with overlap
     ethr =  2.02E-04,  avg # of iterations =  1.0

     total cpu time spent up to now is        2.3 secs

     total energy              =     -85.23958262 Ry
     Harris-Foulkes estimate   =     -85.23959250 Ry
     estimated scf accuracy    <       0.02204215 Ry

     iteration # 11     ecut=    75.00 Ry     beta= 0.70
     Davidson diagonalization with overlap
     ethr =  2.00E-04,  avg # of iterations =  1.0

     total cpu time spent up to now is        2.4 secs

     total energy              =     -85.23956739 Ry
     Harris-Foulkes estimate   =     -85.23958271 Ry
     estimated scf accuracy    <       0.02187827 Ry

     iteration # 12     ecut=    75.00 Ry     beta= 0.70
     Davidson diagonalization with overlap
     ethr =  1.99E-04,  avg # of iterations =  1.0

     total cpu time spent up to now is        2.5 secs

     total energy              =     -85.23726816 Ry
     Harris-Foulkes estimate   =     -85.23956751 Ry
     estimated scf accuracy    <       0.02168052 Ry

     iteration # 13     ecut=    75.00 Ry     beta= 0.70
     Davidson diagonalization with overlap
     ethr =  1.97E-04,  avg # of iterations =  3.2

     total cpu time spent up to now is        2.6 secs

     total energy              =     -85.23819005 Ry
     Harris-Foulkes estimate   =     -85.23817365 Ry
     estimated scf accuracy    <       0.00143043 Ry

     iteration # 14     ecut=    75.00 Ry     beta= 0.70
     Davidson diagonalization with overlap
     ethr =  1.30E-05,  avg # of iterations =  1.8

     total cpu time spent up to now is        2.7 secs

     total energy              =     -85.23818839 Ry
     Harris-Foulkes estimate   =     -85.23821566 Ry
     estimated scf accuracy    <       0.00143982 Ry

     iteration # 15     ecut=    75.00 Ry     beta= 0.70
     Davidson diagonalization with overlap
     ethr =  1.30E-05,  avg # of iterations =  1.0

     total cpu time spent up to now is        2.8 secs

     total energy              =     -85.23819748 Ry
     Harris-Foulkes estimate   =     -85.23819160 Ry
     estimated scf accuracy    <       0.00124990 Ry

     iteration # 16     ecut=    75.00 Ry     beta= 0.70
     Davidson diagonalization with overlap
     ethr =  1.14E-05,  avg # of iterations =  1.0

     total cpu time spent up to now is        2.8 secs

     total energy              =     -85.23824273 Ry
     Harris-Foulkes estimate   =     -85.23819833 Ry
     estimated scf accuracy    <       0.00123017 Ry

     iteration # 17     ecut=    75.00 Ry     beta= 0.70
     Davidson diagonalization with overlap
     ethr =  1.12E-05,  avg # of iterations =  1.0

     total cpu time spent up to now is        2.9 secs

     total energy              =     -85.23815289 Ry
     Harris-Foulkes estimate   =     -85.23824797 Ry
     estimated scf accuracy    <       0.00174434 Ry

     iteration # 18     ecut=    75.00 Ry     beta= 0.70
     Davidson diagonalization with overlap
     ethr =  1.12E-05,  avg # of iterations =  1.5

     total cpu time spent up to now is        3.0 secs

     total energy              =     -85.23795501 Ry
     Harris-Foulkes estimate   =     -85.23816637 Ry
     estimated scf accuracy    <       0.00098791 Ry

     iteration # 19     ecut=    75.00 Ry     beta= 0.70
     Davidson diagonalization with overlap
     ethr =  8.98E-06,  avg # of iterations =  2.5

     total cpu time spent up to now is        3.1 secs

     total energy              =     -85.23811635 Ry
     Harris-Foulkes estimate   =     -85.23816019 Ry
     estimated scf accuracy    <       0.00058586 Ry

     iteration # 20     ecut=    75.00 Ry     beta= 0.70
     Davidson diagonalization with overlap
     ethr =  5.33E-06,  avg # of iterations =  1.5

     total cpu time spent up to now is        3.2 secs

     total energy              =     -85.23811667 Ry
     Harris-Foulkes estimate   =     -85.23812838 Ry
     estimated scf accuracy    <       0.00015578 Ry

     iteration # 21     ecut=    75.00 Ry     beta= 0.70
     Davidson diagonalization with overlap
     ethr =  1.42E-06,  avg # of iterations =  1.8

     total cpu time spent up to now is        3.2 secs

     total energy              =     -85.23811928 Ry
     Harris-Foulkes estimate   =     -85.23812220 Ry
     estimated scf accuracy    <       0.00003648 Ry

     iteration # 22     ecut=    75.00 Ry     beta= 0.70
     Davidson diagonalization with overlap
     ethr =  3.32E-07,  avg # of iterations =  2.8

     total cpu time spent up to now is        3.3 secs

     total energy              =     -85.23812284 Ry
     Harris-Foulkes estimate   =     -85.23812309 Ry
     estimated scf accuracy    <       0.00000053 Ry

     iteration # 23     ecut=    75.00 Ry     beta= 0.70
     Davidson diagonalization with overlap
     ethr =  4.85E-09,  avg # of iterations =  4.0

     total cpu time spent up to now is        3.4 secs

     total energy              =     -85.23812374 Ry
     Harris-Foulkes estimate   =     -85.23812366 Ry
     estimated scf accuracy    <       0.00000598 Ry

     iteration # 24     ecut=    75.00 Ry     beta= 0.70
     Davidson diagonalization with overlap
     ethr =  4.85E-09,  avg # of iterations =  1.0

     total cpu time spent up to now is        3.5 secs

     total energy              =     -85.23812172 Ry
     Harris-Foulkes estimate   =     -85.23812375 Ry
     estimated scf accuracy    <       0.00000713 Ry

     iteration # 25     ecut=    75.00 Ry     beta= 0.70
     Davidson diagonalization with overlap
     ethr =  4.85E-09,  avg # of iterations =  3.0

     total cpu time spent up to now is        3.5 secs

     total energy              =     -85.23812266 Ry
     Harris-Foulkes estimate   =     -85.23812384 Ry
     estimated scf accuracy    <       0.00000897 Ry

     iteration # 26     ecut=    75.00 Ry     beta= 0.70
     Davidson diagonalization with overlap
     ethr =  4.85E-09,  avg # of iterations =  2.5

     total cpu time spent up to now is        3.6 secs

     total energy              =     -85.23812326 Ry
     Harris-Foulkes estimate   =     -85.23812327 Ry
     estimated scf accuracy    <       0.00000002 Ry

     iteration # 27     ecut=    75.00 Ry     beta= 0.70
     Davidson diagonalization with overlap
     ethr =  1.77E-10,  avg # of iterations =  3.5

     total cpu time spent up to now is        3.7 secs

     total energy              =     -85.23812326 Ry
     Harris-Foulkes estimate   =     -85.23812329 Ry
     estimated scf accuracy    <       0.00000035 Ry

     iteration # 28     ecut=    75.00 Ry     beta= 0.70
     Davidson diagonalization with overlap
     ethr =  1.77E-10,  avg # of iterations =  2.0

     total cpu time spent up to now is        3.8 secs

     total energy              =     -85.23812325 Ry
     Harris-Foulkes estimate   =     -85.23812327 Ry
     estimated scf accuracy    <       0.00000006 Ry

     iteration # 29     ecut=    75.00 Ry     beta= 0.70
     Davidson diagonalization with overlap
     ethr =  1.77E-10,  avg # of iterations =  2.5

     total cpu time spent up to now is        3.9 secs

     total energy              =     -85.23812326 Ry
     Harris-Foulkes estimate   =     -85.23812327 Ry
     estimated scf accuracy    <       0.00000004 Ry

     iteration # 30     ecut=    75.00 Ry     beta= 0.70
     Davidson diagonalization with overlap
     ethr =  1.77E-10,  avg # of iterations =  2.0

     total cpu time spent up to now is        4.0 secs

     End of self-consistent calculation

          k = 0.0000 0.0000 0.0000 (  1243 PWs)   bands (ev):

     5.8304  11.0736  11.0736  11.0736  12.6000  12.6000  31.1540  34.9935
    34.9935  34.9935

          k =-0.3333 0.3333-0.3333 (  1272 PWs)   bands (ev):

     8.2513  11.2244  11.2244  11.7794  13.2241  13.2241  23.7042  31.3283
    34.9175  34.9175

          k = 0.0000 0.6667 0.0000 (  1266 PWs)   bands (ev):

     8.8648   9.4502  12.7339  13.1243  13.1243  13.4549  27.9293  28.3744
    28.3744  32.3548

          k = 0.6667-0.0000 0.6667 (  1250 PWs)   bands (ev):

     9.5831  10.3886  11.2673  12.4882  13.3783  18.2342  22.2467  22.9068
    30.1700  33.0929

     the Fermi energy is    13.5469 ev

!    total energy              =     -85.23812327 Ry
     Harris-Foulkes estimate   =     -85.23812326 Ry
     estimated scf accuracy    <          3.0E-10 Ry

     The total energy is the sum of the following terms:

     one-electron contribution =      11.01433587 Ry
     hartree contribution      =       7.49324465 Ry
     xc contribution           =     -31.78997358 Ry
     ewald contribution        =     -71.95438534 Ry
     smearing contrib. (-TS)   =      -0.00134487 Ry

     convergence has been achieved in  30 iterations

     Forces acting on atoms (cartesian axes, Ry/au):

     atom    1 type  1   force =     0.00000000    0.00000000    0.00000000

     Total force =     0.000000     Total SCF correction =     0.000000


     Computing stress (Cartesian axis) and pressure

          total   stress  (Ry/bohr**3)                   (kbar)     P=  -44.61
  -0.00030326   0.00000000   0.00000000        -44.61      0.00      0.00
   0.00000000  -0.00030326  -0.00000000          0.00    -44.61     -0.00
   0.00000000  -0.00000000  -0.00030326          0.00     -0.00    -44.61


     Writing output data file Au.save/

     init_run     :      0.22s CPU      0.23s WALL (       1 calls)
     electrons    :      2.78s CPU      2.96s WALL (       1 calls)
     forces       :      0.04s CPU      0.04s WALL (       1 calls)
     stress       :      0.16s CPU      0.16s WALL (       1 calls)

     Called by init_run:
     wfcinit      :      0.01s CPU      0.01s WALL (       1 calls)
     potinit      :      0.01s CPU      0.01s WALL (       1 calls)
     hinit0       :      0.18s CPU      0.18s WALL (       1 calls)

     Called by electrons:
     c_bands      :      1.55s CPU      1.68s WALL (      31 calls)
     sum_band     :      0.64s CPU      0.68s WALL (      31 calls)
     v_of_rho     :      0.23s CPU      0.24s WALL (      31 calls)
     newd         :      0.33s CPU      0.33s WALL (      31 calls)
     mix_rho      :      0.03s CPU      0.04s WALL (      31 calls)

     Called by c_bands:
     init_us_2    :      0.05s CPU      0.05s WALL (     260 calls)
     cegterg      :      1.47s CPU      1.59s WALL (     124 calls)

     Called by sum_band:
     sum_band:bec :      0.00s CPU      0.00s WALL (     124 calls)
     addusdens    :      0.31s CPU      0.32s WALL (      31 calls)

     Called by *egterg:
     h_psi        :      1.12s CPU      1.22s WALL (     411 calls)
     s_psi        :      0.04s CPU      0.04s WALL (     411 calls)
     g_psi        :      0.00s CPU      0.00s WALL (     283 calls)
     cdiaghg      :      0.11s CPU      0.12s WALL (     403 calls)

     Called by h_psi:
     h_psi:pot    :      1.11s CPU      1.21s WALL (     411 calls)
     h_psi:calbec :      0.06s CPU      0.07s WALL (     411 calls)
     vloc_psi     :      1.01s CPU      1.10s WALL (     411 calls)
     add_vuspsi   :      0.04s CPU      0.04s WALL (     411 calls)

     General routines
     calbec       :      0.09s CPU      0.10s WALL (     555 calls)
     fft          :      0.13s CPU      0.14s WALL (     368 calls)
     ffts         :      0.01s CPU      0.01s WALL (      31 calls)
     fftw         :      1.12s CPU      1.24s WALL (    7366 calls)

     Parallel routines
     fft_scatt_xy :      0.12s CPU      0.13s WALL (    7765 calls)
     fft_scatt_yz :      0.47s CPU      0.51s WALL (    7765 calls)

     PWSCF        :     4.01s CPU         4.23s WALL


   This run was terminated on:  12:13:53  26Mar2024            

=------------------------------------------------------------------------------=
   JOB DONE.
=------------------------------------------------------------------------------=
