
     Program PWSCF v.6.3MaX starts on 26Mar2024 at 12: 9:18 

     This program is part of the open-source Quantum ESPRESSO suite
     for quantum simulation of materials; please cite
         "P. Giannozzi et al., J. Phys.:Condens. Matter 21 395502 (2009);
         "P. Giannozzi et al., J. Phys.:Condens. Matter 29 465901 (2017);
          URL http://www.quantum-espresso.org", 
     in publications or presentations arising from this work. More details at
     http://www.quantum-espresso.org/quote

     Parallel version (MPI), running on     5 processors

     MPI processes distributed on     1 nodes
     R & G space division:  proc/nbgrp/npool/nimage =       5
     Waiting for input...
     Reading input from standard input

     Current dimensions of program PWSCF are:
     Max number of different atomic species (ntypx) = 10
     Max number of k-points (npk) =  40000
     Max angular momentum in pseudopotentials (lmaxx) =  3

     Subspace diagonalization in iterative solution of the eigenvalue problem:
     a serial algorithm will be used


     Parallelization info
     --------------------
     sticks:   dense  smooth     PW     G-vecs:    dense   smooth      PW
     Min         116     116     37                 1836     1836     327
     Max         117     117     38                 1838     1838     329
     Sum         583     583    187                 9185     9185    1639



     bravais-lattice index     =            2
     lattice parameter (alat)  =       7.7100  a.u.
     unit-cell volume          =     114.5785 (a.u.)^3
     number of atoms/cell      =            1
     number of atomic types    =            1
     number of electrons       =        11.00
     number of Kohn-Sham states=           10
     kinetic-energy cutoff     =      70.0000  Ry
     charge density cutoff     =     280.0000  Ry
     convergence threshold     =      1.0E-08
     mixing beta               =       0.7000
     number of iterations used =            8  plain     mixing
     Exchange-correlation      = PBESOL ( 1  4 10  8 0 0)

     celldm(1)=   7.710000  celldm(2)=   0.000000  celldm(3)=   0.000000
     celldm(4)=   0.000000  celldm(5)=   0.000000  celldm(6)=   0.000000

     crystal axes: (cart. coord. in units of alat)
               a(1) = (  -0.500000   0.000000   0.500000 )  
               a(2) = (   0.000000   0.500000   0.500000 )  
               a(3) = (  -0.500000   0.500000   0.000000 )  

     reciprocal axes: (cart. coord. in units 2 pi/alat)
               b(1) = ( -1.000000 -1.000000  1.000000 )  
               b(2) = (  1.000000  1.000000  1.000000 )  
               b(3) = ( -1.000000  1.000000 -1.000000 )  


     PseudoPot. # 1 for Au read from file:
     /home/lorenzo/pseudos/Au/Au.pbesol-n-rrkjus_psl.1.0.0.UPF
     MD5 check sum: 09626e9411213730b9a56fcc59c03ca8
     Pseudo is Ultrasoft + core correction, Zval = 11.0
     Generated using "atomic" code by A. Dal Corso v.6.3
     Using radial grid of 1279 points,  6 beta functions with: 
                l(1) =   0
                l(2) =   0
                l(3) =   1
                l(4) =   1
                l(5) =   2
                l(6) =   2
     Q(r) pseudized with 0 coefficients 


     atomic species   valence    mass     pseudopotential
        Au            11.00   196.96600     Au( 1.00)

     48 Sym. Ops., with inversion, found



   Cartesian axes

     site n.     atom                  positions (alat units)
         1           Au  tau(   1) = (   0.0000000   0.0000000   0.0000000  )

     number of k points=    29  gaussian smearing, width (Ry)=  0.0100
                       cart. coord. in units 2pi/alat
        k(    1) = (   0.0000000   0.0000000   0.0000000), wk =   0.0039062
        k(    2) = (  -0.1250000   0.1250000  -0.1250000), wk =   0.0312500
        k(    3) = (  -0.2500000   0.2500000  -0.2500000), wk =   0.0312500
        k(    4) = (  -0.3750000   0.3750000  -0.3750000), wk =   0.0312500
        k(    5) = (   0.5000000  -0.5000000   0.5000000), wk =   0.0156250
        k(    6) = (   0.0000000   0.2500000   0.0000000), wk =   0.0234375
        k(    7) = (  -0.1250000   0.3750000  -0.1250000), wk =   0.0937500
        k(    8) = (  -0.2500000   0.5000000  -0.2500000), wk =   0.0937500
        k(    9) = (   0.6250000  -0.3750000   0.6250000), wk =   0.0937500
        k(   10) = (   0.5000000  -0.2500000   0.5000000), wk =   0.0937500
        k(   11) = (   0.3750000  -0.1250000   0.3750000), wk =   0.0937500
        k(   12) = (   0.2500000   0.0000000   0.2500000), wk =   0.0468750
        k(   13) = (   0.0000000   0.5000000   0.0000000), wk =   0.0234375
        k(   14) = (  -0.1250000   0.6250000  -0.1250000), wk =   0.0937500
        k(   15) = (   0.7500000  -0.2500000   0.7500000), wk =   0.0937500
        k(   16) = (   0.6250000  -0.1250000   0.6250000), wk =   0.0937500
        k(   17) = (   0.5000000   0.0000000   0.5000000), wk =   0.0468750
        k(   18) = (   0.0000000   0.7500000   0.0000000), wk =   0.0234375
        k(   19) = (   0.8750000  -0.1250000   0.8750000), wk =   0.0937500
        k(   20) = (   0.7500000   0.0000000   0.7500000), wk =   0.0468750
        k(   21) = (   0.0000000  -1.0000000   0.0000000), wk =   0.0117188
        k(   22) = (  -0.2500000   0.5000000   0.0000000), wk =   0.0937500
        k(   23) = (   0.6250000  -0.3750000   0.8750000), wk =   0.1875000
        k(   24) = (   0.5000000  -0.2500000   0.7500000), wk =   0.0937500
        k(   25) = (   0.7500000  -0.2500000   1.0000000), wk =   0.0937500
        k(   26) = (   0.6250000  -0.1250000   0.8750000), wk =   0.1875000
        k(   27) = (   0.5000000   0.0000000   0.7500000), wk =   0.0937500
        k(   28) = (  -0.2500000  -1.0000000   0.0000000), wk =   0.0468750
        k(   29) = (  -0.5000000  -1.0000000   0.0000000), wk =   0.0234375

     Dense  grid:     9185 G-vectors     FFT dimensions: (  30,  30,  30)

     Estimated max dynamical RAM per process >       9.52 MB

     Estimated total dynamical RAM >      47.58 MB

     Initial potential from superposition of free atoms

     starting charge   10.99990, renormalised to   11.00000
     Starting wfcs are    9 randomized atomic wfcs +    1 random wfcs

     total cpu time spent up to now is        1.1 secs

     Self-consistent Calculation

     iteration #  1     ecut=    70.00 Ry     beta= 0.70
     Davidson diagonalization with overlap
     ethr =  1.00E-02,  avg # of iterations =  5.4

     Threshold (ethr) on eigenvalues was too large:
     Diagonalizing with lowered threshold

     Davidson diagonalization with overlap
     ethr =  5.54E-04,  avg # of iterations =  1.7

     total cpu time spent up to now is        1.9 secs

     total energy              =     -85.18725512 Ry
     Harris-Foulkes estimate   =     -85.22566239 Ry
     estimated scf accuracy    <       0.06218033 Ry

     iteration #  2     ecut=    70.00 Ry     beta= 0.70
     Davidson diagonalization with overlap
     ethr =  5.65E-04,  avg # of iterations =  4.4

     total cpu time spent up to now is        2.6 secs

     total energy              =     -83.23942403 Ry
     Harris-Foulkes estimate   =     -85.43181872 Ry
     estimated scf accuracy    <     776.77086058 Ry

     iteration #  3     ecut=    70.00 Ry     beta= 0.70
     Davidson diagonalization with overlap
     ethr =  5.65E-04,  avg # of iterations =  6.3

     total cpu time spent up to now is        3.1 secs

     total energy              =     -85.20239488 Ry
     Harris-Foulkes estimate   =     -85.21295679 Ry
     estimated scf accuracy    <       0.03340073 Ry

     iteration #  4     ecut=    70.00 Ry     beta= 0.70
     Davidson diagonalization with overlap
     ethr =  3.04E-04,  avg # of iterations =  1.6

     total cpu time spent up to now is        3.4 secs

     total energy              =     -85.20556695 Ry
     Harris-Foulkes estimate   =     -85.20575667 Ry
     estimated scf accuracy    <       0.01347854 Ry

     iteration #  5     ecut=    70.00 Ry     beta= 0.70
     Davidson diagonalization with overlap
     ethr =  1.23E-04,  avg # of iterations =  1.3

     total cpu time spent up to now is        3.7 secs

     total energy              =     -85.20592349 Ry
     Harris-Foulkes estimate   =     -85.20593131 Ry
     estimated scf accuracy    <       0.01092304 Ry

     iteration #  6     ecut=    70.00 Ry     beta= 0.70
     Davidson diagonalization with overlap
     ethr =  9.93E-05,  avg # of iterations =  1.0

     total cpu time spent up to now is        4.0 secs

     total energy              =     -85.20602908 Ry
     Harris-Foulkes estimate   =     -85.20603962 Ry
     estimated scf accuracy    <       0.00975499 Ry

     iteration #  7     ecut=    70.00 Ry     beta= 0.70
     Davidson diagonalization with overlap
     ethr =  8.87E-05,  avg # of iterations =  1.0

     total cpu time spent up to now is        4.3 secs

     total energy              =     -85.20605862 Ry
     Harris-Foulkes estimate   =     -85.20607849 Ry
     estimated scf accuracy    <       0.00891496 Ry

     iteration #  8     ecut=    70.00 Ry     beta= 0.70
     Davidson diagonalization with overlap
     ethr =  8.10E-05,  avg # of iterations =  1.0

     total cpu time spent up to now is        4.6 secs

     total energy              =     -85.20604516 Ry
     Harris-Foulkes estimate   =     -85.20608149 Ry
     estimated scf accuracy    <       0.00819175 Ry

     iteration #  9     ecut=    70.00 Ry     beta= 0.70
     Davidson diagonalization with overlap
     ethr =  7.45E-05,  avg # of iterations =  1.0

     total cpu time spent up to now is        4.9 secs

     total energy              =     -85.20604999 Ry
     Harris-Foulkes estimate   =     -85.20605712 Ry
     estimated scf accuracy    <       0.00741210 Ry

     iteration # 10     ecut=    70.00 Ry     beta= 0.70
     Davidson diagonalization with overlap
     ethr =  6.74E-05,  avg # of iterations =  1.2

     total cpu time spent up to now is        5.2 secs

     total energy              =     -85.20606591 Ry
     Harris-Foulkes estimate   =     -85.20605827 Ry
     estimated scf accuracy    <       0.00702970 Ry

     iteration # 11     ecut=    70.00 Ry     beta= 0.70
     Davidson diagonalization with overlap
     ethr =  6.39E-05,  avg # of iterations =  1.0

     total cpu time spent up to now is        5.4 secs

     total energy              =     -85.20547093 Ry
     Harris-Foulkes estimate   =     -85.20606902 Ry
     estimated scf accuracy    <       0.00692940 Ry

     iteration # 12     ecut=    70.00 Ry     beta= 0.70
     Davidson diagonalization with overlap
     ethr =  6.30E-05,  avg # of iterations =  2.2

     total cpu time spent up to now is        5.7 secs

     total energy              =     -85.20579396 Ry
     Harris-Foulkes estimate   =     -85.20572711 Ry
     estimated scf accuracy    <       0.00032434 Ry

     iteration # 13     ecut=    70.00 Ry     beta= 0.70
     Davidson diagonalization with overlap
     ethr =  2.95E-06,  avg # of iterations =  2.8

     total cpu time spent up to now is        6.1 secs

     total energy              =     -85.20572453 Ry
     Harris-Foulkes estimate   =     -85.20581553 Ry
     estimated scf accuracy    <       0.00091429 Ry

     iteration # 14     ecut=    70.00 Ry     beta= 0.70
     Davidson diagonalization with overlap
     ethr =  2.95E-06,  avg # of iterations =  1.7

     total cpu time spent up to now is        6.4 secs

     total energy              =     -85.20573624 Ry
     Harris-Foulkes estimate   =     -85.20573725 Ry
     estimated scf accuracy    <       0.00060933 Ry

     iteration # 15     ecut=    70.00 Ry     beta= 0.70
     Davidson diagonalization with overlap
     ethr =  2.95E-06,  avg # of iterations =  1.0

     total cpu time spent up to now is        6.7 secs

     total energy              =     -85.20572367 Ry
     Harris-Foulkes estimate   =     -85.20573742 Ry
     estimated scf accuracy    <       0.00055067 Ry

     iteration # 16     ecut=    70.00 Ry     beta= 0.70
     Davidson diagonalization with overlap
     ethr =  2.95E-06,  avg # of iterations =  1.4

     total cpu time spent up to now is        7.0 secs

     total energy              =     -85.20568460 Ry
     Harris-Foulkes estimate   =     -85.20572629 Ry
     estimated scf accuracy    <       0.00032933 Ry

     iteration # 17     ecut=    70.00 Ry     beta= 0.70
     Davidson diagonalization with overlap
     ethr =  2.95E-06,  avg # of iterations =  3.1

     total cpu time spent up to now is        7.4 secs

     total energy              =     -85.20570580 Ry
     Harris-Foulkes estimate   =     -85.20570406 Ry
     estimated scf accuracy    <       0.00000685 Ry

     iteration # 18     ecut=    70.00 Ry     beta= 0.70
     Davidson diagonalization with overlap
     ethr =  6.23E-08,  avg # of iterations =  3.1

     total cpu time spent up to now is        7.7 secs

     total energy              =     -85.20570927 Ry
     Harris-Foulkes estimate   =     -85.20570995 Ry
     estimated scf accuracy    <       0.00007405 Ry

     iteration # 19     ecut=    70.00 Ry     beta= 0.70
     Davidson diagonalization with overlap
     ethr =  6.23E-08,  avg # of iterations =  1.0

     total cpu time spent up to now is        8.0 secs

     total energy              =     -85.20571085 Ry
     Harris-Foulkes estimate   =     -85.20570932 Ry
     estimated scf accuracy    <       0.00006782 Ry

     iteration # 20     ecut=    70.00 Ry     beta= 0.70
     Davidson diagonalization with overlap
     ethr =  6.23E-08,  avg # of iterations =  1.0

     total cpu time spent up to now is        8.3 secs

     total energy              =     -85.20570586 Ry
     Harris-Foulkes estimate   =     -85.20571097 Ry
     estimated scf accuracy    <       0.00007841 Ry

     iteration # 21     ecut=    70.00 Ry     beta= 0.70
     Davidson diagonalization with overlap
     ethr =  6.23E-08,  avg # of iterations =  2.0

     total cpu time spent up to now is        8.6 secs

     total energy              =     -85.20570544 Ry
     Harris-Foulkes estimate   =     -85.20570692 Ry
     estimated scf accuracy    <       0.00002198 Ry

     iteration # 22     ecut=    70.00 Ry     beta= 0.70
     Davidson diagonalization with overlap
     ethr =  6.23E-08,  avg # of iterations =  1.7

     total cpu time spent up to now is        8.9 secs

     total energy              =     -85.20570537 Ry
     Harris-Foulkes estimate   =     -85.20570587 Ry
     estimated scf accuracy    <       0.00000532 Ry

     iteration # 23     ecut=    70.00 Ry     beta= 0.70
     Davidson diagonalization with overlap
     ethr =  4.84E-08,  avg # of iterations =  1.4

     total cpu time spent up to now is        9.2 secs

     total energy              =     -85.20570558 Ry
     Harris-Foulkes estimate   =     -85.20570563 Ry
     estimated scf accuracy    <       0.00000073 Ry

     iteration # 24     ecut=    70.00 Ry     beta= 0.70
     Davidson diagonalization with overlap
     ethr =  6.66E-09,  avg # of iterations =  3.1

     total cpu time spent up to now is        9.5 secs

     total energy              =     -85.20570574 Ry
     Harris-Foulkes estimate   =     -85.20570578 Ry
     estimated scf accuracy    <       0.00000031 Ry

     iteration # 25     ecut=    70.00 Ry     beta= 0.70
     Davidson diagonalization with overlap
     ethr =  2.82E-09,  avg # of iterations =  1.6

     total cpu time spent up to now is        9.8 secs

     total energy              =     -85.20570576 Ry
     Harris-Foulkes estimate   =     -85.20570576 Ry
     estimated scf accuracy    <       0.00000002 Ry

     iteration # 26     ecut=    70.00 Ry     beta= 0.70
     Davidson diagonalization with overlap
     ethr =  1.50E-10,  avg # of iterations =  3.2

     total cpu time spent up to now is       10.1 secs

     End of self-consistent calculation

          k = 0.0000 0.0000 0.0000 (  1139 PWs)   bands (ev):

     5.8357  11.1326  11.1326  11.1326  12.6780  12.6780  31.1388  35.0027
    35.0027  35.0027

          k =-0.1250 0.1250-0.1250 (  1137 PWs)   bands (ev):

     6.3684  10.9775  11.3003  11.3003  12.6195  12.6195  31.4202  32.2967
    35.4982  35.4982

          k =-0.2500 0.2500-0.2500 (  1131 PWs)   bands (ev):

     7.6506  10.9784  11.4181  11.4181  12.8465  12.8465  27.1076  32.0946
    35.9661  35.9661

          k =-0.3750 0.3750-0.3750 (  1143 PWs)   bands (ev):

     8.3947  11.2129  11.2129  12.5846  13.5309  13.5309  22.1229  30.9499
    34.3159  34.3159

          k = 0.5000-0.5000 0.5000 (  1158 PWs)   bands (ev):

     8.4495  11.0958  11.0958  13.8951  13.8951  14.7573  18.9214  30.4215
    33.3603  33.3603

          k = 0.0000 0.2500 0.0000 (  1151 PWs)   bands (ev):

     6.5496  10.7745  11.4622  11.4622  12.3021  12.8377  31.9414  33.2119
    34.0615  34.0615

          k =-0.1250 0.3750-0.1250 (  1130 PWs)   bands (ev):

     7.6365  10.4962  11.5307  11.7346  12.4376  13.0887  29.0687  32.5270
    33.0462  35.0596

          k =-0.2500 0.5000-0.2500 (  1141 PWs)   bands (ev):

     8.6818  11.0015  11.1169  11.6289  13.6592  13.7852  23.9488  31.4612
    32.1254  33.6698

          k = 0.6250-0.3750 0.6250 (  1133 PWs)   bands (ev):

     8.8303  10.8595  11.4316  12.3027  13.9203  16.1153  19.4898  30.3467
    32.0640  32.0722

          k = 0.5000-0.2500 0.5000 (  1131 PWs)   bands (ev):

     8.8523  10.9403  11.4255  12.1616  13.4359  15.4324  20.8841  29.9128
    31.8598  33.7352

          k = 0.3750-0.1250 0.3750 (  1130 PWs)   bands (ev):

     8.4828  10.7844  11.3156  11.6442  12.5634  13.9302  25.6621  30.3560
    33.2480  36.9402

          k = 0.2500 0.0000 0.2500 (  1151 PWs)   bands (ev):

     7.1942  10.7119  11.4810  11.5761  12.2737  13.0131  30.0923  31.3603
    34.3864  36.4535

          k = 0.0000 0.5000 0.0000 (  1118 PWs)   bands (ev):

     8.2775   9.9942  11.8215  12.3837  12.3837  13.2386  30.7774  30.7774
    31.9444  32.9050

          k =-0.1250 0.6250-0.1250 (  1128 PWs)   bands (ev):

     9.0549   9.8098  11.6011  12.5604  13.7179  13.9327  26.0654  29.4031
    29.5524  33.2818

          k = 0.7500-0.2500 0.7500 (  1128 PWs)   bands (ev):

     9.3266  10.2498  11.4608  12.3350  13.9860  16.8460  21.2560  27.3316
    29.4324  32.9894

          k = 0.6250-0.1250 0.6250 (  1137 PWs)   bands (ev):

     9.6048  10.5275  11.3594  12.1517  13.4784  17.7182  20.6717  25.7255
    31.1782  32.6544

          k = 0.5000 0.0000 0.5000 (  1125 PWs)   bands (ev):

     9.6634  10.5780  10.9172  12.0685  12.6673  15.5549  24.3785  26.1264
    32.8007  34.0968

          k = 0.0000 0.7500 0.0000 (  1126 PWs)   bands (ev):

     8.8842   9.3059  13.5844  13.5844  13.6635  13.8056  25.7983  27.4069
    27.4069  32.4822

          k = 0.8750-0.1250 0.8750 (  1135 PWs)   bands (ev):

     8.9765   9.3309  12.9936  13.4106  14.0826  16.9348  22.4481  25.2461
    26.9983  33.6432

          k = 0.7500 0.0000 0.7500 (  1136 PWs)   bands (ev):

     9.3310   9.9538  11.9771  12.9671  13.7718  19.6973  20.4927  23.1840
    28.5085  33.5672

          k = 0.0000-1.0000 0.0000 (  1138 PWs)   bands (ev):

     8.7016   9.0420  13.8474  14.2260  14.2260  16.7661  21.5492  25.9680
    25.9680  32.8028

          k =-0.2500 0.5000 0.0000 (  1131 PWs)   bands (ev):

     8.7733  10.2030  11.1737  12.3861  12.4738  13.9686  27.2201  29.0006
    32.2278  35.4720

          k = 0.6250-0.3750 0.8750 (  1136 PWs)   bands (ev):

     9.4707  10.6260  10.8222  12.1872  13.3942  15.6971  22.8548  27.8462
    30.2515  34.7929

          k = 0.5000-0.2500 0.7500 (  1128 PWs)   bands (ev):

     9.4813  10.4468  11.5474  11.9816  13.7559  18.4332  18.9130  28.0694
    29.0377  34.0220

          k = 0.7500-0.2500 1.0000 (  1129 PWs)   bands (ev):

     9.3938   9.6623  11.6326  13.2739  13.5752  15.9553  24.2049  26.1586
    27.5186  35.5156

          k = 0.6250-0.1250 0.8750 (  1133 PWs)   bands (ev):

     9.6491  10.0958  11.3089  12.7476  13.9425  18.9629  20.9875  24.5732
    26.9024  35.6988

          k = 0.5000 0.0000 0.7500 (  1138 PWs)   bands (ev):

    10.1002  10.3820  10.6716  12.5365  13.5784  17.8774  22.9369  23.4093
    28.4195  35.7174

          k =-0.2500-1.0000 0.0000 (  1134 PWs)   bands (ev):

     9.1641   9.4473  12.5372  13.2966  14.2270  18.9471  21.0095  24.8519
    25.4358  35.6729

          k =-0.5000-1.0000 0.0000 (  1144 PWs)   bands (ev):

     9.8240  10.6447  10.6447  12.5225  14.2280  20.5578  22.1410  22.1410
    25.1317  39.3322

     the Fermi energy is    15.7904 ev

!    total energy              =     -85.20570576 Ry
     Harris-Foulkes estimate   =     -85.20570576 Ry
     estimated scf accuracy    <          1.3E-09 Ry

     The total energy is the sum of the following terms:

     one-electron contribution =      11.01573056 Ry
     hartree contribution      =       7.54025135 Ry
     xc contribution           =     -31.80690349 Ry
     ewald contribution        =     -71.95438534 Ry
     smearing contrib. (-TS)   =      -0.00039884 Ry

     convergence has been achieved in  26 iterations

     Forces acting on atoms (cartesian axes, Ry/au):

     atom    1 type  1   force =     0.00000000    0.00000000    0.00000000

     Total force =     0.000000     Total SCF correction =     0.000000


     Computing stress (Cartesian axis) and pressure

          total   stress  (Ry/bohr**3)                   (kbar)     P=   23.84
   0.00016208   0.00000000   0.00000000         23.84      0.00      0.00
   0.00000000   0.00016208  -0.00000000          0.00     23.84     -0.00
   0.00000000  -0.00000000   0.00016208          0.00     -0.00     23.84


     Writing output data file Au.save/

     init_run     :      0.32s CPU      0.33s WALL (       1 calls)
     electrons    :      8.66s CPU      9.01s WALL (       1 calls)
     forces       :      0.05s CPU      0.05s WALL (       1 calls)
     stress       :      0.15s CPU      0.16s WALL (       1 calls)

     Called by init_run:
     wfcinit      :      0.12s CPU      0.13s WALL (       1 calls)
     potinit      :      0.01s CPU      0.01s WALL (       1 calls)
     hinit0       :      0.17s CPU      0.18s WALL (       1 calls)

     Called by electrons:
     c_bands      :      6.75s CPU      7.03s WALL (      27 calls)
     sum_band     :      1.51s CPU      1.56s WALL (      27 calls)
     v_of_rho     :      0.14s CPU      0.15s WALL (      27 calls)
     newd         :      0.23s CPU      0.24s WALL (      27 calls)
     mix_rho      :      0.02s CPU      0.02s WALL (      27 calls)

     Called by c_bands:
     init_us_2    :      0.22s CPU      0.23s WALL (    1653 calls)
     cegterg      :      6.43s CPU      6.70s WALL (     783 calls)

     Called by sum_band:
     sum_band:bec :      0.01s CPU      0.01s WALL (     783 calls)
     addusdens    :      0.23s CPU      0.24s WALL (      27 calls)

     Called by *egterg:
     h_psi        :      5.06s CPU      5.27s WALL (    2473 calls)
     s_psi        :      0.16s CPU      0.17s WALL (    2473 calls)
     g_psi        :      0.02s CPU      0.02s WALL (    1661 calls)
     cdiaghg      :      0.50s CPU      0.52s WALL (    2415 calls)

     Called by h_psi:
     h_psi:pot    :      5.04s CPU      5.25s WALL (    2473 calls)
     h_psi:calbec :      0.23s CPU      0.24s WALL (    2473 calls)
     vloc_psi     :      4.62s CPU      4.81s WALL (    2473 calls)
     add_vuspsi   :      0.17s CPU      0.18s WALL (    2473 calls)

     General routines
     calbec       :      0.33s CPU      0.34s WALL (    3401 calls)
     fft          :      0.08s CPU      0.08s WALL (     324 calls)
     ffts         :      0.01s CPU      0.01s WALL (      27 calls)
     fftw         :      5.27s CPU      5.49s WALL (   45250 calls)

     Parallel routines
     fft_scatt_xy :      0.45s CPU      0.47s WALL (   45601 calls)
     fft_scatt_yz :      1.30s CPU      1.35s WALL (   45601 calls)

     PWSCF        :    10.00s CPU        10.42s WALL


   This run was terminated on:  12: 9:28  26Mar2024            

=------------------------------------------------------------------------------=
   JOB DONE.
=------------------------------------------------------------------------------=
