
     Program PWSCF v.6.3MaX starts on 26Mar2024 at 11:49:58 

     This program is part of the open-source Quantum ESPRESSO suite
     for quantum simulation of materials; please cite
         "P. Giannozzi et al., J. Phys.:Condens. Matter 21 395502 (2009);
         "P. Giannozzi et al., J. Phys.:Condens. Matter 29 465901 (2017);
          URL http://www.quantum-espresso.org", 
     in publications or presentations arising from this work. More details at
     http://www.quantum-espresso.org/quote

     Parallel version (MPI), running on     5 processors

     MPI processes distributed on     1 nodes
     R & G space division:  proc/nbgrp/npool/nimage =       5
     Waiting for input...
     Reading input from standard input

     Current dimensions of program PWSCF are:
     Max number of different atomic species (ntypx) = 10
     Max number of k-points (npk) =  40000
     Max angular momentum in pseudopotentials (lmaxx) =  3
               file Au.pbe-n-kjpaw_psl.1.0.0.UPF: wavefunction(s)  6S 5D renormalized

     Subspace diagonalization in iterative solution of the eigenvalue problem:
     a serial algorithm will be used


     Parallelization info
     --------------------
     sticks:   dense  smooth     PW     G-vecs:    dense   smooth      PW
     Min          89      89     30                 1260     1260     241
     Max          92      92     31                 1261     1261     244
     Sum         451     451    151                 6303     6303    1211



     bravais-lattice index     =            2
     lattice parameter (alat)  =       7.7100  a.u.
     unit-cell volume          =     114.5785 (a.u.)^3
     number of atoms/cell      =            1
     number of atomic types    =            1
     number of electrons       =        11.00
     number of Kohn-Sham states=           10
     kinetic-energy cutoff     =      55.0000  Ry
     charge density cutoff     =     220.0000  Ry
     convergence threshold     =      1.0E-08
     mixing beta               =       0.7000
     number of iterations used =            8  plain     mixing
     Exchange-correlation      = SLA PW PBX PBC ( 1  4  3  4 0 0)

     celldm(1)=   7.710000  celldm(2)=   0.000000  celldm(3)=   0.000000
     celldm(4)=   0.000000  celldm(5)=   0.000000  celldm(6)=   0.000000

     crystal axes: (cart. coord. in units of alat)
               a(1) = (  -0.500000   0.000000   0.500000 )  
               a(2) = (   0.000000   0.500000   0.500000 )  
               a(3) = (  -0.500000   0.500000   0.000000 )  

     reciprocal axes: (cart. coord. in units 2 pi/alat)
               b(1) = ( -1.000000 -1.000000  1.000000 )  
               b(2) = (  1.000000  1.000000  1.000000 )  
               b(3) = ( -1.000000  1.000000 -1.000000 )  


     PseudoPot. # 1 for Au read from file:
     /home/lorenzo/pseudos/Au/Au.pbe-n-kjpaw_psl.1.0.0.UPF
     MD5 check sum: 4db85c736373c707a97ce4c36c2a9d23
     Pseudo is Projector augmented-wave + core cor, Zval = 11.0
     Generated using "atomic" code by A. Dal Corso v.6.3
     Shape of augmentation charge: PSQ
     Using radial grid of 1279 points,  6 beta functions with: 
                l(1) =   0
                l(2) =   0
                l(3) =   1
                l(4) =   1
                l(5) =   2
                l(6) =   2
     Q(r) pseudized with 0 coefficients 


     atomic species   valence    mass     pseudopotential
        Au            11.00   196.96600     Au( 1.00)

     48 Sym. Ops., with inversion, found



   Cartesian axes

     site n.     atom                  positions (alat units)
         1           Au  tau(   1) = (   0.0000000   0.0000000   0.0000000  )

     number of k points=    35  gaussian smearing, width (Ry)=  0.0100
                       cart. coord. in units 2pi/alat
        k(    1) = (   0.0000000   0.0000000   0.0000000), wk =   0.0027435
        k(    2) = (  -0.1111111   0.1111111  -0.1111111), wk =   0.0219479
        k(    3) = (  -0.2222222   0.2222222  -0.2222222), wk =   0.0219479
        k(    4) = (  -0.3333333   0.3333333  -0.3333333), wk =   0.0219479
        k(    5) = (  -0.4444444   0.4444444  -0.4444444), wk =   0.0219479
        k(    6) = (   0.0000000   0.2222222   0.0000000), wk =   0.0164609
        k(    7) = (  -0.1111111   0.3333333  -0.1111111), wk =   0.0658436
        k(    8) = (  -0.2222222   0.4444444  -0.2222222), wk =   0.0658436
        k(    9) = (  -0.3333333   0.5555556  -0.3333333), wk =   0.0658436
        k(   10) = (   0.5555556  -0.3333333   0.5555556), wk =   0.0658436
        k(   11) = (   0.4444444  -0.2222222   0.4444444), wk =   0.0658436
        k(   12) = (   0.3333333  -0.1111111   0.3333333), wk =   0.0658436
        k(   13) = (   0.2222222  -0.0000000   0.2222222), wk =   0.0329218
        k(   14) = (   0.0000000   0.4444444   0.0000000), wk =   0.0164609
        k(   15) = (  -0.1111111   0.5555556  -0.1111111), wk =   0.0658436
        k(   16) = (  -0.2222222   0.6666667  -0.2222222), wk =   0.0658436
        k(   17) = (   0.6666667  -0.2222222   0.6666667), wk =   0.0658436
        k(   18) = (   0.5555556  -0.1111111   0.5555556), wk =   0.0658436
        k(   19) = (   0.4444444   0.0000000   0.4444444), wk =   0.0329218
        k(   20) = (   0.0000000   0.6666667   0.0000000), wk =   0.0164609
        k(   21) = (  -0.1111111   0.7777778  -0.1111111), wk =   0.0658436
        k(   22) = (   0.7777778  -0.1111111   0.7777778), wk =   0.0658436
        k(   23) = (   0.6666667  -0.0000000   0.6666667), wk =   0.0329218
        k(   24) = (   0.0000000   0.8888889   0.0000000), wk =   0.0164609
        k(   25) = (   0.8888889   0.0000000   0.8888889), wk =   0.0329218
        k(   26) = (  -0.2222222   0.4444444   0.0000000), wk =   0.0658436
        k(   27) = (  -0.3333333   0.5555556  -0.1111111), wk =   0.1316872
        k(   28) = (   0.5555556  -0.3333333   0.7777778), wk =   0.1316872
        k(   29) = (  -0.2222222   0.6666667   0.0000000), wk =   0.0658436
        k(   30) = (   0.6666667  -0.2222222   0.8888889), wk =   0.1316872
        k(   31) = (   0.5555556  -0.1111111   0.7777778), wk =   0.1316872
        k(   32) = (   0.4444444   0.0000000   0.6666667), wk =   0.0658436
        k(   33) = (   0.7777778  -0.1111111   1.0000000), wk =   0.0658436
        k(   34) = (   0.6666667  -0.0000000   0.8888889), wk =   0.0658436
        k(   35) = (   0.5555556  -0.1111111   1.0000000), wk =   0.0658436

     Dense  grid:     6303 G-vectors     FFT dimensions: (  25,  25,  25)

     Estimated max dynamical RAM per process >       6.97 MB

     Estimated total dynamical RAM >      34.87 MB

     Initial potential from superposition of free atoms

     starting charge   10.99989, renormalised to   11.00000
     Starting wfcs are    9 randomized atomic wfcs +    1 random wfcs
     Checking if some PAW data can be deallocated... 

     total cpu time spent up to now is        1.9 secs

     Self-consistent Calculation

     iteration #  1     ecut=    55.00 Ry     beta= 0.70
     Davidson diagonalization with overlap
     ethr =  1.00E-02,  avg # of iterations =  5.5

     Threshold (ethr) on eigenvalues was too large:
     Diagonalizing with lowered threshold

     Davidson diagonalization with overlap
     ethr =  4.68E-04,  avg # of iterations =  1.6

     total cpu time spent up to now is        3.0 secs

     total energy              =    -775.11948719 Ry
     Harris-Foulkes estimate   =    -775.15453069 Ry
     estimated scf accuracy    <       0.05178745 Ry

     iteration #  2     ecut=    55.00 Ry     beta= 0.70
     Davidson diagonalization with overlap
     ethr =  4.71E-04,  avg # of iterations =  2.7

     total cpu time spent up to now is        3.4 secs

     total energy              =    -775.13524071 Ry
     Harris-Foulkes estimate   =    -775.14412038 Ry
     estimated scf accuracy    <       0.01457491 Ry

     iteration #  3     ecut=    55.00 Ry     beta= 0.70
     Davidson diagonalization with overlap
     ethr =  1.32E-04,  avg # of iterations =  1.9

     total cpu time spent up to now is        3.8 secs

     total energy              =    -775.13847948 Ry
     Harris-Foulkes estimate   =    -775.13850308 Ry
     estimated scf accuracy    <       0.00024344 Ry

     iteration #  4     ecut=    55.00 Ry     beta= 0.70
     Davidson diagonalization with overlap
     ethr =  2.21E-06,  avg # of iterations =  3.7

     total cpu time spent up to now is        4.5 secs

     total energy              =    -775.13873213 Ry
     Harris-Foulkes estimate   =    -775.13884243 Ry
     estimated scf accuracy    <       0.00024794 Ry

     iteration #  5     ecut=    55.00 Ry     beta= 0.70
     Davidson diagonalization with overlap
     ethr =  2.21E-06,  avg # of iterations =  1.0

     total cpu time spent up to now is        4.8 secs

     total energy              =    -775.13873415 Ry
     Harris-Foulkes estimate   =    -775.13875248 Ry
     estimated scf accuracy    <       0.00002974 Ry

     iteration #  6     ecut=    55.00 Ry     beta= 0.70
     Davidson diagonalization with overlap
     ethr =  2.70E-07,  avg # of iterations =  2.2

     total cpu time spent up to now is        5.3 secs

     total energy              =    -775.13874761 Ry
     Harris-Foulkes estimate   =    -775.13874793 Ry
     estimated scf accuracy    <       0.00000135 Ry

     iteration #  7     ecut=    55.00 Ry     beta= 0.70
     Davidson diagonalization with overlap
     ethr =  1.23E-08,  avg # of iterations =  2.1

     total cpu time spent up to now is        5.7 secs

     total energy              =    -775.13874754 Ry
     Harris-Foulkes estimate   =    -775.13874783 Ry
     estimated scf accuracy    <       0.00000054 Ry

     iteration #  8     ecut=    55.00 Ry     beta= 0.70
     Davidson diagonalization with overlap
     ethr =  4.87E-09,  avg # of iterations =  1.9

     total cpu time spent up to now is        6.1 secs

     End of self-consistent calculation

          k = 0.0000 0.0000 0.0000 (   749 PWs)   bands (ev):

     6.0736  11.2694  11.2694  11.2694  12.7929  12.7929  31.3899  35.2418
    35.2418  35.2418

          k =-0.1111 0.1111-0.1111 (   803 PWs)   bands (ev):

     6.4975  11.1436  11.4063  11.4063  12.7413  12.7413  31.6956  32.8413
    35.6404  35.6404

          k =-0.2222 0.2222-0.2222 (   800 PWs)   bands (ev):

     7.5847  11.0510  11.5638  11.5638  12.8549  12.8549  28.3840  32.4475
    36.2220  36.2220

          k =-0.3333 0.3333-0.3333 (   787 PWs)   bands (ev):

     8.4764  11.4214  11.4214  12.0003  13.4126  13.4126  23.9077  31.5630
    35.1342  35.1342

          k =-0.4444 0.4444-0.4444 (   793 PWs)   bands (ev):

     8.6282  11.2544  11.2544  13.9250  13.9250  14.3162  19.9447  30.7800
    33.7919  33.7919

          k = 0.0000 0.2222 0.0000 (   797 PWs)   bands (ev):

     6.6412  10.9845  11.5291  11.5291  12.4924  12.9193  32.0025  33.6956
    34.4875  34.4875

          k =-0.1111 0.3333-0.1111 (   802 PWs)   bands (ev):

     7.5364  10.7332  11.6944  11.7809  12.4504  13.0939  30.0894  32.6803
    33.7107  35.5964

          k =-0.2222 0.4444-0.2222 (   790 PWs)   bands (ev):

     8.6156  10.9626  11.3844  11.7542  13.3491  13.5592  25.5909  32.0968
    32.8998  34.7970

          k =-0.3333 0.5556-0.3333 (   790 PWs)   bands (ev):

     8.9260  11.1010  11.5635  12.1710  13.9879  15.0533  21.2463  31.0891
    32.4158  33.0259

          k = 0.5556-0.3333 0.5556 (   793 PWs)   bands (ev):

     8.9410  11.0443  11.4676  12.8129  13.8991  16.4456  19.1947  30.5337
    32.0480  33.0734

          k = 0.4444-0.2222 0.4444 (   793 PWs)   bands (ev):

     8.9234  11.2025  11.5612  11.9480  13.2807  14.7413  22.6833  30.5798
    32.4631  35.1537

          k = 0.3333-0.1111 0.3333 (   790 PWs)   bands (ev):

     8.3259  10.8616  11.5343  11.7729  12.5516  13.6630  27.0925  31.1209
    34.0645  36.6772

          k = 0.2222-0.0000 0.2222 (   799 PWs)   bands (ev):

     7.1645  10.9201  11.5972  11.6203  12.4570  13.0080  30.9836  31.7644
    34.5081  37.4477

          k = 0.0000 0.4444 0.0000 (   801 PWs)   bands (ev):

     8.1163  10.3223  11.9696  12.2678  12.2678  13.2501  31.7799  31.7799
    32.5365  33.4385

          k =-0.1111 0.5556-0.1111 (   801 PWs)   bands (ev):

     8.9929  10.0992  11.6251  12.4881  13.3938  13.6306  27.5602  30.4664
    31.3559  33.4602

          k =-0.2222 0.6667-0.2222 (   792 PWs)   bands (ev):

     9.4062  10.4592  11.4263  12.3281  14.0524  15.5239  23.0128  29.2612
    30.0415  33.1174

          k = 0.6667-0.2222 0.6667 (   795 PWs)   bands (ev):

     9.5435  10.6630  11.7105  12.1420  13.9343  18.4871  19.2635  27.5703
    30.8978  32.7027

          k = 0.5556-0.1111 0.5556 (   785 PWs)   bands (ev):

     9.7435  10.8024  11.4235  12.0858  13.2775  16.5880  22.2026  26.7027
    32.7314  33.0287

          k = 0.4444 0.0000 0.4444 (   796 PWs)   bands (ev):

     9.4654  10.6506  11.2330  12.1488  12.5227  14.9366  25.6626  27.5617
    33.3609  35.8813

          k = 0.0000 0.6667 0.0000 (   797 PWs)   bands (ev):

     9.0915   9.6504  12.9587  13.3108  13.3108  13.6464  28.2081  28.5991
    28.5991  32.6780

          k =-0.1111 0.7778-0.1111 (   784 PWs)   bands (ev):

     9.2122   9.5739  12.7828  13.3125  14.0857  15.6031  24.4321  26.8091
    27.8037  33.6918

          k = 0.7778-0.1111 0.7778 (   782 PWs)   bands (ev):

     9.4215   9.9940  12.2276  13.0546  14.0434  18.7655  21.0565  24.7374
    28.4803  33.7688

          k = 0.6667-0.0000 0.6667 (   792 PWs)   bands (ev):

     9.7899  10.5998  11.4694  12.6830  13.5616  18.4557  22.4461  23.1743
    30.4576  33.3208

          k = 0.0000 0.8889 0.0000 (   785 PWs)   bands (ev):

     8.9247   9.2487  13.9179  14.1884  14.1884  16.0661  22.9630  26.5032
    26.5032  33.1213

          k = 0.8889 0.0000 0.8889 (   778 PWs)   bands (ev):

     9.0485   9.3702  13.5424  13.7380  14.2361  18.0834  21.4656  25.1282
    26.7635  33.9730

          k =-0.2222 0.4444 0.0000 (   802 PWs)   bands (ev):

     8.5274  10.4562  11.4699  12.2720  12.4812  13.6942  28.4668  30.0637
    33.5514  35.1225

          k =-0.3333 0.5556-0.1111 (   789 PWs)   bands (ev):

     9.4005  10.7346  11.0470  12.2003  13.2340  14.9288  24.4737  28.9166
    31.6391  35.1912

          k = 0.5556-0.3333 0.7778 (   794 PWs)   bands (ev):

     9.4768  10.7432  11.6941  12.0235  13.8192  17.0192  20.4240  28.9254
    30.1518  34.0031

          k =-0.2222 0.6667 0.0000 (   793 PWs)   bands (ev):

     9.5110   9.9038  11.5809  13.2628  13.3014  15.0116  25.8083  27.4545
    29.2509  35.4431

          k = 0.6667-0.2222 0.8889 (   785 PWs)   bands (ev):

     9.7354  10.2279  11.3895  12.8948  13.9213  17.3608  22.3051  26.3594
    27.8763  35.3325

          k = 0.5556-0.1111 0.7778 (   789 PWs)   bands (ev):

    10.0079  10.4510  11.2596  12.5656  13.8407  18.9722  20.7010  25.1611
    28.5156  35.2608

          k = 0.4444 0.0000 0.6667 (   783 PWs)   bands (ev):

    10.3249  10.5789  10.6042  12.6321  13.3197  16.7148  23.8077  25.0471
    30.1029  35.8066

          k = 0.7778-0.1111 1.0000 (   783 PWs)   bands (ev):

     9.3000   9.5622  12.6682  13.5656  14.1867  17.7346  22.4930  25.5627
    26.1632  35.4467

          k = 0.6667-0.0000 0.8889 (   774 PWs)   bands (ev):

     9.6121  10.0303  11.9441  13.0341  14.1791  20.5026  20.5452  23.6651
    26.7887  35.8064

          k = 0.5556-0.1111 1.0000 (   775 PWs)   bands (ev):

    10.0126  10.4862  11.0270  12.7549  14.1817  19.5631  22.4568  23.2723
    26.1548  38.4362

     the Fermi energy is    16.0012 ev

!    total energy              =    -775.13874763 Ry
     Harris-Foulkes estimate   =    -775.13874763 Ry
     estimated scf accuracy    <          5.4E-09 Ry

     total all-electron energy =    -38023.984839 Ry

     The total energy is the sum of the following terms:

     one-electron contribution =      13.82817824 Ry
     hartree contribution      =       7.63312665 Ry
     xc contribution           =     -32.12144094 Ry
     ewald contribution        =     -71.95438542 Ry
     one-center paw contrib.   =    -692.52418913 Ry
     smearing contrib. (-TS)   =      -0.00003703 Ry

     convergence has been achieved in   8 iterations

     Forces acting on atoms (cartesian axes, Ry/au):

     atom    1 type  1   force =     0.00000000    0.00000000    0.00000000

     Total force =     0.000000     Total SCF correction =     0.000000


     Computing stress (Cartesian axis) and pressure

          total   stress  (Ry/bohr**3)                   (kbar)     P=  100.77
   0.00068502  -0.00000000  -0.00000000        100.77     -0.00     -0.00
  -0.00000000   0.00068502   0.00000000         -0.00    100.77      0.00
  -0.00000000   0.00000000   0.00068502         -0.00      0.00    100.77


     Writing output data file Au.save/

     init_run     :      0.53s CPU      0.55s WALL (       1 calls)
     electrons    :      3.92s CPU      4.20s WALL (       1 calls)
     forces       :      0.04s CPU      0.04s WALL (       1 calls)
     stress       :      0.14s CPU      0.14s WALL (       1 calls)

     Called by init_run:
     wfcinit      :      0.16s CPU      0.17s WALL (       1 calls)
     potinit      :      0.14s CPU      0.16s WALL (       1 calls)
     hinit0       :      0.19s CPU      0.19s WALL (       1 calls)

     Called by electrons:
     c_bands      :      2.57s CPU      2.70s WALL (       9 calls)
     sum_band     :      0.45s CPU      0.47s WALL (       9 calls)
     v_of_rho     :      0.03s CPU      0.03s WALL (       9 calls)
     newd         :      0.07s CPU      0.08s WALL (       9 calls)
     PAW_pot      :      0.94s CPU      1.07s WALL (       9 calls)
     mix_rho      :      0.00s CPU      0.00s WALL (       9 calls)

     Called by c_bands:
     init_us_2    :      0.08s CPU      0.08s WALL (     735 calls)
     cegterg      :      2.46s CPU      2.58s WALL (     315 calls)

     Called by sum_band:
     sum_band:bec :      0.00s CPU      0.00s WALL (     315 calls)
     addusdens    :      0.06s CPU      0.06s WALL (       9 calls)

     Called by *egterg:
     h_psi        :      1.88s CPU      1.98s WALL (    1145 calls)
     s_psi        :      0.06s CPU      0.06s WALL (    1145 calls)
     g_psi        :      0.01s CPU      0.01s WALL (     795 calls)
     cdiaghg      :      0.29s CPU      0.30s WALL (    1075 calls)

     Called by h_psi:
     h_psi:pot    :      1.87s CPU      1.97s WALL (    1145 calls)
     h_psi:calbec :      0.11s CPU      0.11s WALL (    1145 calls)
     vloc_psi     :      1.70s CPU      1.79s WALL (    1145 calls)
     add_vuspsi   :      0.06s CPU      0.06s WALL (    1145 calls)

     General routines
     calbec       :      0.15s CPU      0.16s WALL (    1635 calls)
     fft          :      0.02s CPU      0.03s WALL (     126 calls)
     ffts         :      0.00s CPU      0.00s WALL (       9 calls)
     fftw         :      1.90s CPU      2.00s WALL (   19974 calls)

     Parallel routines
     fft_scatt_xy :      0.13s CPU      0.14s WALL (   20109 calls)
     fft_scatt_yz :      0.69s CPU      0.71s WALL (   20109 calls)

     PWSCF        :     5.98s CPU         6.37s WALL


   This run was terminated on:  11:50: 4  26Mar2024            

=------------------------------------------------------------------------------=
   JOB DONE.
=------------------------------------------------------------------------------=
