
     Program PWSCF v.6.3MaX starts on 26Mar2024 at 11:29: 4 

     This program is part of the open-source Quantum ESPRESSO suite
     for quantum simulation of materials; please cite
         "P. Giannozzi et al., J. Phys.:Condens. Matter 21 395502 (2009);
         "P. Giannozzi et al., J. Phys.:Condens. Matter 29 465901 (2017);
          URL http://www.quantum-espresso.org", 
     in publications or presentations arising from this work. More details at
     http://www.quantum-espresso.org/quote

     Parallel version (MPI), running on     5 processors

     MPI processes distributed on     1 nodes
     R & G space division:  proc/nbgrp/npool/nimage =       5
     Waiting for input...
     Reading input from standard input

     Current dimensions of program PWSCF are:
     Max number of different atomic species (ntypx) = 10
     Max number of k-points (npk) =  40000
     Max angular momentum in pseudopotentials (lmaxx) =  3

     Subspace diagonalization in iterative solution of the eigenvalue problem:
     a serial algorithm will be used


     Parallelization info
     --------------------
     sticks:   dense  smooth     PW     G-vecs:    dense   smooth      PW
     Min          56      56     17                  627      627     112
     Max          57      57     19                  630      630     113
     Sum         283     283     91                 3143     3143     561



     bravais-lattice index     =            2
     lattice parameter (alat)  =       7.7100  a.u.
     unit-cell volume          =     114.5785 (a.u.)^3
     number of atoms/cell      =            1
     number of atomic types    =            1
     number of electrons       =        11.00
     number of Kohn-Sham states=           10
     kinetic-energy cutoff     =      35.0000  Ry
     charge density cutoff     =     140.0000  Ry
     convergence threshold     =      1.0E-08
     mixing beta               =       0.7000
     number of iterations used =            8  plain     mixing
     Exchange-correlation      = PBE ( 1  4  3  4 0 0)

     celldm(1)=   7.710000  celldm(2)=   0.000000  celldm(3)=   0.000000
     celldm(4)=   0.000000  celldm(5)=   0.000000  celldm(6)=   0.000000

     crystal axes: (cart. coord. in units of alat)
               a(1) = (  -0.500000   0.000000   0.500000 )  
               a(2) = (   0.000000   0.500000   0.500000 )  
               a(3) = (  -0.500000   0.500000   0.000000 )  

     reciprocal axes: (cart. coord. in units 2 pi/alat)
               b(1) = ( -1.000000 -1.000000  1.000000 )  
               b(2) = (  1.000000  1.000000  1.000000 )  
               b(3) = ( -1.000000  1.000000 -1.000000 )  


     PseudoPot. # 1 for Au read from file:
     /home/lorenzo/pseudos/Au/Au.pbe-n-rrkjus_psl.1.0.0.UPF
     MD5 check sum: d7e77ba19504afed2c9b41c931dde4f0
     Pseudo is Ultrasoft + core correction, Zval = 11.0
     Generated using "atomic" code by A. Dal Corso v.6.3
     Using radial grid of 1279 points,  6 beta functions with: 
                l(1) =   0
                l(2) =   0
                l(3) =   1
                l(4) =   1
                l(5) =   2
                l(6) =   2
     Q(r) pseudized with 0 coefficients 


     atomic species   valence    mass     pseudopotential
        Au            11.00   196.96600     Au( 1.00)

     48 Sym. Ops., with inversion, found



   Cartesian axes

     site n.     atom                  positions (alat units)
         1           Au  tau(   1) = (   0.0000000   0.0000000   0.0000000  )

     number of k points=     4  gaussian smearing, width (Ry)=  0.0100
                       cart. coord. in units 2pi/alat
        k(    1) = (   0.0000000   0.0000000   0.0000000), wk =   0.0740741
        k(    2) = (  -0.3333333   0.3333333  -0.3333333), wk =   0.5925926
        k(    3) = (   0.0000000   0.6666667   0.0000000), wk =   0.4444444
        k(    4) = (   0.6666667  -0.0000000   0.6666667), wk =   0.8888889

     Dense  grid:     3143 G-vectors     FFT dimensions: (  24,  24,  24)

     Estimated max dynamical RAM per process >       3.63 MB

     Estimated total dynamical RAM >      18.17 MB

     Initial potential from superposition of free atoms

     starting charge   10.99989, renormalised to   11.00000
     Starting wfcs are    9 randomized atomic wfcs +    1 random wfcs

     total cpu time spent up to now is        1.1 secs

     Self-consistent Calculation

     iteration #  1     ecut=    35.00 Ry     beta= 0.70
     Davidson diagonalization with overlap
     ethr =  1.00E-02,  avg # of iterations =  6.5

     Threshold (ethr) on eigenvalues was too large:
     Diagonalizing with lowered threshold

     Davidson diagonalization with overlap
     ethr =  5.27E-04,  avg # of iterations =  1.5

     total cpu time spent up to now is        1.2 secs

     total energy              =     -85.39812142 Ry
     Harris-Foulkes estimate   =     -85.43418225 Ry
     estimated scf accuracy    <       0.05715812 Ry

     iteration #  2     ecut=    35.00 Ry     beta= 0.70
     Davidson diagonalization with overlap
     ethr =  5.20E-04,  avg # of iterations =  2.5

     total cpu time spent up to now is        1.2 secs

     total energy              =     -85.41310006 Ry
     Harris-Foulkes estimate   =     -85.41932258 Ry
     estimated scf accuracy    <       0.00967511 Ry

     iteration #  3     ecut=    35.00 Ry     beta= 0.70
     Davidson diagonalization with overlap
     ethr =  8.80E-05,  avg # of iterations =  2.0

     total cpu time spent up to now is        1.3 secs

     total energy              =     -85.41550096 Ry
     Harris-Foulkes estimate   =     -85.41555342 Ry
     estimated scf accuracy    <       0.00018059 Ry

     iteration #  4     ecut=    35.00 Ry     beta= 0.70
     Davidson diagonalization with overlap
     ethr =  1.64E-06,  avg # of iterations =  3.2

     total cpu time spent up to now is        1.3 secs

     total energy              =     -85.41558988 Ry
     Harris-Foulkes estimate   =     -85.41562403 Ry
     estimated scf accuracy    <       0.00006074 Ry

     iteration #  5     ecut=    35.00 Ry     beta= 0.70
     Davidson diagonalization with overlap
     ethr =  5.52E-07,  avg # of iterations =  1.2

     total cpu time spent up to now is        1.3 secs

     total energy              =     -85.41559613 Ry
     Harris-Foulkes estimate   =     -85.41559747 Ry
     estimated scf accuracy    <       0.00000227 Ry

     iteration #  6     ecut=    35.00 Ry     beta= 0.70
     Davidson diagonalization with overlap
     ethr =  2.06E-08,  avg # of iterations =  4.0

     total cpu time spent up to now is        1.4 secs

     total energy              =     -85.41559886 Ry
     Harris-Foulkes estimate   =     -85.41559913 Ry
     estimated scf accuracy    <       0.00000059 Ry

     iteration #  7     ecut=    35.00 Ry     beta= 0.70
     Davidson diagonalization with overlap
     ethr =  5.40E-09,  avg # of iterations =  1.0

     total cpu time spent up to now is        1.4 secs

     total energy              =     -85.41559886 Ry
     Harris-Foulkes estimate   =     -85.41559891 Ry
     estimated scf accuracy    <       0.00000007 Ry

     iteration #  8     ecut=    35.00 Ry     beta= 0.70
     Davidson diagonalization with overlap
     ethr =  5.93E-10,  avg # of iterations =  3.2

     total cpu time spent up to now is        1.5 secs

     total energy              =     -85.41559890 Ry
     Harris-Foulkes estimate   =     -85.41559892 Ry
     estimated scf accuracy    <       0.00000003 Ry

     iteration #  9     ecut=    35.00 Ry     beta= 0.70
     Davidson diagonalization with overlap
     ethr =  2.66E-10,  avg # of iterations =  1.5

     total cpu time spent up to now is        1.5 secs

     End of self-consistent calculation

          k = 0.0000 0.0000 0.0000 (   411 PWs)   bands (ev):

     6.0899  11.2577  11.2577  11.2577  12.7695  12.7695  31.4028  35.2523
    35.2523  35.2523

          k =-0.3333 0.3333-0.3333 (   401 PWs)   bands (ev):

     8.4818  11.4060  11.4060  12.0041  13.3940  13.3940  23.9186  31.5772
    35.1500  35.1500

          k = 0.0000 0.6667 0.0000 (   399 PWs)   bands (ev):

     9.0893   9.6430  12.9607  13.2980  13.2980  13.6224  28.2198  28.6138
    28.6138  32.6924

          k = 0.6667-0.0000 0.6667 (   403 PWs)   bands (ev):

     9.7811  10.5916  11.4628  12.6615  13.5478  18.4632  22.4567  23.1815
    30.4711  33.3321

     the Fermi energy is    13.7153 ev

!    total energy              =     -85.41559890 Ry
     Harris-Foulkes estimate   =     -85.41559890 Ry
     estimated scf accuracy    <          1.3E-09 Ry

     The total energy is the sum of the following terms:

     one-electron contribution =      11.08106734 Ry
     hartree contribution      =       7.54804639 Ry
     xc contribution           =     -32.08897651 Ry
     ewald contribution        =     -71.95438545 Ry
     smearing contrib. (-TS)   =      -0.00135068 Ry

     convergence has been achieved in   9 iterations

     Forces acting on atoms (cartesian axes, Ry/au):

     atom    1 type  1   force =     0.00000000    0.00000000    0.00000000

     Total force =     0.000000     Total SCF correction =     0.000000


     Computing stress (Cartesian axis) and pressure

          total   stress  (Ry/bohr**3)                   (kbar)     P=   37.39
   0.00025418   0.00000000  -0.00000000         37.39      0.00     -0.00
   0.00000000   0.00025418   0.00000000          0.00     37.39      0.00
  -0.00000000   0.00000000   0.00025418         -0.00      0.00     37.39


     Writing output data file Au.save/

     init_run     :      0.14s CPU      0.14s WALL (       1 calls)
     electrons    :      0.33s CPU      0.36s WALL (       1 calls)
     forces       :      0.01s CPU      0.01s WALL (       1 calls)
     stress       :      0.04s CPU      0.04s WALL (       1 calls)

     Called by init_run:
     wfcinit      :      0.01s CPU      0.01s WALL (       1 calls)
     potinit      :      0.01s CPU      0.01s WALL (       1 calls)
     hinit0       :      0.12s CPU      0.12s WALL (       1 calls)

     Called by electrons:
     c_bands      :      0.21s CPU      0.23s WALL (      10 calls)
     sum_band     :      0.07s CPU      0.07s WALL (      10 calls)
     v_of_rho     :      0.02s CPU      0.03s WALL (      10 calls)
     newd         :      0.03s CPU      0.03s WALL (      10 calls)
     mix_rho      :      0.00s CPU      0.00s WALL (      10 calls)

     Called by c_bands:
     init_us_2    :      0.01s CPU      0.01s WALL (      92 calls)
     cegterg      :      0.20s CPU      0.22s WALL (      40 calls)

     Called by sum_band:
     sum_band:bec :      0.00s CPU      0.00s WALL (      40 calls)
     addusdens    :      0.03s CPU      0.03s WALL (      10 calls)

     Called by *egterg:
     h_psi        :      0.15s CPU      0.16s WALL (     151 calls)
     s_psi        :      0.00s CPU      0.01s WALL (     151 calls)
     g_psi        :      0.00s CPU      0.00s WALL (     107 calls)
     cdiaghg      :      0.03s CPU      0.03s WALL (     143 calls)

     Called by h_psi:
     h_psi:pot    :      0.15s CPU      0.16s WALL (     151 calls)
     h_psi:calbec :      0.01s CPU      0.01s WALL (     151 calls)
     vloc_psi     :      0.13s CPU      0.14s WALL (     151 calls)
     add_vuspsi   :      0.00s CPU      0.00s WALL (     151 calls)

     General routines
     calbec       :      0.01s CPU      0.01s WALL (     211 calls)
     fft          :      0.01s CPU      0.02s WALL (     137 calls)
     ffts         :      0.00s CPU      0.00s WALL (      10 calls)
     fftw         :      0.14s CPU      0.16s WALL (    2576 calls)

     Parallel routines
     fft_scatt_xy :      0.01s CPU      0.02s WALL (    2723 calls)
     fft_scatt_yz :      0.05s CPU      0.05s WALL (    2723 calls)

     PWSCF        :     1.51s CPU         1.59s WALL


   This run was terminated on:  11:29: 6  26Mar2024            

=------------------------------------------------------------------------------=
   JOB DONE.
=------------------------------------------------------------------------------=
