
     Program PWSCF v.6.3MaX starts on 26Mar2024 at 11:53:33 

     This program is part of the open-source Quantum ESPRESSO suite
     for quantum simulation of materials; please cite
         "P. Giannozzi et al., J. Phys.:Condens. Matter 21 395502 (2009);
         "P. Giannozzi et al., J. Phys.:Condens. Matter 29 465901 (2017);
          URL http://www.quantum-espresso.org", 
     in publications or presentations arising from this work. More details at
     http://www.quantum-espresso.org/quote

     Parallel version (MPI), running on     5 processors

     MPI processes distributed on     1 nodes
     R & G space division:  proc/nbgrp/npool/nimage =       5
     Waiting for input...
     Reading input from standard input

     Current dimensions of program PWSCF are:
     Max number of different atomic species (ntypx) = 10
     Max number of k-points (npk) =  40000
     Max angular momentum in pseudopotentials (lmaxx) =  3

     Subspace diagonalization in iterative solution of the eigenvalue problem:
     a serial algorithm will be used


     Parallelization info
     --------------------
     sticks:   dense  smooth     PW     G-vecs:    dense   smooth      PW
     Min          99      99     30                 1446     1446     248
     Max         100     100     31                 1449     1449     251
     Sum         499     499    151                 7239     7239    1243



     bravais-lattice index     =            2
     lattice parameter (alat)  =       7.7100  a.u.
     unit-cell volume          =     114.5785 (a.u.)^3
     number of atoms/cell      =            1
     number of atomic types    =            1
     number of electrons       =        11.00
     number of Kohn-Sham states=           10
     kinetic-energy cutoff     =      60.0000  Ry
     charge density cutoff     =     240.0000  Ry
     convergence threshold     =      1.0E-08
     mixing beta               =       0.7000
     number of iterations used =            8  plain     mixing
     Exchange-correlation      = PBE ( 1  4  3  4 0 0)

     celldm(1)=   7.710000  celldm(2)=   0.000000  celldm(3)=   0.000000
     celldm(4)=   0.000000  celldm(5)=   0.000000  celldm(6)=   0.000000

     crystal axes: (cart. coord. in units of alat)
               a(1) = (  -0.500000   0.000000   0.500000 )  
               a(2) = (   0.000000   0.500000   0.500000 )  
               a(3) = (  -0.500000   0.500000   0.000000 )  

     reciprocal axes: (cart. coord. in units 2 pi/alat)
               b(1) = ( -1.000000 -1.000000  1.000000 )  
               b(2) = (  1.000000  1.000000  1.000000 )  
               b(3) = ( -1.000000  1.000000 -1.000000 )  


     PseudoPot. # 1 for Au read from file:
     /home/lorenzo/pseudos/Au/Au.pbe-n-rrkjus_psl.1.0.0.UPF
     MD5 check sum: d7e77ba19504afed2c9b41c931dde4f0
     Pseudo is Ultrasoft + core correction, Zval = 11.0
     Generated using "atomic" code by A. Dal Corso v.6.3
     Using radial grid of 1279 points,  6 beta functions with: 
                l(1) =   0
                l(2) =   0
                l(3) =   1
                l(4) =   1
                l(5) =   2
                l(6) =   2
     Q(r) pseudized with 0 coefficients 


     atomic species   valence    mass     pseudopotential
        Au            11.00   196.96600     Au( 1.00)

     48 Sym. Ops., with inversion, found



   Cartesian axes

     site n.     atom                  positions (alat units)
         1           Au  tau(   1) = (   0.0000000   0.0000000   0.0000000  )

     number of k points=     3  gaussian smearing, width (Ry)=  0.0100
                       cart. coord. in units 2pi/alat
        k(    1) = (   0.0000000   0.0000000   0.0000000), wk =   0.2500000
        k(    2) = (   0.5000000  -0.5000000   0.5000000), wk =   1.0000000
        k(    3) = (   0.0000000  -1.0000000   0.0000000), wk =   0.7500000

     Dense  grid:     7239 G-vectors     FFT dimensions: (  27,  27,  27)

     Estimated max dynamical RAM per process >       7.03 MB

     Estimated total dynamical RAM >      35.15 MB

     Initial potential from superposition of free atoms

     starting charge   10.99989, renormalised to   11.00000
     Starting wfcs are    9 randomized atomic wfcs +    1 random wfcs

     total cpu time spent up to now is        1.0 secs

     Self-consistent Calculation

     iteration #  1     ecut=    60.00 Ry     beta= 0.70
     Davidson diagonalization with overlap
     ethr =  1.00E-02,  avg # of iterations =  6.7

     Threshold (ethr) on eigenvalues was too large:
     Diagonalizing with lowered threshold

     Davidson diagonalization with overlap
     ethr =  3.71E-04,  avg # of iterations =  3.7

     total cpu time spent up to now is        1.1 secs

     total energy              =     -85.12524699 Ry
     Harris-Foulkes estimate   =     -85.14561132 Ry
     estimated scf accuracy    <       0.03835976 Ry

     iteration #  2     ecut=    60.00 Ry     beta= 0.70
     Davidson diagonalization with overlap
     ethr =  3.49E-04,  avg # of iterations =  2.3

     total cpu time spent up to now is        1.2 secs

     total energy              =     -85.13731491 Ry
     Harris-Foulkes estimate   =     -85.14836586 Ry
     estimated scf accuracy    <       0.02058470 Ry

     iteration #  3     ecut=    60.00 Ry     beta= 0.70
     Davidson diagonalization with overlap
     ethr =  1.87E-04,  avg # of iterations =  3.0

     total cpu time spent up to now is        1.2 secs

     total energy              =     -85.13792525 Ry
     Harris-Foulkes estimate   =     -85.13952893 Ry
     estimated scf accuracy    <       0.00217233 Ry

     iteration #  4     ecut=    60.00 Ry     beta= 0.70
     Davidson diagonalization with overlap
     ethr =  1.97E-05,  avg # of iterations =  3.7

     total cpu time spent up to now is        1.2 secs

     total energy              =     -85.13753047 Ry
     Harris-Foulkes estimate   =     -85.14019745 Ry
     estimated scf accuracy    <       0.00679334 Ry

     iteration #  5     ecut=    60.00 Ry     beta= 0.70
     Davidson diagonalization with overlap
     ethr =  1.97E-05,  avg # of iterations =  2.0

     total cpu time spent up to now is        1.3 secs

     total energy              =     -85.13940084 Ry
     Harris-Foulkes estimate   =     -85.13944554 Ry
     estimated scf accuracy    <       0.00063646 Ry

     iteration #  6     ecut=    60.00 Ry     beta= 0.70
     Davidson diagonalization with overlap
     ethr =  5.79E-06,  avg # of iterations =  1.0

     total cpu time spent up to now is        1.3 secs

     total energy              =     -85.13932361 Ry
     Harris-Foulkes estimate   =     -85.13942408 Ry
     estimated scf accuracy    <       0.00050249 Ry

     iteration #  7     ecut=    60.00 Ry     beta= 0.70
     Davidson diagonalization with overlap
     ethr =  4.57E-06,  avg # of iterations =  1.0

     total cpu time spent up to now is        1.4 secs

     total energy              =     -85.13924484 Ry
     Harris-Foulkes estimate   =     -85.13933650 Ry
     estimated scf accuracy    <       0.00021963 Ry

     iteration #  8     ecut=    60.00 Ry     beta= 0.70
     Davidson diagonalization with overlap
     ethr =  2.00E-06,  avg # of iterations =  1.0

     total cpu time spent up to now is        1.4 secs

     total energy              =     -85.13928059 Ry
     Harris-Foulkes estimate   =     -85.13928059 Ry
     estimated scf accuracy    <       0.00000025 Ry

     iteration #  9     ecut=    60.00 Ry     beta= 0.70
     Davidson diagonalization with overlap
     ethr =  2.25E-09,  avg # of iterations =  3.7

     total cpu time spent up to now is        1.5 secs

     total energy              =     -85.13928451 Ry
     Harris-Foulkes estimate   =     -85.13928406 Ry
     estimated scf accuracy    <       0.00000144 Ry

     iteration # 10     ecut=    60.00 Ry     beta= 0.70
     Davidson diagonalization with overlap
     ethr =  2.25E-09,  avg # of iterations =  2.0

     total cpu time spent up to now is        1.5 secs

     total energy              =     -85.13928674 Ry
     Harris-Foulkes estimate   =     -85.13928464 Ry
     estimated scf accuracy    <       0.00000432 Ry

     iteration # 11     ecut=    60.00 Ry     beta= 0.70
     Davidson diagonalization with overlap
     ethr =  2.25E-09,  avg # of iterations =  4.0

     total cpu time spent up to now is        1.6 secs

     total energy              =     -85.13928850 Ry
     Harris-Foulkes estimate   =     -85.13928740 Ry
     estimated scf accuracy    <       0.00001655 Ry

     iteration # 12     ecut=    60.00 Ry     beta= 0.70
     Davidson diagonalization with overlap
     ethr =  2.25E-09,  avg # of iterations =  2.7

     total cpu time spent up to now is        1.7 secs

     total energy              =     -85.13929156 Ry
     Harris-Foulkes estimate   =     -85.13928893 Ry
     estimated scf accuracy    <       0.00001648 Ry

     iteration # 13     ecut=    60.00 Ry     beta= 0.70
     Davidson diagonalization with overlap
     ethr =  2.25E-09,  avg # of iterations =  3.3

     total cpu time spent up to now is        1.8 secs

     total energy              =     -85.13928938 Ry
     Harris-Foulkes estimate   =     -85.13929343 Ry
     estimated scf accuracy    <       0.00004017 Ry

     iteration # 14     ecut=    60.00 Ry     beta= 0.70
     Davidson diagonalization with overlap
     ethr =  2.25E-09,  avg # of iterations =  3.0

     total cpu time spent up to now is        1.8 secs

     total energy              =     -85.13928818 Ry
     Harris-Foulkes estimate   =     -85.13929006 Ry
     estimated scf accuracy    <       0.00002203 Ry

     iteration # 15     ecut=    60.00 Ry     beta= 0.70
     Davidson diagonalization with overlap
     ethr =  2.25E-09,  avg # of iterations =  2.0

     total cpu time spent up to now is        1.9 secs

     total energy              =     -85.13929080 Ry
     Harris-Foulkes estimate   =     -85.13928824 Ry
     estimated scf accuracy    <       0.00001606 Ry

     iteration # 16     ecut=    60.00 Ry     beta= 0.70
     Davidson diagonalization with overlap
     ethr =  2.25E-09,  avg # of iterations =  3.0

     total cpu time spent up to now is        2.0 secs

     total energy              =     -85.13929572 Ry
     Harris-Foulkes estimate   =     -85.13929098 Ry
     estimated scf accuracy    <       0.00002598 Ry

     iteration # 17     ecut=    60.00 Ry     beta= 0.70
     Davidson diagonalization with overlap
     ethr =  2.25E-09,  avg # of iterations =  3.0

     total cpu time spent up to now is        2.1 secs

     total energy              =     -85.13927760 Ry
     Harris-Foulkes estimate   =     -85.13929604 Ry
     estimated scf accuracy    <       0.00004412 Ry

     iteration # 18     ecut=    60.00 Ry     beta= 0.70
     Davidson diagonalization with overlap
     ethr =  2.25E-09,  avg # of iterations =  4.0

     total cpu time spent up to now is        2.1 secs

     total energy              =     -85.13928374 Ry
     Harris-Foulkes estimate   =     -85.13928374 Ry
     estimated scf accuracy    <       0.00000002 Ry

     iteration # 19     ecut=    60.00 Ry     beta= 0.70
     Davidson diagonalization with overlap
     ethr =  1.59E-10,  avg # of iterations =  1.0

     total cpu time spent up to now is        2.2 secs

     End of self-consistent calculation

          k = 0.0000 0.0000 0.0000 (   893 PWs)   bands (ev):

     6.1282  11.7296  11.7296  11.7296  13.3497  13.3497  31.3252  35.2849
    35.2849  35.2849

          k = 0.5000-0.5000 0.5000 (   886 PWs)   bands (ev):

     8.8940  11.7002  11.7002  14.5848  14.5848  15.0447  19.4401  30.6062
    33.7114  33.7114

          k = 0.0000-1.0000 0.0000 (   934 PWs)   bands (ev):

     9.2005   9.5593  14.5589  14.9091  14.9091  17.0740  22.0880  26.2997
    26.2997  33.3384

     the Fermi energy is    15.1168 ev

!    total energy              =     -85.13928374 Ry
     Harris-Foulkes estimate   =     -85.13928374 Ry
     estimated scf accuracy    <          7.4E-09 Ry

     The total energy is the sum of the following terms:

     one-electron contribution =      11.14338576 Ry
     hartree contribution      =       7.91261448 Ry
     xc contribution           =     -32.23835632 Ry
     ewald contribution        =     -71.95438535 Ry
     smearing contrib. (-TS)   =      -0.00254230 Ry

     convergence has been achieved in  19 iterations

     Forces acting on atoms (cartesian axes, Ry/au):

     atom    1 type  1   force =     0.00000000    0.00000000    0.00000000

     Total force =     0.000000     Total SCF correction =     0.000000


     Computing stress (Cartesian axis) and pressure

          total   stress  (Ry/bohr**3)                   (kbar)     P=  596.76
   0.00405672   0.00000000   0.00000000        596.76      0.00      0.00
   0.00000000   0.00405672  -0.00000000          0.00    596.76     -0.00
   0.00000000  -0.00000000   0.00405672          0.00     -0.00    596.76


     Writing output data file Au.save/

     init_run     :      0.19s CPU      0.20s WALL (       1 calls)
     electrons    :      1.12s CPU      1.17s WALL (       1 calls)
     forces       :      0.02s CPU      0.02s WALL (       1 calls)
     stress       :      0.08s CPU      0.08s WALL (       1 calls)

     Called by init_run:
     wfcinit      :      0.01s CPU      0.01s WALL (       1 calls)
     potinit      :      0.01s CPU      0.01s WALL (       1 calls)
     hinit0       :      0.16s CPU      0.16s WALL (       1 calls)

     Called by electrons:
     c_bands      :      0.62s CPU      0.64s WALL (      20 calls)
     sum_band     :      0.26s CPU      0.28s WALL (      20 calls)
     v_of_rho     :      0.09s CPU      0.09s WALL (      20 calls)
     newd         :      0.14s CPU      0.14s WALL (      20 calls)
     mix_rho      :      0.01s CPU      0.01s WALL (      20 calls)

     Called by c_bands:
     init_us_2    :      0.02s CPU      0.02s WALL (     129 calls)
     cegterg      :      0.59s CPU      0.62s WALL (      60 calls)

     Called by sum_band:
     sum_band:bec :      0.00s CPU      0.00s WALL (      60 calls)
     addusdens    :      0.15s CPU      0.15s WALL (      20 calls)

     Called by *egterg:
     h_psi        :      0.45s CPU      0.47s WALL (     231 calls)
     s_psi        :      0.01s CPU      0.01s WALL (     231 calls)
     g_psi        :      0.00s CPU      0.00s WALL (     168 calls)
     cdiaghg      :      0.06s CPU      0.06s WALL (     225 calls)

     Called by h_psi:
     h_psi:pot    :      0.45s CPU      0.47s WALL (     231 calls)
     h_psi:calbec :      0.02s CPU      0.02s WALL (     231 calls)
     vloc_psi     :      0.41s CPU      0.43s WALL (     231 calls)
     add_vuspsi   :      0.01s CPU      0.02s WALL (     231 calls)

     General routines
     calbec       :      0.03s CPU      0.03s WALL (     306 calls)
     fft          :      0.06s CPU      0.06s WALL (     247 calls)
     ffts         :      0.00s CPU      0.00s WALL (      20 calls)
     fftw         :      0.45s CPU      0.48s WALL (    3826 calls)

     Parallel routines
     fft_scatt_xy :      0.04s CPU      0.05s WALL (    4093 calls)
     fft_scatt_yz :      0.12s CPU      0.13s WALL (    4093 calls)

     PWSCF        :     2.22s CPU         2.31s WALL


   This run was terminated on:  11:53:35  26Mar2024            

=------------------------------------------------------------------------------=
   JOB DONE.
=------------------------------------------------------------------------------=
