
     Program PWSCF v.6.3MaX starts on 26Mar2024 at 12:44:53 

     This program is part of the open-source Quantum ESPRESSO suite
     for quantum simulation of materials; please cite
         "P. Giannozzi et al., J. Phys.:Condens. Matter 21 395502 (2009);
         "P. Giannozzi et al., J. Phys.:Condens. Matter 29 465901 (2017);
          URL http://www.quantum-espresso.org", 
     in publications or presentations arising from this work. More details at
     http://www.quantum-espresso.org/quote

     Parallel version (MPI), running on     5 processors

     MPI processes distributed on     1 nodes
     R & G space division:  proc/nbgrp/npool/nimage =       5
     Waiting for input...
     Reading input from standard input

     Current dimensions of program PWSCF are:
     Max number of different atomic species (ntypx) = 10
     Max number of k-points (npk) =  40000
     Max angular momentum in pseudopotentials (lmaxx) =  3
               file Au.pbe-n-kjpaw_psl.1.0.0.UPF: wavefunction(s)  6S 5D renormalized

     Subspace diagonalization in iterative solution of the eigenvalue problem:
     a serial algorithm will be used


     Parallelization info
     --------------------
     sticks:   dense  smooth     PW     G-vecs:    dense   smooth      PW
     Min         153     153     48                 2863     2863     484
     Max         154     154     49                 2867     2867     485
     Sum         769     769    241                14331    14331    2421



     bravais-lattice index     =            2
     lattice parameter (alat)  =       7.7100  a.u.
     unit-cell volume          =     114.5785 (a.u.)^3
     number of atoms/cell      =            1
     number of atomic types    =            1
     number of electrons       =        11.00
     number of Kohn-Sham states=           10
     kinetic-energy cutoff     =      95.0000  Ry
     charge density cutoff     =     380.0000  Ry
     convergence threshold     =      1.0E-08
     mixing beta               =       0.7000
     number of iterations used =            8  plain     mixing
     Exchange-correlation      = SLA PW PBX PBC ( 1  4  3  4 0 0)

     celldm(1)=   7.710000  celldm(2)=   0.000000  celldm(3)=   0.000000
     celldm(4)=   0.000000  celldm(5)=   0.000000  celldm(6)=   0.000000

     crystal axes: (cart. coord. in units of alat)
               a(1) = (  -0.500000   0.000000   0.500000 )  
               a(2) = (   0.000000   0.500000   0.500000 )  
               a(3) = (  -0.500000   0.500000   0.000000 )  

     reciprocal axes: (cart. coord. in units 2 pi/alat)
               b(1) = ( -1.000000 -1.000000  1.000000 )  
               b(2) = (  1.000000  1.000000  1.000000 )  
               b(3) = ( -1.000000  1.000000 -1.000000 )  


     PseudoPot. # 1 for Au read from file:
     /home/lorenzo/pseudos/Au/Au.pbe-n-kjpaw_psl.1.0.0.UPF
     MD5 check sum: 4db85c736373c707a97ce4c36c2a9d23
     Pseudo is Projector augmented-wave + core cor, Zval = 11.0
     Generated using "atomic" code by A. Dal Corso v.6.3
     Shape of augmentation charge: PSQ
     Using radial grid of 1279 points,  6 beta functions with: 
                l(1) =   0
                l(2) =   0
                l(3) =   1
                l(4) =   1
                l(5) =   2
                l(6) =   2
     Q(r) pseudized with 0 coefficients 


     atomic species   valence    mass     pseudopotential
        Au            11.00   196.96600     Au( 1.00)

     48 Sym. Ops., with inversion, found



   Cartesian axes

     site n.     atom                  positions (alat units)
         1           Au  tau(   1) = (   0.0000000   0.0000000   0.0000000  )

     number of k points=    20  gaussian smearing, width (Ry)=  0.0100
                       cart. coord. in units 2pi/alat
        k(    1) = (   0.0000000   0.0000000   0.0000000), wk =   0.0058309
        k(    2) = (  -0.1428571   0.1428571  -0.1428571), wk =   0.0466472
        k(    3) = (  -0.2857143   0.2857143  -0.2857143), wk =   0.0466472
        k(    4) = (  -0.4285714   0.4285714  -0.4285714), wk =   0.0466472
        k(    5) = (   0.0000000   0.2857143   0.0000000), wk =   0.0349854
        k(    6) = (  -0.1428571   0.4285714  -0.1428571), wk =   0.1399417
        k(    7) = (  -0.2857143   0.5714286  -0.2857143), wk =   0.1399417
        k(    8) = (   0.5714286  -0.2857143   0.5714286), wk =   0.1399417
        k(    9) = (   0.4285714  -0.1428571   0.4285714), wk =   0.1399417
        k(   10) = (   0.2857143  -0.0000000   0.2857143), wk =   0.0699708
        k(   11) = (   0.0000000   0.5714286   0.0000000), wk =   0.0349854
        k(   12) = (  -0.1428571   0.7142857  -0.1428571), wk =   0.1399417
        k(   13) = (   0.7142857  -0.1428571   0.7142857), wk =   0.1399417
        k(   14) = (   0.5714286   0.0000000   0.5714286), wk =   0.0699708
        k(   15) = (   0.0000000   0.8571429   0.0000000), wk =   0.0349854
        k(   16) = (   0.8571429  -0.0000000   0.8571429), wk =   0.0699708
        k(   17) = (  -0.2857143   0.5714286   0.0000000), wk =   0.1399417
        k(   18) = (   0.5714286  -0.2857143   0.8571429), wk =   0.2798834
        k(   19) = (   0.7142857  -0.1428571   1.0000000), wk =   0.1399417
        k(   20) = (   0.5714286   0.0000000   0.8571429), wk =   0.1399417

     Dense  grid:    14331 G-vectors     FFT dimensions: (  36,  36,  36)

     Estimated max dynamical RAM per process >      13.86 MB

     Estimated total dynamical RAM >      69.31 MB

     Initial potential from superposition of free atoms

     starting charge   10.99989, renormalised to   11.00000
     Starting wfcs are    9 randomized atomic wfcs +    1 random wfcs
     Checking if some PAW data can be deallocated... 

     total cpu time spent up to now is        1.4 secs

     Self-consistent Calculation

     iteration #  1     ecut=    95.00 Ry     beta= 0.70
     Davidson diagonalization with overlap
     ethr =  1.00E-02,  avg # of iterations =  5.5

     Threshold (ethr) on eigenvalues was too large:
     Diagonalizing with lowered threshold

     Davidson diagonalization with overlap
     ethr =  4.66E-04,  avg # of iterations =  1.6

     total cpu time spent up to now is        2.3 secs

     total energy              =    -775.12156113 Ry
     Harris-Foulkes estimate   =    -775.15667221 Ry
     estimated scf accuracy    <       0.05183589 Ry

     iteration #  2     ecut=    95.00 Ry     beta= 0.70
     Davidson diagonalization with overlap
     ethr =  4.71E-04,  avg # of iterations =  2.7

     total cpu time spent up to now is        2.8 secs

     total energy              =    -775.13740655 Ry
     Harris-Foulkes estimate   =    -775.14648565 Ry
     estimated scf accuracy    <       0.01491183 Ry

     iteration #  3     ecut=    95.00 Ry     beta= 0.70
     Davidson diagonalization with overlap
     ethr =  1.36E-04,  avg # of iterations =  1.9

     total cpu time spent up to now is        3.3 secs

     total energy              =    -775.14071028 Ry
     Harris-Foulkes estimate   =    -775.14074146 Ry
     estimated scf accuracy    <       0.00024353 Ry

     iteration #  4     ecut=    95.00 Ry     beta= 0.70
     Davidson diagonalization with overlap
     ethr =  2.21E-06,  avg # of iterations =  3.6

     total cpu time spent up to now is        4.0 secs

     total energy              =    -775.14097463 Ry
     Harris-Foulkes estimate   =    -775.14109390 Ry
     estimated scf accuracy    <       0.00026012 Ry

     iteration #  5     ecut=    95.00 Ry     beta= 0.70
     Davidson diagonalization with overlap
     ethr =  2.21E-06,  avg # of iterations =  1.0

     total cpu time spent up to now is        4.4 secs

     total energy              =    -775.14097895 Ry
     Harris-Foulkes estimate   =    -775.14099735 Ry
     estimated scf accuracy    <       0.00002865 Ry

     iteration #  6     ecut=    95.00 Ry     beta= 0.70
     Davidson diagonalization with overlap
     ethr =  2.60E-07,  avg # of iterations =  2.5

     total cpu time spent up to now is        4.9 secs

     total energy              =    -775.14099361 Ry
     Harris-Foulkes estimate   =    -775.14099432 Ry
     estimated scf accuracy    <       0.00000257 Ry

     iteration #  7     ecut=    95.00 Ry     beta= 0.70
     Davidson diagonalization with overlap
     ethr =  2.34E-08,  avg # of iterations =  1.6

     total cpu time spent up to now is        5.4 secs

     total energy              =    -775.14099337 Ry
     Harris-Foulkes estimate   =    -775.14099384 Ry
     estimated scf accuracy    <       0.00000089 Ry

     iteration #  8     ecut=    95.00 Ry     beta= 0.70
     Davidson diagonalization with overlap
     ethr =  8.05E-09,  avg # of iterations =  1.9

     total cpu time spent up to now is        5.9 secs

     total energy              =    -775.14099353 Ry
     Harris-Foulkes estimate   =    -775.14099353 Ry
     estimated scf accuracy    <       0.00000001 Ry

     iteration #  9     ecut=    95.00 Ry     beta= 0.70
     Davidson diagonalization with overlap
     ethr =  1.19E-10,  avg # of iterations =  4.0

     total cpu time spent up to now is        6.5 secs

     total energy              =    -775.14099356 Ry
     Harris-Foulkes estimate   =    -775.14099358 Ry
     estimated scf accuracy    <       0.00000005 Ry

     iteration # 10     ecut=    95.00 Ry     beta= 0.70
     Davidson diagonalization with overlap
     ethr =  1.19E-10,  avg # of iterations =  2.4

     total cpu time spent up to now is        7.1 secs

     End of self-consistent calculation

          k = 0.0000 0.0000 0.0000 (  1807 PWs)   bands (ev):

     6.0742  11.2746  11.2746  11.2746  12.7988  12.7988  31.3899  35.2421
    35.2421  35.2421

          k =-0.1429 0.1429-0.1429 (  1814 PWs)   bands (ev):

     6.7611  11.0908  11.4782  11.4782  12.7387  12.7387  31.2531  32.3882
    35.8557  35.8557

          k =-0.2857 0.2857-0.2857 (  1805 PWs)   bands (ev):

     8.2011  11.3852  11.5113  11.5113  13.1479  13.1479  25.8303  32.0235
    35.8119  35.8119

          k =-0.4286 0.4286-0.4286 (  1796 PWs)   bands (ev):

     8.6288  11.2753  11.2753  13.8827  13.8827  13.9778  20.4162  30.8478
    33.9179  33.9179

          k = 0.0000 0.2857 0.0000 (  1796 PWs)   bands (ev):

     6.9968  10.8230  11.7009  11.7009  12.3319  13.0036  32.3640  33.2364
    33.8907  33.8907

          k =-0.1429 0.4286-0.1429 (  1791 PWs)   bands (ev):

     8.3033  10.5507  11.5638  11.9715  12.8469  13.3724  28.1219  32.5432
    32.6617  34.7028

          k =-0.2857 0.5714-0.2857 (  1797 PWs)   bands (ev):

     9.0810  11.0503  11.5636  11.7748  13.9793  14.9190  22.3122  31.0985
    31.7787  32.9172

          k = 0.5714-0.2857 0.5714 (  1791 PWs)   bands (ev):

     9.1311  10.9477  11.6211  12.4488  13.8435  16.9241  19.3535  29.7897
    32.0022  32.7678

          k = 0.4286-0.1429 0.4286 (  1795 PWs)   bands (ev):

     9.0591  11.0913  11.4135  11.7695  12.9187  14.6564  24.2751  29.7219
    32.9034  35.9295

          k = 0.2857-0.0000 0.2857 (  1803 PWs)   bands (ev):

     7.7983  10.7838  11.6120  11.8414  12.3219  13.3470  29.4256  30.9675
    34.9410  35.7940

          k = 0.0000 0.5714 0.0000 (  1796 PWs)   bands (ev):

     8.8878   9.9227  12.1844  12.8533  12.8533  13.4867  29.9030  29.9030
    30.7955  32.5935

          k =-0.1429 0.7143-0.1429 (  1786 PWs)   bands (ev):

     9.3409   9.8376  12.1003  12.9250  14.0413  15.2193  24.6205  27.9859
    28.7003  33.5962

          k = 0.7143-0.1429 0.7143 (  1790 PWs)   bands (ev):

     9.6089  10.4119  11.7246  12.6324  13.9289  19.1471  19.9552  25.5113
    29.7101  33.3146

          k = 0.5714 0.0000 0.5714 (  1784 PWs)   bands (ev):

    10.0199  10.9154  10.9564  12.3441  13.1394  16.8061  23.6641  24.5989
    32.6611  33.0043

          k = 0.0000 0.8571 0.0000 (  1764 PWs)   bands (ev):

     8.9570   9.2874  13.9000  14.1084  14.1084  15.6092  23.5868  26.6930
    26.6930  33.0697

          k = 0.8571-0.0000 0.8571 (  1782 PWs)   bands (ev):

     9.1430   9.4989  13.2074  13.6163  14.1838  18.6150  21.2435  24.6480
    27.1127  34.0840

          k =-0.2857 0.5714 0.0000 (  1793 PWs)   bands (ev):

     9.5201  10.2603  11.1219  12.7779  12.8499  14.7457  26.1508  27.9124
    31.2871  36.3215

          k = 0.5714-0.2857 0.8571 (  1786 PWs)   bands (ev):

     9.8831  10.5435  11.1935  12.4372  13.7570  17.3330  21.4546  27.0696
    29.1689  35.1217

          k = 0.7143-0.1429 1.0000 (  1780 PWs)   bands (ev):

     9.5563   9.7959  12.0317  13.3461  14.1033  17.8816  22.7926  25.1770
    26.3884  36.5618

          k = 0.5714 0.0000 0.8571 (  1793 PWs)   bands (ev):

     9.9503  10.4240  11.2604  12.7389  14.0958  19.8100  21.8779  23.0730
    26.9916  36.5531

     the Fermi energy is    15.5891 ev

!    total energy              =    -775.14099356 Ry
     Harris-Foulkes estimate   =    -775.14099356 Ry
     estimated scf accuracy    <          2.2E-09 Ry

     total all-electron energy =    -38023.987085 Ry

     The total energy is the sum of the following terms:

     one-electron contribution =      13.82348347 Ry
     hartree contribution      =       7.63650547 Ry
     xc contribution           =     -32.12252646 Ry
     ewald contribution        =     -71.95438534 Ry
     one-center paw contrib.   =    -692.52397392 Ry
     smearing contrib. (-TS)   =      -0.00009679 Ry

     convergence has been achieved in  10 iterations

     Forces acting on atoms (cartesian axes, Ry/au):

     atom    1 type  1   force =     0.00000000    0.00000000    0.00000000

     Total force =     0.000000     Total SCF correction =     0.000000


     Computing stress (Cartesian axis) and pressure

          total   stress  (Ry/bohr**3)                   (kbar)     P=   99.44
   0.00067599   0.00000000   0.00000000         99.44      0.00      0.00
   0.00000000   0.00067599  -0.00000000          0.00     99.44     -0.00
   0.00000000  -0.00000000   0.00067599          0.00     -0.00     99.44


     Writing output data file Au.save/

     init_run     :      0.46s CPU      0.49s WALL (       1 calls)
     electrons    :      5.38s CPU      5.66s WALL (       1 calls)
     forces       :      0.08s CPU      0.09s WALL (       1 calls)
     stress       :      0.30s CPU      0.30s WALL (       1 calls)

     Called by init_run:
     wfcinit      :      0.11s CPU      0.11s WALL (       1 calls)
     potinit      :      0.11s CPU      0.13s WALL (       1 calls)
     hinit0       :      0.21s CPU      0.21s WALL (       1 calls)

     Called by electrons:
     c_bands      :      3.42s CPU      3.62s WALL (      11 calls)
     sum_band     :      0.77s CPU      0.80s WALL (      11 calls)
     v_of_rho     :      0.10s CPU      0.10s WALL (      11 calls)
     newd         :      0.15s CPU      0.15s WALL (      11 calls)
     PAW_pot      :      1.05s CPU      1.10s WALL (      11 calls)
     mix_rho      :      0.01s CPU      0.01s WALL (      11 calls)

     Called by c_bands:
     init_us_2    :      0.10s CPU      0.11s WALL (     500 calls)
     cegterg      :      3.27s CPU      3.47s WALL (     220 calls)

     Called by sum_band:
     sum_band:bec :      0.00s CPU      0.00s WALL (     220 calls)
     addusdens    :      0.15s CPU      0.15s WALL (      11 calls)

     Called by *egterg:
     h_psi        :      2.67s CPU      2.85s WALL (     819 calls)
     s_psi        :      0.08s CPU      0.08s WALL (     819 calls)
     g_psi        :      0.01s CPU      0.01s WALL (     579 calls)
     cdiaghg      :      0.19s CPU      0.19s WALL (     779 calls)

     Called by h_psi:
     h_psi:pot    :      2.66s CPU      2.84s WALL (     819 calls)
     h_psi:calbec :      0.12s CPU      0.13s WALL (     819 calls)
     vloc_psi     :      2.44s CPU      2.62s WALL (     819 calls)
     add_vuspsi   :      0.08s CPU      0.09s WALL (     819 calls)

     General routines
     calbec       :      0.19s CPU      0.20s WALL (    1139 calls)
     fft          :      0.06s CPU      0.06s WALL (     148 calls)
     ffts         :      0.00s CPU      0.00s WALL (      11 calls)
     fftw         :      2.74s CPU      2.93s WALL (   14224 calls)

     Parallel routines
     fft_scatt_xy :      0.22s CPU      0.24s WALL (   14383 calls)
     fft_scatt_yz :      0.73s CPU      0.78s WALL (   14383 calls)

     PWSCF        :     7.16s CPU         7.53s WALL


   This run was terminated on:  12:45: 0  26Mar2024            

=------------------------------------------------------------------------------=
   JOB DONE.
=------------------------------------------------------------------------------=
