
     Program PWSCF v.6.3MaX starts on 26Mar2024 at 12:29:18 

     This program is part of the open-source Quantum ESPRESSO suite
     for quantum simulation of materials; please cite
         "P. Giannozzi et al., J. Phys.:Condens. Matter 21 395502 (2009);
         "P. Giannozzi et al., J. Phys.:Condens. Matter 29 465901 (2017);
          URL http://www.quantum-espresso.org", 
     in publications or presentations arising from this work. More details at
     http://www.quantum-espresso.org/quote

     Parallel version (MPI), running on     5 processors

     MPI processes distributed on     1 nodes
     R & G space division:  proc/nbgrp/npool/nimage =       5
     Waiting for input...
     Reading input from standard input

     Current dimensions of program PWSCF are:
     Max number of different atomic species (ntypx) = 10
     Max number of k-points (npk) =  40000
     Max angular momentum in pseudopotentials (lmaxx) =  3
               file Au.pbesol-n-kjpaw_psl.1.0.0.UPF: wavefunction(s)  6S 5D renormalized

     Subspace diagonalization in iterative solution of the eigenvalue problem:
     a serial algorithm will be used


     Parallelization info
     --------------------
     sticks:   dense  smooth     PW     G-vecs:    dense   smooth      PW
     Min         137     137     42                 2407     2407     416
     Max         137     137     43                 2409     2409     418
     Sum         685     685    211                12039    12039    2085



     bravais-lattice index     =            2
     lattice parameter (alat)  =       7.7100  a.u.
     unit-cell volume          =     114.5785 (a.u.)^3
     number of atoms/cell      =            1
     number of atomic types    =            1
     number of electrons       =        11.00
     number of Kohn-Sham states=           10
     kinetic-energy cutoff     =      85.0000  Ry
     charge density cutoff     =     340.0000  Ry
     convergence threshold     =      1.0E-08
     mixing beta               =       0.7000
     number of iterations used =            8  plain     mixing
     Exchange-correlation      = SLA PW PSX PSC ( 1  4 10  8 0 0)

     celldm(1)=   7.710000  celldm(2)=   0.000000  celldm(3)=   0.000000
     celldm(4)=   0.000000  celldm(5)=   0.000000  celldm(6)=   0.000000

     crystal axes: (cart. coord. in units of alat)
               a(1) = (  -0.500000   0.000000   0.500000 )  
               a(2) = (   0.000000   0.500000   0.500000 )  
               a(3) = (  -0.500000   0.500000   0.000000 )  

     reciprocal axes: (cart. coord. in units 2 pi/alat)
               b(1) = ( -1.000000 -1.000000  1.000000 )  
               b(2) = (  1.000000  1.000000  1.000000 )  
               b(3) = ( -1.000000  1.000000 -1.000000 )  


     PseudoPot. # 1 for Au read from file:
     /home/lorenzo/pseudos/Au/Au.pbesol-n-kjpaw_psl.1.0.0.UPF
     MD5 check sum: abc371be705c47a6b6a6b4088b452d3e
     Pseudo is Projector augmented-wave + core cor, Zval = 11.0
     Generated using "atomic" code by A. Dal Corso v.6.3
     Shape of augmentation charge: PSQ
     Using radial grid of 1279 points,  6 beta functions with: 
                l(1) =   0
                l(2) =   0
                l(3) =   1
                l(4) =   1
                l(5) =   2
                l(6) =   2
     Q(r) pseudized with 0 coefficients 


     atomic species   valence    mass     pseudopotential
        Au            11.00   196.96600     Au( 1.00)

     48 Sym. Ops., with inversion, found



   Cartesian axes

     site n.     atom                  positions (alat units)
         1           Au  tau(   1) = (   0.0000000   0.0000000   0.0000000  )

     number of k points=    10  gaussian smearing, width (Ry)=  0.0100
                       cart. coord. in units 2pi/alat
        k(    1) = (   0.0000000   0.0000000   0.0000000), wk =   0.0160000
        k(    2) = (  -0.2000000   0.2000000  -0.2000000), wk =   0.1280000
        k(    3) = (  -0.4000000   0.4000000  -0.4000000), wk =   0.1280000
        k(    4) = (   0.0000000   0.4000000   0.0000000), wk =   0.0960000
        k(    5) = (  -0.2000000   0.6000000  -0.2000000), wk =   0.3840000
        k(    6) = (   0.6000000  -0.2000000   0.6000000), wk =   0.3840000
        k(    7) = (   0.4000000   0.0000000   0.4000000), wk =   0.1920000
        k(    8) = (   0.0000000   0.8000000   0.0000000), wk =   0.0960000
        k(    9) = (   0.8000000   0.0000000   0.8000000), wk =   0.1920000
        k(   10) = (   0.6000000  -0.2000000   1.0000000), wk =   0.3840000

     Dense  grid:    12039 G-vectors     FFT dimensions: (  32,  32,  32)

     Estimated max dynamical RAM per process >      11.29 MB

     Estimated total dynamical RAM >      56.45 MB

     Initial potential from superposition of free atoms

     starting charge   10.99990, renormalised to   11.00000
     Starting wfcs are    9 randomized atomic wfcs +    1 random wfcs
     Checking if some PAW data can be deallocated... 

     total cpu time spent up to now is        1.3 secs

     Self-consistent Calculation

     iteration #  1     ecut=    85.00 Ry     beta= 0.70
     Davidson diagonalization with overlap
     ethr =  1.00E-02,  avg # of iterations =  5.9

     Threshold (ethr) on eigenvalues was too large:
     Diagonalizing with lowered threshold

     Davidson diagonalization with overlap
     ethr =  5.53E-04,  avg # of iterations =  1.6

     total cpu time spent up to now is        1.7 secs

     total energy              =    -764.66648313 Ry
     Harris-Foulkes estimate   =    -764.71044730 Ry
     estimated scf accuracy    <       0.06324428 Ry

     iteration #  2     ecut=    85.00 Ry     beta= 0.70
     Davidson diagonalization with overlap
     ethr =  5.75E-04,  avg # of iterations =  2.6

     negative rho (up, down):  2.604E-03 0.000E+00

     total cpu time spent up to now is        2.0 secs

     total energy              =    -764.68592406 Ry
     Harris-Foulkes estimate   =    -764.69819156 Ry
     estimated scf accuracy    <       0.02245379 Ry

     iteration #  3     ecut=    85.00 Ry     beta= 0.70
     Davidson diagonalization with overlap
     ethr =  2.04E-04,  avg # of iterations =  2.0

     negative rho (up, down):  1.573E-02 0.000E+00

     total cpu time spent up to now is        2.3 secs

     total energy              =    -764.69037946 Ry
     Harris-Foulkes estimate   =    -764.69033532 Ry
     estimated scf accuracy    <       0.00195089 Ry

     iteration #  4     ecut=    85.00 Ry     beta= 0.70
     Davidson diagonalization with overlap
     ethr =  1.77E-05,  avg # of iterations =  4.1

     negative rho (up, down):  5.098E-03 0.000E+00

     total cpu time spent up to now is        2.6 secs

     total energy              =    -764.69094244 Ry
     Harris-Foulkes estimate   =    -764.69139761 Ry
     estimated scf accuracy    <       0.00788324 Ry

     iteration #  5     ecut=    85.00 Ry     beta= 0.70
     Davidson diagonalization with overlap
     ethr =  1.77E-05,  avg # of iterations =  2.7

     total cpu time spent up to now is        2.9 secs

     total energy              =    -764.69007587 Ry
     Harris-Foulkes estimate   =    -764.69141658 Ry
     estimated scf accuracy    <       0.00438108 Ry

     iteration #  6     ecut=    85.00 Ry     beta= 0.70
     Davidson diagonalization with overlap
     ethr =  1.77E-05,  avg # of iterations =  2.7

     negative rho (up, down):  7.678E-03 0.000E+00

     total cpu time spent up to now is        3.2 secs

     total energy              =    -764.68987716 Ry
     Harris-Foulkes estimate   =    -764.69047441 Ry
     estimated scf accuracy    <       0.00185782 Ry

     iteration #  7     ecut=    85.00 Ry     beta= 0.70
     Davidson diagonalization with overlap
     ethr =  1.69E-05,  avg # of iterations =  3.4

     negative rho (up, down):  4.917E-02 0.000E+00

     total cpu time spent up to now is        3.5 secs

     total energy              =    -764.68975013 Ry
     Harris-Foulkes estimate   =    -764.69018177 Ry
     estimated scf accuracy    <       0.00057176 Ry

     iteration #  8     ecut=    85.00 Ry     beta= 0.70
     Davidson diagonalization with overlap
     ethr =  5.20E-06,  avg # of iterations =  3.8

     negative rho (up, down):  3.421E-01 0.000E+00

     total cpu time spent up to now is        3.7 secs

     total energy              =    -764.69281440 Ry
     Harris-Foulkes estimate   =    -764.69026375 Ry
     estimated scf accuracy    <       0.00220608 Ry

     iteration #  9     ecut=    85.00 Ry     beta= 0.70
     Davidson diagonalization with overlap
     ethr =  5.20E-06,  avg # of iterations =  5.9

     negative rho (up, down):  3.566E-01 0.000E+00

     total cpu time spent up to now is        4.1 secs

     total energy              =    -772.07950128 Ry
     Harris-Foulkes estimate   =    -765.85276718 Ry
     estimated scf accuracy    <   82538.99560360 Ry

     iteration # 10     ecut=    85.00 Ry     beta= 0.70
     Davidson diagonalization with overlap
     ethr =  5.20E-06,  avg # of iterations =  3.9

     negative rho (up, down):  3.008E-01 0.000E+00

     total cpu time spent up to now is        4.4 secs

     total energy              =    -818.40606194 Ry
     Harris-Foulkes estimate   =    -773.56078295 Ry
     estimated scf accuracy    <  150865.30108306 Ry

     iteration # 11     ecut=    85.00 Ry     beta= 0.70
     Davidson diagonalization with overlap
     ethr =  5.20E-06,  avg # of iterations =  3.7

     negative rho (up, down):  2.847E-01 0.000E+00

     total cpu time spent up to now is        4.7 secs

     total energy              =    -886.69842994 Ry
     Harris-Foulkes estimate   =    -823.61061924 Ry
     estimated scf accuracy    <  205272.47045832 Ry

     iteration # 12     ecut=    85.00 Ry     beta= 0.70
     Davidson diagonalization with overlap
     ethr =  5.20E-06,  avg # of iterations =  3.3

     negative rho (up, down):  1.633E-01 0.000E+00

     total cpu time spent up to now is        5.0 secs

     total energy              =    -746.54134943 Ry
     Harris-Foulkes estimate   =    -887.63422418 Ry
     estimated scf accuracy    <  215325.12801277 Ry

     iteration # 13     ecut=    85.00 Ry     beta= 0.70
     Davidson diagonalization with overlap
     ethr =  5.20E-06,  avg # of iterations =  9.7

     negative rho (up, down):  5.967E-02 0.000E+00

     total cpu time spent up to now is        5.4 secs

     total energy              =    -764.68106548 Ry
     Harris-Foulkes estimate   =    -764.69560569 Ry
     estimated scf accuracy    <       0.46865320 Ry

     iteration # 14     ecut=    85.00 Ry     beta= 0.70
     Davidson diagonalization with overlap
     ethr =  5.20E-06,  avg # of iterations =  6.7

     negative rho (up, down):  4.074E-02 0.000E+00

     total cpu time spent up to now is        5.8 secs

     total energy              =    -764.69013513 Ry
     Harris-Foulkes estimate   =    -764.69035375 Ry
     estimated scf accuracy    <       0.00389360 Ry

     iteration # 15     ecut=    85.00 Ry     beta= 0.70
     Davidson diagonalization with overlap
     ethr =  5.20E-06,  avg # of iterations =  3.4

     negative rho (up, down):  3.129E-02 0.000E+00

     total cpu time spent up to now is        6.0 secs

     total energy              =    -764.69012971 Ry
     Harris-Foulkes estimate   =    -764.69020440 Ry
     estimated scf accuracy    <       0.00126112 Ry

     iteration # 16     ecut=    85.00 Ry     beta= 0.70
     Davidson diagonalization with overlap
     ethr =  5.20E-06,  avg # of iterations =  2.6

     negative rho (up, down):  2.107E-02 0.000E+00

     total cpu time spent up to now is        6.3 secs

     total energy              =    -764.69009981 Ry
     Harris-Foulkes estimate   =    -764.69015318 Ry
     estimated scf accuracy    <       0.00044477 Ry

     iteration # 17     ecut=    85.00 Ry     beta= 0.70
     Davidson diagonalization with overlap
     ethr =  4.04E-06,  avg # of iterations =  3.0

     negative rho (up, down):  2.097E-02 0.000E+00

     total cpu time spent up to now is        6.6 secs

     total energy              =    -764.69013022 Ry
     Harris-Foulkes estimate   =    -764.69013033 Ry
     estimated scf accuracy    <       0.00002713 Ry

     iteration # 18     ecut=    85.00 Ry     beta= 0.70
     Davidson diagonalization with overlap
     ethr =  2.47E-07,  avg # of iterations =  2.6

     negative rho (up, down):  2.243E-02 0.000E+00

     total cpu time spent up to now is        6.8 secs

     total energy              =    -764.69013411 Ry
     Harris-Foulkes estimate   =    -764.69013330 Ry
     estimated scf accuracy    <       0.00001132 Ry

     iteration # 19     ecut=    85.00 Ry     beta= 0.70
     Davidson diagonalization with overlap
     ethr =  1.03E-07,  avg # of iterations =  2.2

     negative rho (up, down):  2.689E-02 0.000E+00

     total cpu time spent up to now is        7.0 secs

     total energy              =    -764.69013681 Ry
     Harris-Foulkes estimate   =    -764.69013454 Ry
     estimated scf accuracy    <       0.00001995 Ry

     iteration # 20     ecut=    85.00 Ry     beta= 0.70
     Davidson diagonalization with overlap
     ethr =  1.03E-07,  avg # of iterations =  2.5

     negative rho (up, down):  1.937E-02 0.000E+00

     total cpu time spent up to now is        7.3 secs

     total energy              =    -764.69011766 Ry
     Harris-Foulkes estimate   =    -764.69014207 Ry
     estimated scf accuracy    <       0.00013332 Ry

     iteration # 21     ecut=    85.00 Ry     beta= 0.70
     Davidson diagonalization with overlap
     ethr =  1.03E-07,  avg # of iterations =  3.5

     negative rho (up, down):  1.720E-02 0.000E+00

     total cpu time spent up to now is        7.6 secs

     total energy              =    -764.69013224 Ry
     Harris-Foulkes estimate   =    -764.69013308 Ry
     estimated scf accuracy    <       0.00000015 Ry

     iteration # 22     ecut=    85.00 Ry     beta= 0.70
     Davidson diagonalization with overlap
     ethr =  1.33E-09,  avg # of iterations =  4.1

     negative rho (up, down):  1.880E-02 0.000E+00

     total cpu time spent up to now is        7.9 secs

     total energy              =    -764.69013183 Ry
     Harris-Foulkes estimate   =    -764.69013504 Ry
     estimated scf accuracy    <       0.00002612 Ry

     iteration # 23     ecut=    85.00 Ry     beta= 0.70
     Davidson diagonalization with overlap
     ethr =  1.33E-09,  avg # of iterations =  3.7

     negative rho (up, down):  1.910E-02 0.000E+00

     total cpu time spent up to now is        8.1 secs

     total energy              =    -764.69013311 Ry
     Harris-Foulkes estimate   =    -764.69013329 Ry
     estimated scf accuracy    <       0.00000264 Ry

     iteration # 24     ecut=    85.00 Ry     beta= 0.70
     Davidson diagonalization with overlap
     ethr =  1.33E-09,  avg # of iterations =  2.1

     negative rho (up, down):  1.915E-02 0.000E+00

     total cpu time spent up to now is        8.4 secs

     total energy              =    -764.69013315 Ry
     Harris-Foulkes estimate   =    -764.69013317 Ry
     estimated scf accuracy    <       0.00000094 Ry

     iteration # 25     ecut=    85.00 Ry     beta= 0.70
     Davidson diagonalization with overlap
     ethr =  1.33E-09,  avg # of iterations =  1.0

     negative rho (up, down):  1.915E-02 0.000E+00

     total cpu time spent up to now is        8.6 secs

     total energy              =    -764.69013315 Ry
     Harris-Foulkes estimate   =    -764.69013315 Ry
     estimated scf accuracy    <       0.00000089 Ry

     iteration # 26     ecut=    85.00 Ry     beta= 0.70
     Davidson diagonalization with overlap
     ethr =  1.33E-09,  avg # of iterations =  1.0

     negative rho (up, down):  1.882E-02 0.000E+00

     total cpu time spent up to now is        8.8 secs

     total energy              =    -764.69013323 Ry
     Harris-Foulkes estimate   =    -764.69013315 Ry
     estimated scf accuracy    <       0.00000084 Ry

     iteration # 27     ecut=    85.00 Ry     beta= 0.70
     Davidson diagonalization with overlap
     ethr =  1.33E-09,  avg # of iterations =  2.2

     negative rho (up, down):  1.969E-02 0.000E+00

     total cpu time spent up to now is        9.1 secs

     total energy              =    -764.69013266 Ry
     Harris-Foulkes estimate   =    -764.69013328 Ry
     estimated scf accuracy    <       0.00000243 Ry

     iteration # 28     ecut=    85.00 Ry     beta= 0.70
     Davidson diagonalization with overlap
     ethr =  1.33E-09,  avg # of iterations =  3.4

     negative rho (up, down):  1.945E-02 0.000E+00

     total cpu time spent up to now is        9.3 secs

     total energy              =    -764.69013307 Ry
     Harris-Foulkes estimate   =    -764.69013311 Ry
     estimated scf accuracy    <       0.00000016 Ry

     iteration # 29     ecut=    85.00 Ry     beta= 0.70
     Davidson diagonalization with overlap
     ethr =  1.33E-09,  avg # of iterations =  2.0

     negative rho (up, down):  1.949E-02 0.000E+00

     total cpu time spent up to now is        9.6 secs

     total energy              =    -764.69013310 Ry
     Harris-Foulkes estimate   =    -764.69013310 Ry
     estimated scf accuracy    <       0.00000001 Ry

     iteration # 30     ecut=    85.00 Ry     beta= 0.70
     Davidson diagonalization with overlap
     ethr =  9.38E-11,  avg # of iterations =  2.0

     negative rho (up, down):  1.942E-02 0.000E+00

     total cpu time spent up to now is        9.8 secs

     End of self-consistent calculation

          k = 0.0000 0.0000 0.0000 (  1459 PWs)   bands (ev):

     5.8161  11.0991  11.0991  11.0991  12.6366  12.6366  31.1351  34.9846
    34.9846  34.9846

          k =-0.2000 0.2000-0.2000 (  1504 PWs)   bands (ev):

     7.0881  10.8518  11.3883  11.3883  12.6355  12.6355  29.0994  32.2749
    35.9511  35.9511

          k =-0.4000 0.4000-0.4000 (  1504 PWs)   bands (ev):

     8.4069  11.1384  11.1384  13.0979  13.6099  13.6099  21.2046  30.7624
    33.9768  33.9768

          k = 0.0000 0.4000 0.0000 (  1491 PWs)   bands (ev):

     7.5305  10.2925  11.8725  11.9199  11.9199  13.0163  32.2286  32.2856
    32.2856  33.0484

          k =-0.2000 0.6000-0.2000 (  1514 PWs)   bands (ev):

     9.0613  10.2880  11.1369  12.0656  13.7642  14.3454  24.1963  30.0786
    30.3279  33.0889

          k = 0.6000-0.2000 0.6000 (  1507 PWs)   bands (ev):

     9.3125  10.5840  11.6861  11.7851  13.5529  17.3514  19.7537  27.5377
    31.6845  32.1956

          k = 0.4000 0.0000 0.4000 (  1520 PWs)   bands (ev):

     8.7975  10.4603  11.1954  11.9963  12.1511  14.2312  26.3848  28.5283
    33.4546  36.3457

          k = 0.0000 0.8000 0.0000 (  1524 PWs)   bands (ev):

     8.8008   9.1889  13.6755  13.7575  13.7575  14.5011  24.4893  26.8985
    26.8985  32.3120

          k = 0.8000 0.0000 0.8000 (  1522 PWs)   bands (ev):

     9.1236   9.6123  12.4241  13.1791  13.8934  19.4715  20.3867  23.5149
    27.5923  33.7183

          k = 0.6000-0.2000 1.0000 (  1528 PWs)   bands (ev):

     9.8689  10.1293  10.8250  12.7580  13.7437  17.7878  22.8123  24.1812
    26.8932  37.1857

     the Fermi energy is    14.5423 ev

!    total energy              =    -764.69013310 Ry
     Harris-Foulkes estimate   =    -764.69013310 Ry
     estimated scf accuracy    <          8.2E-09 Ry

     total all-electron energy =    -38013.524595 Ry

     The total energy is the sum of the following terms:

     one-electron contribution =      13.84905976 Ry
     hartree contribution      =       7.59092352 Ry
     xc contribution           =     -31.83293844 Ry
     ewald contribution        =     -71.95438534 Ry
     one-center paw contrib.   =    -682.34240941 Ry
     smearing contrib. (-TS)   =      -0.00038319 Ry

     convergence has been achieved in  30 iterations

     negative rho (up, down):  1.942E-02 0.000E+00

     Forces acting on atoms (cartesian axes, Ry/au):

     atom    1 type  1   force =     0.00000000    0.00000000    0.00000000

     Total force =     0.000000     Total SCF correction =     0.000000


     Computing stress (Cartesian axis) and pressure


     negative rho (up, down):  1.942E-02 0.000E+00
          total   stress  (Ry/bohr**3)                   (kbar)     P=    9.15
   0.00006223  -0.00000000  -0.00000000          9.15     -0.00     -0.00
  -0.00000000   0.00006223   0.00000000         -0.00      9.15      0.00
  -0.00000000   0.00000000   0.00006223         -0.00      0.00      9.15


     Writing output data file Au.save/

     init_run     :      0.36s CPU      0.39s WALL (       1 calls)
     electrons    :      8.10s CPU      8.53s WALL (       1 calls)
     forces       :      0.04s CPU      0.04s WALL (       1 calls)
     stress       :      0.13s CPU      0.13s WALL (       1 calls)

     Called by init_run:
     wfcinit      :      0.03s CPU      0.04s WALL (       1 calls)
     potinit      :      0.11s CPU      0.12s WALL (       1 calls)
     hinit0       :      0.19s CPU      0.20s WALL (       1 calls)

     Called by electrons:
     c_bands      :      3.68s CPU      3.98s WALL (      31 calls)
     sum_band     :      0.96s CPU      1.00s WALL (      31 calls)
     v_of_rho     :      0.20s CPU      0.20s WALL (      31 calls)
     newd         :      0.34s CPU      0.35s WALL (      31 calls)
     PAW_pot      :      2.98s CPU      3.06s WALL (      31 calls)
     mix_rho      :      0.03s CPU      0.04s WALL (      31 calls)

     Called by c_bands:
     init_us_2    :      0.12s CPU      0.12s WALL (     650 calls)
     cegterg      :      3.51s CPU      3.80s WALL (     310 calls)

     Called by sum_band:
     sum_band:bec :      0.00s CPU      0.00s WALL (     310 calls)
     addusdens    :      0.35s CPU      0.36s WALL (      31 calls)

     Called by *egterg:
     h_psi        :      2.55s CPU      2.79s WALL (    1353 calls)
     s_psi        :      0.10s CPU      0.11s WALL (    1353 calls)
     g_psi        :      0.01s CPU      0.01s WALL (    1033 calls)
     cdiaghg      :      0.31s CPU      0.33s WALL (    1333 calls)

     Called by h_psi:
     h_psi:pot    :      2.54s CPU      2.77s WALL (    1353 calls)
     h_psi:calbec :      0.14s CPU      0.16s WALL (    1353 calls)
     vloc_psi     :      2.28s CPU      2.49s WALL (    1353 calls)
     add_vuspsi   :      0.10s CPU      0.11s WALL (    1353 calls)

     General routines
     calbec       :      0.19s CPU      0.21s WALL (    1713 calls)
     fft          :      0.08s CPU      0.09s WALL (     368 calls)
     ffts         :      0.01s CPU      0.01s WALL (      31 calls)
     fftw         :      2.49s CPU      2.71s WALL (   21328 calls)

     Parallel routines
     fft_scatt_xy :      0.25s CPU      0.28s WALL (   21727 calls)
     fft_scatt_yz :      0.78s CPU      0.85s WALL (   21727 calls)

     PWSCF        :     9.56s CPU        10.05s WALL


   This run was terminated on:  12:29:28  26Mar2024            

=------------------------------------------------------------------------------=
   JOB DONE.
=------------------------------------------------------------------------------=
