
     Program PWSCF v.6.3MaX starts on 26Mar2024 at 11:13:33 

     This program is part of the open-source Quantum ESPRESSO suite
     for quantum simulation of materials; please cite
         "P. Giannozzi et al., J. Phys.:Condens. Matter 21 395502 (2009);
         "P. Giannozzi et al., J. Phys.:Condens. Matter 29 465901 (2017);
          URL http://www.quantum-espresso.org", 
     in publications or presentations arising from this work. More details at
     http://www.quantum-espresso.org/quote

     Parallel version (MPI), running on     5 processors

     MPI processes distributed on     1 nodes
     R & G space division:  proc/nbgrp/npool/nimage =       5
     Waiting for input...
     Reading input from standard input

     Current dimensions of program PWSCF are:
     Max number of different atomic species (ntypx) = 10
     Max number of k-points (npk) =  40000
     Max angular momentum in pseudopotentials (lmaxx) =  3
               file Au.pbe-n-kjpaw_psl.1.0.0.UPF: wavefunction(s)  6S 5D renormalized

     Subspace diagonalization in iterative solution of the eigenvalue problem:
     a serial algorithm will be used


     Parallelization info
     --------------------
     sticks:   dense  smooth     PW     G-vecs:    dense   smooth      PW
     Min          17      17      3                  106      106      11
     Max          17      17      4                  107      107      12
     Sum          85      85     19                  531      531      59



     bravais-lattice index     =            2
     lattice parameter (alat)  =       7.7100  a.u.
     unit-cell volume          =     114.5785 (a.u.)^3
     number of atoms/cell      =            1
     number of atomic types    =            1
     number of electrons       =        11.00
     number of Kohn-Sham states=           10
     kinetic-energy cutoff     =      10.0000  Ry
     charge density cutoff     =      40.0000  Ry
     convergence threshold     =      1.0E-08
     mixing beta               =       0.7000
     number of iterations used =            8  plain     mixing
     Exchange-correlation      = SLA PW PBX PBC ( 1  4  3  4 0 0)

     celldm(1)=   7.710000  celldm(2)=   0.000000  celldm(3)=   0.000000
     celldm(4)=   0.000000  celldm(5)=   0.000000  celldm(6)=   0.000000

     crystal axes: (cart. coord. in units of alat)
               a(1) = (  -0.500000   0.000000   0.500000 )  
               a(2) = (   0.000000   0.500000   0.500000 )  
               a(3) = (  -0.500000   0.500000   0.000000 )  

     reciprocal axes: (cart. coord. in units 2 pi/alat)
               b(1) = ( -1.000000 -1.000000  1.000000 )  
               b(2) = (  1.000000  1.000000  1.000000 )  
               b(3) = ( -1.000000  1.000000 -1.000000 )  


     PseudoPot. # 1 for Au read from file:
     /home/lorenzo/pseudos/Au/Au.pbe-n-kjpaw_psl.1.0.0.UPF
     MD5 check sum: 4db85c736373c707a97ce4c36c2a9d23
     Pseudo is Projector augmented-wave + core cor, Zval = 11.0
     Generated using "atomic" code by A. Dal Corso v.6.3
     Shape of augmentation charge: PSQ
     Using radial grid of 1279 points,  6 beta functions with: 
                l(1) =   0
                l(2) =   0
                l(3) =   1
                l(4) =   1
                l(5) =   2
                l(6) =   2
     Q(r) pseudized with 0 coefficients 


     atomic species   valence    mass     pseudopotential
        Au            11.00   196.96600     Au( 1.00)

     48 Sym. Ops., with inversion, found



   Cartesian axes

     site n.     atom                  positions (alat units)
         1           Au  tau(   1) = (   0.0000000   0.0000000   0.0000000  )

     number of k points=     1  gaussian smearing, width (Ry)=  0.0100
                       cart. coord. in units 2pi/alat
        k(    1) = (   0.0000000   0.0000000   0.0000000), wk =   2.0000000

     Dense  grid:      531 G-vectors     FFT dimensions: (  12,  12,  12)

     Estimated max dynamical RAM per process >       1.03 MB

     Estimated total dynamical RAM >       5.16 MB

     Check: negative/imaginary core charge=   -0.000057    0.000000

     Initial potential from superposition of free atoms

     starting charge   10.99989, renormalised to   11.00000

     negative rho (up, down):  4.368E-05 0.000E+00
     Starting wfcs are    9 randomized atomic wfcs +    1 random wfcs
     Checking if some PAW data can be deallocated... 

     total cpu time spent up to now is        1.1 secs

     Self-consistent Calculation

     iteration #  1     ecut=    10.00 Ry     beta= 0.70
     Davidson diagonalization with overlap
     ethr =  1.00E-02,  avg # of iterations =  5.0

     total cpu time spent up to now is        1.2 secs

     total energy              =    -774.56901623 Ry
     Harris-Foulkes estimate   =    -775.05599364 Ry
     estimated scf accuracy    <       0.67492168 Ry

     iteration #  2     ecut=    10.00 Ry     beta= 0.70
     Davidson diagonalization with overlap
     ethr =  6.14E-03,  avg # of iterations =  2.0

     total cpu time spent up to now is        1.4 secs

     total energy              =    -774.67800643 Ry
     Harris-Foulkes estimate   =    -774.67501699 Ry
     estimated scf accuracy    <       0.00878710 Ry

     iteration #  3     ecut=    10.00 Ry     beta= 0.70
     Davidson diagonalization with overlap
     ethr =  7.99E-05,  avg # of iterations =  3.0

     total cpu time spent up to now is        1.5 secs

     total energy              =    -774.67865598 Ry
     Harris-Foulkes estimate   =    -774.67829554 Ry
     estimated scf accuracy    <       0.00071468 Ry

     iteration #  4     ecut=    10.00 Ry     beta= 0.70
     Davidson diagonalization with overlap
     ethr =  6.50E-06,  avg # of iterations =  2.0

     total cpu time spent up to now is        1.6 secs

     total energy              =    -774.67868816 Ry
     Harris-Foulkes estimate   =    -774.67868783 Ry
     estimated scf accuracy    <       0.00000212 Ry

     iteration #  5     ecut=    10.00 Ry     beta= 0.70
     Davidson diagonalization with overlap
     ethr =  1.93E-08,  avg # of iterations =  1.0

     total cpu time spent up to now is        1.8 secs

     total energy              =    -774.67868831 Ry
     Harris-Foulkes estimate   =    -774.67868820 Ry
     estimated scf accuracy    <       0.00000024 Ry

     iteration #  6     ecut=    10.00 Ry     beta= 0.70
     Davidson diagonalization with overlap
     ethr =  2.22E-09,  avg # of iterations =  1.0

     total cpu time spent up to now is        1.9 secs

     End of self-consistent calculation

          k = 0.0000 0.0000 0.0000 (    59 PWs)   bands (ev):

     6.2526   9.5817   9.5817   9.5817  11.8364  11.8364  32.9811  35.6831
    35.6831  35.6831

     the Fermi energy is    11.9013 ev

!    total energy              =    -774.67868832 Ry
     Harris-Foulkes estimate   =    -774.67868832 Ry
     estimated scf accuracy    <          5.7E-10 Ry

     total all-electron energy =    -38023.524779 Ry

     The total energy is the sum of the following terms:

     one-electron contribution =      14.73609318 Ry
     hartree contribution      =       5.54966647 Ry
     xc contribution           =     -31.10705461 Ry
     ewald contribution        =     -71.95438535 Ry
     one-center paw contrib.   =    -691.89401993 Ry
     smearing contrib. (-TS)   =      -0.00898808 Ry

     convergence has been achieved in   6 iterations

     Forces acting on atoms (cartesian axes, Ry/au):

     atom    1 type  1   force =     0.00000000    0.00000000    0.00000000

     Total force =     0.000000     Total SCF correction =     0.000000


     Computing stress (Cartesian axis) and pressure

          total   stress  (Ry/bohr**3)                   (kbar)     P=-5604.92
  -0.03810149  -0.00000000   0.00000000      -5604.92     -0.00      0.00
  -0.00000000  -0.03810149   0.00000000         -0.00  -5604.92      0.00
   0.00000000   0.00000000  -0.03810149          0.00      0.00  -5604.92


     Writing output data file Au.save/

     init_run     :      0.21s CPU      0.23s WALL (       1 calls)
     electrons    :      0.65s CPU      0.77s WALL (       1 calls)
     forces       :      0.00s CPU      0.00s WALL (       1 calls)
     stress       :      0.01s CPU      0.01s WALL (       1 calls)

     Called by init_run:
     wfcinit      :      0.00s CPU      0.00s WALL (       1 calls)
     potinit      :      0.13s CPU      0.14s WALL (       1 calls)
     hinit0       :      0.07s CPU      0.07s WALL (       1 calls)

     Called by electrons:
     c_bands      :      0.01s CPU      0.02s WALL (       6 calls)
     sum_band     :      0.01s CPU      0.01s WALL (       6 calls)
     v_of_rho     :      0.00s CPU      0.00s WALL (       7 calls)
     newd         :      0.01s CPU      0.01s WALL (       7 calls)
     PAW_pot      :      0.74s CPU      0.87s WALL (       7 calls)
     mix_rho      :      0.00s CPU      0.00s WALL (       6 calls)

     Called by c_bands:
     init_us_2    :      0.00s CPU      0.00s WALL (      13 calls)
     cegterg      :      0.01s CPU      0.02s WALL (       6 calls)

     Called by sum_band:
     sum_band:bec :      0.00s CPU      0.00s WALL (       6 calls)
     addusdens    :      0.00s CPU      0.00s WALL (       6 calls)

     Called by *egterg:
     h_psi        :      0.01s CPU      0.01s WALL (      21 calls)
     s_psi        :      0.00s CPU      0.00s WALL (      21 calls)
     g_psi        :      0.00s CPU      0.00s WALL (      14 calls)
     cdiaghg      :      0.00s CPU      0.00s WALL (      20 calls)

     Called by h_psi:
     h_psi:pot    :      0.01s CPU      0.01s WALL (      21 calls)
     h_psi:calbec :      0.00s CPU      0.00s WALL (      21 calls)
     vloc_psi     :      0.00s CPU      0.01s WALL (      21 calls)
     add_vuspsi   :      0.00s CPU      0.00s WALL (      21 calls)

     General routines
     calbec       :      0.00s CPU      0.00s WALL (      32 calls)
     fft          :      0.01s CPU      0.01s WALL (     103 calls)
     ffts         :      0.00s CPU      0.00s WALL (       6 calls)
     fftw         :      0.01s CPU      0.01s WALL (     384 calls)

     Parallel routines
     fft_scatt_xy :      0.00s CPU      0.00s WALL (     493 calls)
     fft_scatt_yz :      0.01s CPU      0.01s WALL (     493 calls)

     PWSCF        :     1.76s CPU         1.96s WALL


   This run was terminated on:  11:13:35  26Mar2024            

=------------------------------------------------------------------------------=
   JOB DONE.
=------------------------------------------------------------------------------=
