
     Program PWSCF v.6.3MaX starts on 26Mar2024 at 11: 9:23 

     This program is part of the open-source Quantum ESPRESSO suite
     for quantum simulation of materials; please cite
         "P. Giannozzi et al., J. Phys.:Condens. Matter 21 395502 (2009);
         "P. Giannozzi et al., J. Phys.:Condens. Matter 29 465901 (2017);
          URL http://www.quantum-espresso.org", 
     in publications or presentations arising from this work. More details at
     http://www.quantum-espresso.org/quote

     Parallel version (MPI), running on     5 processors

     MPI processes distributed on     1 nodes
     R & G space division:  proc/nbgrp/npool/nimage =       5
     Waiting for input...
     Reading input from standard input

     Current dimensions of program PWSCF are:
     Max number of different atomic species (ntypx) = 10
     Max number of k-points (npk) =  40000
     Max angular momentum in pseudopotentials (lmaxx) =  3
               file Au.pbesol-n-kjpaw_psl.1.0.0.UPF: wavefunction(s)  6S 5D renormalized

     Subspace diagonalization in iterative solution of the eigenvalue problem:
     a serial algorithm will be used


     Parallelization info
     --------------------
     sticks:   dense  smooth     PW     G-vecs:    dense   smooth      PW
     Min         164     164     50                 3094     3094     527
     Max         165     165     51                 3095     3095     528
     Sum         823     823    253                15473    15473    2637



     bravais-lattice index     =            2
     lattice parameter (alat)  =       7.7100  a.u.
     unit-cell volume          =     114.5785 (a.u.)^3
     number of atoms/cell      =            1
     number of atomic types    =            1
     number of electrons       =        11.00
     number of Kohn-Sham states=           10
     kinetic-energy cutoff     =     100.0000  Ry
     charge density cutoff     =     400.0000  Ry
     convergence threshold     =      1.0E-08
     mixing beta               =       0.7000
     number of iterations used =            8  plain     mixing
     Exchange-correlation      = SLA PW PSX PSC ( 1  4 10  8 0 0)

     celldm(1)=   7.710000  celldm(2)=   0.000000  celldm(3)=   0.000000
     celldm(4)=   0.000000  celldm(5)=   0.000000  celldm(6)=   0.000000

     crystal axes: (cart. coord. in units of alat)
               a(1) = (  -0.500000   0.000000   0.500000 )  
               a(2) = (   0.000000   0.500000   0.500000 )  
               a(3) = (  -0.500000   0.500000   0.000000 )  

     reciprocal axes: (cart. coord. in units 2 pi/alat)
               b(1) = ( -1.000000 -1.000000  1.000000 )  
               b(2) = (  1.000000  1.000000  1.000000 )  
               b(3) = ( -1.000000  1.000000 -1.000000 )  


     PseudoPot. # 1 for Au read from file:
     /home/lorenzo/pseudos/Au/Au.pbesol-n-kjpaw_psl.1.0.0.UPF
     MD5 check sum: abc371be705c47a6b6a6b4088b452d3e
     Pseudo is Projector augmented-wave + core cor, Zval = 11.0
     Generated using "atomic" code by A. Dal Corso v.6.3
     Shape of augmentation charge: PSQ
     Using radial grid of 1279 points,  6 beta functions with: 
                l(1) =   0
                l(2) =   0
                l(3) =   1
                l(4) =   1
                l(5) =   2
                l(6) =   2
     Q(r) pseudized with 0 coefficients 


     atomic species   valence    mass     pseudopotential
        Au            11.00   196.96600     Au( 1.00)

     48 Sym. Ops., with inversion, found



   Cartesian axes

     site n.     atom                  positions (alat units)
         1           Au  tau(   1) = (   0.0000000   0.0000000   0.0000000  )

     number of k points=    10  gaussian smearing, width (Ry)=  0.0100
                       cart. coord. in units 2pi/alat
        k(    1) = (   0.0000000   0.0000000   0.0000000), wk =   0.0160000
        k(    2) = (  -0.2000000   0.2000000  -0.2000000), wk =   0.1280000
        k(    3) = (  -0.4000000   0.4000000  -0.4000000), wk =   0.1280000
        k(    4) = (   0.0000000   0.4000000   0.0000000), wk =   0.0960000
        k(    5) = (  -0.2000000   0.6000000  -0.2000000), wk =   0.3840000
        k(    6) = (   0.6000000  -0.2000000   0.6000000), wk =   0.3840000
        k(    7) = (   0.4000000   0.0000000   0.4000000), wk =   0.1920000
        k(    8) = (   0.0000000   0.8000000   0.0000000), wk =   0.0960000
        k(    9) = (   0.8000000   0.0000000   0.8000000), wk =   0.1920000
        k(   10) = (   0.6000000  -0.2000000   1.0000000), wk =   0.3840000

     Dense  grid:    15473 G-vectors     FFT dimensions: (  36,  36,  36)

     Estimated max dynamical RAM per process >      14.22 MB

     Estimated total dynamical RAM >      71.08 MB

     Initial potential from superposition of free atoms

     starting charge   10.99990, renormalised to   11.00000
     Starting wfcs are    9 randomized atomic wfcs +    1 random wfcs
     Checking if some PAW data can be deallocated... 

     total cpu time spent up to now is        1.3 secs

     Self-consistent Calculation

     iteration #  1     ecut=   100.00 Ry     beta= 0.70
     Davidson diagonalization with overlap
     ethr =  1.00E-02,  avg # of iterations =  5.3

     Threshold (ethr) on eigenvalues was too large:
     Diagonalizing with lowered threshold

     Davidson diagonalization with overlap
     ethr =  5.56E-04,  avg # of iterations =  2.1

     total cpu time spent up to now is        1.9 secs

     total energy              =    -764.66654579 Ry
     Harris-Foulkes estimate   =    -764.71057395 Ry
     estimated scf accuracy    <       0.06344880 Ry

     iteration #  2     ecut=   100.00 Ry     beta= 0.70
     Davidson diagonalization with overlap
     ethr =  5.77E-04,  avg # of iterations =  2.5

     negative rho (up, down):  5.464E-04 0.000E+00

     total cpu time spent up to now is        2.2 secs

     total energy              =    -764.68567180 Ry
     Harris-Foulkes estimate   =    -764.69805803 Ry
     estimated scf accuracy    <       0.02102139 Ry

     iteration #  3     ecut=   100.00 Ry     beta= 0.70
     Davidson diagonalization with overlap
     ethr =  1.91E-04,  avg # of iterations =  1.9

     negative rho (up, down):  3.537E-03 0.000E+00

     total cpu time spent up to now is        2.5 secs

     total energy              =    -764.69009104 Ry
     Harris-Foulkes estimate   =    -764.69016473 Ry
     estimated scf accuracy    <       0.00044466 Ry

     iteration #  4     ecut=   100.00 Ry     beta= 0.70
     Davidson diagonalization with overlap
     ethr =  4.04E-06,  avg # of iterations =  3.7

     negative rho (up, down):  3.334E-03 0.000E+00

     total cpu time spent up to now is        3.0 secs

     total energy              =    -764.69047833 Ry
     Harris-Foulkes estimate   =    -764.69056121 Ry
     estimated scf accuracy    <       0.00036790 Ry

     iteration #  5     ecut=   100.00 Ry     beta= 0.70
     Davidson diagonalization with overlap
     ethr =  3.34E-06,  avg # of iterations =  1.0

     negative rho (up, down):  3.326E-03 0.000E+00

     total cpu time spent up to now is        3.3 secs

     total energy              =    -764.69037263 Ry
     Harris-Foulkes estimate   =    -764.69048514 Ry
     estimated scf accuracy    <       0.00018523 Ry

     iteration #  6     ecut=   100.00 Ry     beta= 0.70
     Davidson diagonalization with overlap
     ethr =  1.68E-06,  avg # of iterations =  2.1

     negative rho (up, down):  3.301E-03 0.000E+00

     total cpu time spent up to now is        3.6 secs

     total energy              =    -764.69041903 Ry
     Harris-Foulkes estimate   =    -764.69042013 Ry
     estimated scf accuracy    <       0.00000291 Ry

     iteration #  7     ecut=   100.00 Ry     beta= 0.70
     Davidson diagonalization with overlap
     ethr =  2.65E-08,  avg # of iterations =  3.1

     negative rho (up, down):  3.267E-03 0.000E+00

     total cpu time spent up to now is        3.9 secs

     total energy              =    -764.69042044 Ry
     Harris-Foulkes estimate   =    -764.69042055 Ry
     estimated scf accuracy    <       0.00000051 Ry

     iteration #  8     ecut=   100.00 Ry     beta= 0.70
     Davidson diagonalization with overlap
     ethr =  4.60E-09,  avg # of iterations =  1.1

     negative rho (up, down):  3.177E-03 0.000E+00

     total cpu time spent up to now is        4.2 secs

     total energy              =    -764.69042034 Ry
     Harris-Foulkes estimate   =    -764.69042046 Ry
     estimated scf accuracy    <       0.00000023 Ry

     iteration #  9     ecut=   100.00 Ry     beta= 0.70
     Davidson diagonalization with overlap
     ethr =  2.07E-09,  avg # of iterations =  2.6

     negative rho (up, down):  3.165E-03 0.000E+00

     total cpu time spent up to now is        4.5 secs

     total energy              =    -764.69042040 Ry
     Harris-Foulkes estimate   =    -764.69042040 Ry
     estimated scf accuracy    <       0.00000002 Ry

     iteration # 10     ecut=   100.00 Ry     beta= 0.70
     Davidson diagonalization with overlap
     ethr =  1.78E-10,  avg # of iterations =  3.7

     negative rho (up, down):  3.089E-03 0.000E+00

     total cpu time spent up to now is        5.0 secs

     total energy              =    -764.69042038 Ry
     Harris-Foulkes estimate   =    -764.69042045 Ry
     estimated scf accuracy    <       0.00000013 Ry

     iteration # 11     ecut=   100.00 Ry     beta= 0.70
     Davidson diagonalization with overlap
     ethr =  1.78E-10,  avg # of iterations =  3.1

     negative rho (up, down):  3.112E-03 0.000E+00

     total cpu time spent up to now is        5.3 secs

     End of self-consistent calculation

          k = 0.0000 0.0000 0.0000 (  1917 PWs)   bands (ev):

     5.8144  11.0965  11.0965  11.0965  12.6365  12.6365  31.1336  34.9831
    34.9831  34.9831

          k =-0.2000 0.2000-0.2000 (  1937 PWs)   bands (ev):

     7.0853  10.8487  11.3860  11.3860  12.6347  12.6347  28.9900  32.2156
    35.9249  35.9249

          k =-0.4000 0.4000-0.4000 (  1937 PWs)   bands (ev):

     8.3963  11.1362  11.1362  13.0942  13.6088  13.6088  21.1384  30.7475
    33.9478  33.9478

          k = 0.0000 0.4000 0.0000 (  1956 PWs)   bands (ev):

     7.5306  10.2874  11.8695  11.9177  11.9177  13.0195  32.1611  32.1611
    32.4365  32.8580

          k =-0.2000 0.6000-0.2000 (  1936 PWs)   bands (ev):

     9.0589  10.2853  11.1348  12.0630  13.7657  14.3407  24.1419  30.3065
    30.3579  32.9110

          k = 0.6000-0.2000 0.6000 (  1941 PWs)   bands (ev):

     9.3052  10.5832  11.6836  11.7822  13.5487  17.3442  19.7318  27.5871
    31.8729  32.1809

          k = 0.4000 0.0000 0.4000 (  1939 PWs)   bands (ev):

     8.7938  10.4561  11.1929  11.9934  12.1484  14.2321  26.3957  28.3321
    33.5367  36.3577

          k = 0.0000 0.8000 0.0000 (  1944 PWs)   bands (ev):

     8.8151   9.1780  13.6877  13.7459  13.7459  14.5048  24.6269  26.8753
    26.8753  32.7540

          k = 0.8000 0.0000 0.8000 (  1930 PWs)   bands (ev):

     9.1287   9.6090  12.4211  13.1839  13.8803  19.4315  20.3974  23.6705
    27.6661  33.7472

          k = 0.6000-0.2000 1.0000 (  1928 PWs)   bands (ev):

     9.8737  10.1239  10.8224  12.7584  13.7321  17.7772  22.8682  24.0960
    27.1540  37.8355

     the Fermi energy is    14.5432 ev

!    total energy              =    -764.69042040 Ry
     Harris-Foulkes estimate   =    -764.69042040 Ry
     estimated scf accuracy    <          2.9E-09 Ry

     total all-electron energy =    -38013.524883 Ry

     The total energy is the sum of the following terms:

     one-electron contribution =      13.84830849 Ry
     hartree contribution      =       7.58818154 Ry
     xc contribution           =     -31.82933825 Ry
     ewald contribution        =     -71.95438534 Ry
     one-center paw contrib.   =    -682.34281559 Ry
     smearing contrib. (-TS)   =      -0.00037125 Ry

     convergence has been achieved in  11 iterations

     negative rho (up, down):  3.112E-03 0.000E+00

     Forces acting on atoms (cartesian axes, Ry/au):

     atom    1 type  1   force =     0.00000000    0.00000000    0.00000000

     Total force =     0.000000     Total SCF correction =     0.000000


     Computing stress (Cartesian axis) and pressure


     negative rho (up, down):  3.112E-03 0.000E+00
          total   stress  (Ry/bohr**3)                   (kbar)     P=    4.09
   0.00002783  -0.00000000  -0.00000000          4.09     -0.00     -0.00
  -0.00000000   0.00002783  -0.00000000         -0.00      4.09     -0.00
  -0.00000000  -0.00000000   0.00002783         -0.00     -0.00      4.09


     Writing output data file Au.save/

     init_run     :      0.43s CPU      0.45s WALL (       1 calls)
     electrons    :      3.85s CPU      4.02s WALL (       1 calls)
     forces       :      0.06s CPU      0.06s WALL (       1 calls)
     stress       :      0.19s CPU      0.19s WALL (       1 calls)

     Called by init_run:
     wfcinit      :      0.06s CPU      0.06s WALL (       1 calls)
     potinit      :      0.11s CPU      0.13s WALL (       1 calls)
     hinit0       :      0.22s CPU      0.22s WALL (       1 calls)

     Called by electrons:
     c_bands      :      1.94s CPU      2.05s WALL (      12 calls)
     sum_band     :      0.54s CPU      0.56s WALL (      12 calls)
     v_of_rho     :      0.12s CPU      0.12s WALL (      12 calls)
     newd         :      0.18s CPU      0.19s WALL (      12 calls)
     PAW_pot      :      1.17s CPU      1.21s WALL (      12 calls)
     mix_rho      :      0.02s CPU      0.02s WALL (      12 calls)

     Called by c_bands:
     init_us_2    :      0.06s CPU      0.06s WALL (     270 calls)
     cegterg      :      1.85s CPU      1.96s WALL (     120 calls)

     Called by sum_band:
     sum_band:bec :      0.00s CPU      0.00s WALL (     120 calls)
     addusdens    :      0.17s CPU      0.18s WALL (      12 calls)

     Called by *egterg:
     h_psi        :      1.48s CPU      1.57s WALL (     452 calls)
     s_psi        :      0.05s CPU      0.05s WALL (     452 calls)
     g_psi        :      0.00s CPU      0.00s WALL (     322 calls)
     cdiaghg      :      0.11s CPU      0.11s WALL (     432 calls)

     Called by h_psi:
     h_psi:pot    :      1.47s CPU      1.56s WALL (     452 calls)
     h_psi:calbec :      0.08s CPU      0.08s WALL (     452 calls)
     vloc_psi     :      1.34s CPU      1.43s WALL (     452 calls)
     add_vuspsi   :      0.05s CPU      0.05s WALL (     452 calls)

     General routines
     calbec       :      0.11s CPU      0.12s WALL (     622 calls)
     fft          :      0.07s CPU      0.07s WALL (     159 calls)
     ffts         :      0.00s CPU      0.00s WALL (      12 calls)
     fftw         :      1.49s CPU      1.59s WALL (    7750 calls)

     Parallel routines
     fft_scatt_xy :      0.13s CPU      0.13s WALL (    7921 calls)
     fft_scatt_yz :      0.37s CPU      0.39s WALL (    7921 calls)

     PWSCF        :     5.40s CPU         5.64s WALL


   This run was terminated on:  11: 9:28  26Mar2024            

=------------------------------------------------------------------------------=
   JOB DONE.
=------------------------------------------------------------------------------=
