
     Program PWSCF v.6.3MaX starts on 26Mar2024 at 12:20:35 

     This program is part of the open-source Quantum ESPRESSO suite
     for quantum simulation of materials; please cite
         "P. Giannozzi et al., J. Phys.:Condens. Matter 21 395502 (2009);
         "P. Giannozzi et al., J. Phys.:Condens. Matter 29 465901 (2017);
          URL http://www.quantum-espresso.org", 
     in publications or presentations arising from this work. More details at
     http://www.quantum-espresso.org/quote

     Parallel version (MPI), running on     5 processors

     MPI processes distributed on     1 nodes
     R & G space division:  proc/nbgrp/npool/nimage =       5
     Waiting for input...
     Reading input from standard input

     Current dimensions of program PWSCF are:
     Max number of different atomic species (ntypx) = 10
     Max number of k-points (npk) =  40000
     Max angular momentum in pseudopotentials (lmaxx) =  3

     Subspace diagonalization in iterative solution of the eigenvalue problem:
     a serial algorithm will be used


     Parallelization info
     --------------------
     sticks:   dense  smooth     PW     G-vecs:    dense   smooth      PW
     Min         129     129     39                 2201     2201     361
     Max         130     130     40                 2204     2204     363
     Sum         649     649    199                11017    11017    1807



     bravais-lattice index     =            2
     lattice parameter (alat)  =       7.7100  a.u.
     unit-cell volume          =     114.5785 (a.u.)^3
     number of atoms/cell      =            1
     number of atomic types    =            1
     number of electrons       =        11.00
     number of Kohn-Sham states=           10
     kinetic-energy cutoff     =      80.0000  Ry
     charge density cutoff     =     320.0000  Ry
     convergence threshold     =      1.0E-08
     mixing beta               =       0.7000
     number of iterations used =            8  plain     mixing
     Exchange-correlation      = PBESOL ( 1  4 10  8 0 0)

     celldm(1)=   7.710000  celldm(2)=   0.000000  celldm(3)=   0.000000
     celldm(4)=   0.000000  celldm(5)=   0.000000  celldm(6)=   0.000000

     crystal axes: (cart. coord. in units of alat)
               a(1) = (  -0.500000   0.000000   0.500000 )  
               a(2) = (   0.000000   0.500000   0.500000 )  
               a(3) = (  -0.500000   0.500000   0.000000 )  

     reciprocal axes: (cart. coord. in units 2 pi/alat)
               b(1) = ( -1.000000 -1.000000  1.000000 )  
               b(2) = (  1.000000  1.000000  1.000000 )  
               b(3) = ( -1.000000  1.000000 -1.000000 )  


     PseudoPot. # 1 for Au read from file:
     /home/lorenzo/pseudos/Au/Au.pbesol-n-rrkjus_psl.1.0.0.UPF
     MD5 check sum: 09626e9411213730b9a56fcc59c03ca8
     Pseudo is Ultrasoft + core correction, Zval = 11.0
     Generated using "atomic" code by A. Dal Corso v.6.3
     Using radial grid of 1279 points,  6 beta functions with: 
                l(1) =   0
                l(2) =   0
                l(3) =   1
                l(4) =   1
                l(5) =   2
                l(6) =   2
     Q(r) pseudized with 0 coefficients 


     atomic species   valence    mass     pseudopotential
        Au            11.00   196.96600     Au( 1.00)

     48 Sym. Ops., with inversion, found



   Cartesian axes

     site n.     atom                  positions (alat units)
         1           Au  tau(   1) = (   0.0000000   0.0000000   0.0000000  )

     number of k points=     4  gaussian smearing, width (Ry)=  0.0100
                       cart. coord. in units 2pi/alat
        k(    1) = (   0.0000000   0.0000000   0.0000000), wk =   0.0740741
        k(    2) = (  -0.3333333   0.3333333  -0.3333333), wk =   0.5925926
        k(    3) = (   0.0000000   0.6666667   0.0000000), wk =   0.4444444
        k(    4) = (   0.6666667  -0.0000000   0.6666667), wk =   0.8888889

     Dense  grid:    11017 G-vectors     FFT dimensions: (  32,  32,  32)

     Estimated max dynamical RAM per process >      10.21 MB

     Estimated total dynamical RAM >      51.03 MB

     Initial potential from superposition of free atoms

     starting charge   10.99990, renormalised to   11.00000
     Starting wfcs are    9 randomized atomic wfcs +    1 random wfcs

     total cpu time spent up to now is        1.2 secs

     Self-consistent Calculation

     iteration #  1     ecut=    80.00 Ry     beta= 0.70
     Davidson diagonalization with overlap
     ethr =  1.00E-02,  avg # of iterations =  6.5

     Threshold (ethr) on eigenvalues was too large:
     Diagonalizing with lowered threshold

     Davidson diagonalization with overlap
     ethr =  6.11E-04,  avg # of iterations =  1.5

     total cpu time spent up to now is        1.4 secs

     total energy              =     -85.21732702 Ry
     Harris-Foulkes estimate   =     -85.26086457 Ry
     estimated scf accuracy    <       0.06665612 Ry

     iteration #  2     ecut=    80.00 Ry     beta= 0.70
     Davidson diagonalization with overlap
     ethr =  6.06E-04,  avg # of iterations =  2.8

     negative rho (up, down):  1.656E-02 0.000E+00

     total cpu time spent up to now is        1.6 secs

     total energy              =     -85.28402489 Ry
     Harris-Foulkes estimate   =     -85.24704851 Ry
     estimated scf accuracy    <       0.06896917 Ry

     iteration #  3     ecut=    80.00 Ry     beta= 0.70
     Davidson diagonalization with overlap
     ethr =  6.06E-04,  avg # of iterations =  4.2

     total cpu time spent up to now is        1.7 secs

     total energy              =     -44.77455370 Ry
     Harris-Foulkes estimate   =    -154.02384620 Ry
     estimated scf accuracy    <  200404.91463270 Ry

     iteration #  4     ecut=    80.00 Ry     beta= 0.70
     Davidson diagonalization with overlap
     ethr =  6.06E-04,  avg # of iterations =  5.2

     total cpu time spent up to now is        1.8 secs

     total energy              =     -85.23966244 Ry
     Harris-Foulkes estimate   =     -85.23962911 Ry
     estimated scf accuracy    <       0.02487071 Ry

     iteration #  5     ecut=    80.00 Ry     beta= 0.70
     Davidson diagonalization with overlap
     ethr =  2.26E-04,  avg # of iterations =  1.0

     total cpu time spent up to now is        1.9 secs

     total energy              =     -85.23975654 Ry
     Harris-Foulkes estimate   =     -85.23982460 Ry
     estimated scf accuracy    <       0.02516975 Ry

     iteration #  6     ecut=    80.00 Ry     beta= 0.70
     Davidson diagonalization with overlap
     ethr =  2.26E-04,  avg # of iterations =  1.0

     total cpu time spent up to now is        2.0 secs

     total energy              =     -85.23976683 Ry
     Harris-Foulkes estimate   =     -85.23977492 Ry
     estimated scf accuracy    <       0.02457261 Ry

     iteration #  7     ecut=    80.00 Ry     beta= 0.70
     Davidson diagonalization with overlap
     ethr =  2.23E-04,  avg # of iterations =  2.2

     total cpu time spent up to now is        2.1 secs

     total energy              =     -85.23973526 Ry
     Harris-Foulkes estimate   =     -85.23977350 Ry
     estimated scf accuracy    <       0.02424845 Ry

     iteration #  8     ecut=    80.00 Ry     beta= 0.70
     Davidson diagonalization with overlap
     ethr =  2.20E-04,  avg # of iterations =  1.0

     total cpu time spent up to now is        2.2 secs

     total energy              =     -85.23973794 Ry
     Harris-Foulkes estimate   =     -85.23973651 Ry
     estimated scf accuracy    <       0.02396726 Ry

     iteration #  9     ecut=    80.00 Ry     beta= 0.70
     Davidson diagonalization with overlap
     ethr =  2.18E-04,  avg # of iterations =  1.0

     total cpu time spent up to now is        2.3 secs

     total energy              =     -85.23972312 Ry
     Harris-Foulkes estimate   =     -85.23973824 Ry
     estimated scf accuracy    <       0.02385534 Ry

     iteration # 10     ecut=    80.00 Ry     beta= 0.70
     Davidson diagonalization with overlap
     ethr =  2.17E-04,  avg # of iterations =  1.0

     total cpu time spent up to now is        2.4 secs

     total energy              =     -85.23971565 Ry
     Harris-Foulkes estimate   =     -85.23972330 Ry
     estimated scf accuracy    <       0.02357853 Ry

     iteration # 11     ecut=    80.00 Ry     beta= 0.70
     Davidson diagonalization with overlap
     ethr =  2.14E-04,  avg # of iterations =  1.0

     total cpu time spent up to now is        2.5 secs

     total energy              =     -85.23970856 Ry
     Harris-Foulkes estimate   =     -85.23971573 Ry
     estimated scf accuracy    <       0.02346062 Ry

     iteration # 12     ecut=    80.00 Ry     beta= 0.70
     Davidson diagonalization with overlap
     ethr =  2.13E-04,  avg # of iterations =  1.0

     total cpu time spent up to now is        2.6 secs

     total energy              =     -85.23745379 Ry
     Harris-Foulkes estimate   =     -85.23970862 Ry
     estimated scf accuracy    <       0.02330858 Ry

     iteration # 13     ecut=    80.00 Ry     beta= 0.70
     Davidson diagonalization with overlap
     ethr =  2.12E-04,  avg # of iterations =  4.2

     total cpu time spent up to now is        2.7 secs

     total energy              =     -85.23807704 Ry
     Harris-Foulkes estimate   =     -85.23826880 Ry
     estimated scf accuracy    <       0.00252174 Ry

     iteration # 14     ecut=    80.00 Ry     beta= 0.70
     Davidson diagonalization with overlap
     ethr =  2.29E-05,  avg # of iterations =  3.2

     total cpu time spent up to now is        2.8 secs

     total energy              =     -85.23814827 Ry
     Harris-Foulkes estimate   =     -85.23815323 Ry
     estimated scf accuracy    <       0.00090963 Ry

     iteration # 15     ecut=    80.00 Ry     beta= 0.70
     Davidson diagonalization with overlap
     ethr =  8.27E-06,  avg # of iterations =  1.2

     total cpu time spent up to now is        2.9 secs

     total energy              =     -85.23814131 Ry
     Harris-Foulkes estimate   =     -85.23816307 Ry
     estimated scf accuracy    <       0.00059570 Ry

     iteration # 16     ecut=    80.00 Ry     beta= 0.70
     Davidson diagonalization with overlap
     ethr =  5.42E-06,  avg # of iterations =  1.2

     total cpu time spent up to now is        3.0 secs

     total energy              =     -85.23815383 Ry
     Harris-Foulkes estimate   =     -85.23815043 Ry
     estimated scf accuracy    <       0.00032282 Ry

     iteration # 17     ecut=    80.00 Ry     beta= 0.70
     Davidson diagonalization with overlap
     ethr =  2.93E-06,  avg # of iterations =  1.0

     total cpu time spent up to now is        3.1 secs

     total energy              =     -85.23815839 Ry
     Harris-Foulkes estimate   =     -85.23815620 Ry
     estimated scf accuracy    <       0.00028484 Ry

     iteration # 18     ecut=    80.00 Ry     beta= 0.70
     Davidson diagonalization with overlap
     ethr =  2.59E-06,  avg # of iterations =  1.0

     total cpu time spent up to now is        3.2 secs

     total energy              =     -85.23807969 Ry
     Harris-Foulkes estimate   =     -85.23815905 Ry
     estimated scf accuracy    <       0.00025765 Ry

     iteration # 19     ecut=    80.00 Ry     beta= 0.70
     Davidson diagonalization with overlap
     ethr =  2.34E-06,  avg # of iterations =  2.8

     total cpu time spent up to now is        3.3 secs

     total energy              =     -85.23809053 Ry
     Harris-Foulkes estimate   =     -85.23818476 Ry
     estimated scf accuracy    <       0.00053663 Ry

     iteration # 20     ecut=    80.00 Ry     beta= 0.70
     Davidson diagonalization with overlap
     ethr =  2.34E-06,  avg # of iterations =  2.5

     total cpu time spent up to now is        3.4 secs

     total energy              =     -85.23814746 Ry
     Harris-Foulkes estimate   =     -85.23814728 Ry
     estimated scf accuracy    <       0.00002695 Ry

     iteration # 21     ecut=    80.00 Ry     beta= 0.70
     Davidson diagonalization with overlap
     ethr =  2.45E-07,  avg # of iterations =  1.2

     total cpu time spent up to now is        3.5 secs

     total energy              =     -85.23814780 Ry
     Harris-Foulkes estimate   =     -85.23814783 Ry
     estimated scf accuracy    <       0.00002840 Ry

     iteration # 22     ecut=    80.00 Ry     beta= 0.70
     Davidson diagonalization with overlap
     ethr =  2.45E-07,  avg # of iterations =  1.0

     total cpu time spent up to now is        3.6 secs

     total energy              =     -85.23814753 Ry
     Harris-Foulkes estimate   =     -85.23814788 Ry
     estimated scf accuracy    <       0.00002934 Ry

     iteration # 23     ecut=    80.00 Ry     beta= 0.70
     Davidson diagonalization with overlap
     ethr =  2.45E-07,  avg # of iterations =  1.0

     total cpu time spent up to now is        3.7 secs

     total energy              =     -85.23814523 Ry
     Harris-Foulkes estimate   =     -85.23814759 Ry
     estimated scf accuracy    <       0.00002811 Ry

     iteration # 24     ecut=    80.00 Ry     beta= 0.70
     Davidson diagonalization with overlap
     ethr =  2.45E-07,  avg # of iterations =  1.0

     total cpu time spent up to now is        3.8 secs

     total energy              =     -85.23814532 Ry
     Harris-Foulkes estimate   =     -85.23814590 Ry
     estimated scf accuracy    <       0.00000645 Ry

     iteration # 25     ecut=    80.00 Ry     beta= 0.70
     Davidson diagonalization with overlap
     ethr =  5.86E-08,  avg # of iterations =  1.0

     total cpu time spent up to now is        3.8 secs

     total energy              =     -85.23814482 Ry
     Harris-Foulkes estimate   =     -85.23814555 Ry
     estimated scf accuracy    <       0.00000246 Ry

     iteration # 26     ecut=    80.00 Ry     beta= 0.70
     Davidson diagonalization with overlap
     ethr =  2.24E-08,  avg # of iterations =  3.5

     total cpu time spent up to now is        3.9 secs

     total energy              =     -85.23814482 Ry
     Harris-Foulkes estimate   =     -85.23814641 Ry
     estimated scf accuracy    <       0.00001020 Ry

     iteration # 27     ecut=    80.00 Ry     beta= 0.70
     Davidson diagonalization with overlap
     ethr =  2.24E-08,  avg # of iterations =  2.0

     total cpu time spent up to now is        4.0 secs

     total energy              =     -85.23814573 Ry
     Harris-Foulkes estimate   =     -85.23814577 Ry
     estimated scf accuracy    <       0.00000026 Ry

     iteration # 28     ecut=    80.00 Ry     beta= 0.70
     Davidson diagonalization with overlap
     ethr =  2.39E-09,  avg # of iterations =  1.2

     total cpu time spent up to now is        4.1 secs

     total energy              =     -85.23814573 Ry
     Harris-Foulkes estimate   =     -85.23814575 Ry
     estimated scf accuracy    <       0.00000007 Ry

     iteration # 29     ecut=    80.00 Ry     beta= 0.70
     Davidson diagonalization with overlap
     ethr =  6.47E-10,  avg # of iterations =  3.2

     total cpu time spent up to now is        4.2 secs

     total energy              =     -85.23814576 Ry
     Harris-Foulkes estimate   =     -85.23814577 Ry
     estimated scf accuracy    <       0.00000017 Ry

     iteration # 30     ecut=    80.00 Ry     beta= 0.70
     Davidson diagonalization with overlap
     ethr =  6.47E-10,  avg # of iterations =  1.0

     total cpu time spent up to now is        4.3 secs

     total energy              =     -85.23814575 Ry
     Harris-Foulkes estimate   =     -85.23814576 Ry
     estimated scf accuracy    <       0.00000009 Ry

     iteration # 31     ecut=    80.00 Ry     beta= 0.70
     Davidson diagonalization with overlap
     ethr =  6.47E-10,  avg # of iterations =  1.8

     total cpu time spent up to now is        4.4 secs

     End of self-consistent calculation

          k = 0.0000 0.0000 0.0000 (  1411 PWs)   bands (ev):

     5.8304  11.0736  11.0736  11.0736  12.5999  12.5999  31.1540  34.9935
    34.9935  34.9935

          k =-0.3333 0.3333-0.3333 (  1399 PWs)   bands (ev):

     8.2513  11.2243  11.2243  11.7794  13.2241  13.2241  23.7043  31.3284
    34.9176  34.9176

          k = 0.0000 0.6667 0.0000 (  1379 PWs)   bands (ev):

     8.8648   9.4501  12.7339  13.1242  13.1242  13.4548  27.9290  28.3744
    28.3744  32.3543

          k = 0.6667-0.0000 0.6667 (  1382 PWs)   bands (ev):

     9.5831  10.3885  11.2672  12.4881  13.3782  18.2342  22.2468  22.9066
    30.1697  33.0929

     the Fermi energy is    13.5468 ev

!    total energy              =     -85.23814576 Ry
     Harris-Foulkes estimate   =     -85.23814576 Ry
     estimated scf accuracy    <          1.2E-09 Ry

     The total energy is the sum of the following terms:

     one-electron contribution =      11.01432314 Ry
     hartree contribution      =       7.49320670 Ry
     xc contribution           =     -31.78994528 Ry
     ewald contribution        =     -71.95438534 Ry
     smearing contrib. (-TS)   =      -0.00134498 Ry

     convergence has been achieved in  31 iterations

     Forces acting on atoms (cartesian axes, Ry/au):

     atom    1 type  1   force =     0.00000000    0.00000000    0.00000000

     Total force =     0.000000     Total SCF correction =     0.000000


     Computing stress (Cartesian axis) and pressure

          total   stress  (Ry/bohr**3)                   (kbar)     P=  -44.51
  -0.00030254  -0.00000000   0.00000000        -44.51     -0.00      0.00
  -0.00000000  -0.00030254   0.00000000         -0.00    -44.51      0.00
   0.00000000  -0.00000000  -0.00030254          0.00     -0.00    -44.51


     Writing output data file Au.save/

     init_run     :      0.32s CPU      0.33s WALL (       1 calls)
     electrons    :      3.03s CPU      3.18s WALL (       1 calls)
     forces       :      0.04s CPU      0.04s WALL (       1 calls)
     stress       :      0.13s CPU      0.13s WALL (       1 calls)

     Called by init_run:
     wfcinit      :      0.04s CPU      0.04s WALL (       1 calls)
     potinit      :      0.02s CPU      0.02s WALL (       1 calls)
     hinit0       :      0.23s CPU      0.23s WALL (       1 calls)

     Called by electrons:
     c_bands      :      1.60s CPU      1.70s WALL (      32 calls)
     sum_band     :      0.77s CPU      0.80s WALL (      32 calls)
     v_of_rho     :      0.23s CPU      0.24s WALL (      32 calls)
     newd         :      0.39s CPU      0.40s WALL (      32 calls)
     mix_rho      :      0.04s CPU      0.04s WALL (      32 calls)

     Called by c_bands:
     init_us_2    :      0.05s CPU      0.06s WALL (     268 calls)
     cegterg      :      1.51s CPU      1.61s WALL (     128 calls)

     Called by sum_band:
     sum_band:bec :      0.00s CPU      0.00s WALL (     128 calls)
     addusdens    :      0.35s CPU      0.35s WALL (      32 calls)

     Called by *egterg:
     h_psi        :      1.17s CPU      1.26s WALL (     391 calls)
     s_psi        :      0.03s CPU      0.04s WALL (     391 calls)
     g_psi        :      0.00s CPU      0.00s WALL (     259 calls)
     cdiaghg      :      0.11s CPU      0.11s WALL (     383 calls)

     Called by h_psi:
     h_psi:pot    :      1.16s CPU      1.25s WALL (     391 calls)
     h_psi:calbec :      0.07s CPU      0.08s WALL (     391 calls)
     vloc_psi     :      1.05s CPU      1.13s WALL (     391 calls)
     add_vuspsi   :      0.04s CPU      0.04s WALL (     391 calls)

     General routines
     calbec       :      0.11s CPU      0.12s WALL (     539 calls)
     fft          :      0.12s CPU      0.13s WALL (     379 calls)
     ffts         :      0.01s CPU      0.01s WALL (      32 calls)
     fftw         :      1.21s CPU      1.30s WALL (    7370 calls)

     Parallel routines
     fft_scatt_xy :      0.10s CPU      0.11s WALL (    7781 calls)
     fft_scatt_yz :      0.63s CPU      0.67s WALL (    7781 calls)

     PWSCF        :     4.40s CPU         4.60s WALL


   This run was terminated on:  12:20:40  26Mar2024            

=------------------------------------------------------------------------------=
   JOB DONE.
=------------------------------------------------------------------------------=
