
     Program PWSCF v.6.3MaX starts on 26Mar2024 at 11:47:32 

     This program is part of the open-source Quantum ESPRESSO suite
     for quantum simulation of materials; please cite
         "P. Giannozzi et al., J. Phys.:Condens. Matter 21 395502 (2009);
         "P. Giannozzi et al., J. Phys.:Condens. Matter 29 465901 (2017);
          URL http://www.quantum-espresso.org", 
     in publications or presentations arising from this work. More details at
     http://www.quantum-espresso.org/quote

     Parallel version (MPI), running on     5 processors

     MPI processes distributed on     1 nodes
     R & G space division:  proc/nbgrp/npool/nimage =       5
     Waiting for input...
     Reading input from standard input

     Current dimensions of program PWSCF are:
     Max number of different atomic species (ntypx) = 10
     Max number of k-points (npk) =  40000
     Max angular momentum in pseudopotentials (lmaxx) =  3
               file Au.pbesol-n-kjpaw_psl.1.0.0.UPF: wavefunction(s)  6S 5D renormalized

     Subspace diagonalization in iterative solution of the eigenvalue problem:
     a serial algorithm will be used


     Parallelization info
     --------------------
     sticks:   dense  smooth     PW     G-vecs:    dense   smooth      PW
     Min          89      89     27                 1260     1260     213
     Max          92      92     28                 1261     1261     214
     Sum         451     451    139                 6303     6303    1067



     bravais-lattice index     =            2
     lattice parameter (alat)  =       7.7100  a.u.
     unit-cell volume          =     114.5785 (a.u.)^3
     number of atoms/cell      =            1
     number of atomic types    =            1
     number of electrons       =        11.00
     number of Kohn-Sham states=           10
     kinetic-energy cutoff     =      55.0000  Ry
     charge density cutoff     =     220.0000  Ry
     convergence threshold     =      1.0E-08
     mixing beta               =       0.7000
     number of iterations used =            8  plain     mixing
     Exchange-correlation      = SLA PW PSX PSC ( 1  4 10  8 0 0)

     celldm(1)=   7.710000  celldm(2)=   0.000000  celldm(3)=   0.000000
     celldm(4)=   0.000000  celldm(5)=   0.000000  celldm(6)=   0.000000

     crystal axes: (cart. coord. in units of alat)
               a(1) = (  -0.500000   0.000000   0.500000 )  
               a(2) = (   0.000000   0.500000   0.500000 )  
               a(3) = (  -0.500000   0.500000   0.000000 )  

     reciprocal axes: (cart. coord. in units 2 pi/alat)
               b(1) = ( -1.000000 -1.000000  1.000000 )  
               b(2) = (  1.000000  1.000000  1.000000 )  
               b(3) = ( -1.000000  1.000000 -1.000000 )  


     PseudoPot. # 1 for Au read from file:
     /home/lorenzo/pseudos/Au/Au.pbesol-n-kjpaw_psl.1.0.0.UPF
     MD5 check sum: abc371be705c47a6b6a6b4088b452d3e
     Pseudo is Projector augmented-wave + core cor, Zval = 11.0
     Generated using "atomic" code by A. Dal Corso v.6.3
     Shape of augmentation charge: PSQ
     Using radial grid of 1279 points,  6 beta functions with: 
                l(1) =   0
                l(2) =   0
                l(3) =   1
                l(4) =   1
                l(5) =   2
                l(6) =   2
     Q(r) pseudized with 0 coefficients 


     atomic species   valence    mass     pseudopotential
        Au            11.00   196.96600     Au( 1.00)

     48 Sym. Ops., with inversion, found



   Cartesian axes

     site n.     atom                  positions (alat units)
         1           Au  tau(   1) = (   0.0000000   0.0000000   0.0000000  )

     number of k points=     3  gaussian smearing, width (Ry)=  0.0100
                       cart. coord. in units 2pi/alat
        k(    1) = (   0.0000000   0.0000000   0.0000000), wk =   0.2500000
        k(    2) = (   0.5000000  -0.5000000   0.5000000), wk =   1.0000000
        k(    3) = (   0.0000000  -1.0000000   0.0000000), wk =   0.7500000

     Dense  grid:     6303 G-vectors     FFT dimensions: (  25,  25,  25)

     Estimated max dynamical RAM per process >       6.21 MB

     Estimated total dynamical RAM >      31.03 MB

     Initial potential from superposition of free atoms

     starting charge   10.99990, renormalised to   11.00000
     Starting wfcs are    9 randomized atomic wfcs +    1 random wfcs
     Checking if some PAW data can be deallocated... 

     total cpu time spent up to now is        1.3 secs

     Self-consistent Calculation

     iteration #  1     ecut=    55.00 Ry     beta= 0.70
     Davidson diagonalization with overlap
     ethr =  1.00E-02,  avg # of iterations =  8.3

     Threshold (ethr) on eigenvalues was too large:
     Diagonalizing with lowered threshold

     Davidson diagonalization with overlap
     ethr =  4.09E-04,  avg # of iterations =  1.7

     total cpu time spent up to now is        1.6 secs

     total energy              =    -764.44257840 Ry
     Harris-Foulkes estimate   =    -764.44252644 Ry
     estimated scf accuracy    <       0.04706368 Ry

     iteration #  2     ecut=    55.00 Ry     beta= 0.70
     Davidson diagonalization with overlap
     ethr =  4.28E-04,  avg # of iterations =  5.0

     total cpu time spent up to now is        1.8 secs

     total energy              =    -710.42270955 Ry
     Harris-Foulkes estimate   =   -1012.31162907 Ry
     estimated scf accuracy    <  199060.47844528 Ry

     iteration #  3     ecut=    55.00 Ry     beta= 0.70
     Davidson diagonalization with overlap
     ethr =  4.28E-04,  avg # of iterations = 12.0

     total cpu time spent up to now is        2.0 secs

     total energy              =    -764.42935565 Ry
     Harris-Foulkes estimate   =    -764.44473827 Ry
     estimated scf accuracy    <       0.04231446 Ry

     iteration #  4     ecut=    55.00 Ry     beta= 0.70
     Davidson diagonalization with overlap
     ethr =  3.85E-04,  avg # of iterations =  1.0

     total cpu time spent up to now is        2.2 secs

     total energy              =    -764.43044372 Ry
     Harris-Foulkes estimate   =    -764.43228832 Ry
     estimated scf accuracy    <       0.01130308 Ry

     iteration #  5     ecut=    55.00 Ry     beta= 0.70
     Davidson diagonalization with overlap
     ethr =  1.03E-04,  avg # of iterations =  2.0

     total cpu time spent up to now is        2.3 secs

     total energy              =    -764.43014042 Ry
     Harris-Foulkes estimate   =    -764.43468625 Ry
     estimated scf accuracy    <       0.01908329 Ry

     iteration #  6     ecut=    55.00 Ry     beta= 0.70
     Davidson diagonalization with overlap
     ethr =  1.03E-04,  avg # of iterations =  1.0

     total cpu time spent up to now is        2.5 secs

     total energy              =    -764.43258122 Ry
     Harris-Foulkes estimate   =    -764.43269891 Ry
     estimated scf accuracy    <       0.01025665 Ry

     iteration #  7     ecut=    55.00 Ry     beta= 0.70
     Davidson diagonalization with overlap
     ethr =  9.32E-05,  avg # of iterations =  1.0

     total cpu time spent up to now is        2.7 secs

     total energy              =    -764.43262026 Ry
     Harris-Foulkes estimate   =    -764.43265391 Ry
     estimated scf accuracy    <       0.00956360 Ry

     iteration #  8     ecut=    55.00 Ry     beta= 0.70
     Davidson diagonalization with overlap
     ethr =  8.69E-05,  avg # of iterations =  1.0

     total cpu time spent up to now is        2.9 secs

     total energy              =    -764.43258347 Ry
     Harris-Foulkes estimate   =    -764.43264620 Ry
     estimated scf accuracy    <       0.00916678 Ry

     iteration #  9     ecut=    55.00 Ry     beta= 0.70
     Davidson diagonalization with overlap
     ethr =  8.33E-05,  avg # of iterations =  1.0

     total cpu time spent up to now is        3.1 secs

     total energy              =    -764.43261249 Ry
     Harris-Foulkes estimate   =    -764.43262310 Ry
     estimated scf accuracy    <       0.00842400 Ry

     iteration # 10     ecut=    55.00 Ry     beta= 0.70
     Davidson diagonalization with overlap
     ethr =  7.66E-05,  avg # of iterations =  1.0

     total cpu time spent up to now is        3.3 secs

     total energy              =    -764.43261658 Ry
     Harris-Foulkes estimate   =    -764.43262315 Ry
     estimated scf accuracy    <       0.00840544 Ry

     iteration # 11     ecut=    55.00 Ry     beta= 0.70
     Davidson diagonalization with overlap
     ethr =  7.64E-05,  avg # of iterations =  1.0

     total cpu time spent up to now is        3.5 secs

     total energy              =    -764.43234457 Ry
     Harris-Foulkes estimate   =    -764.43261904 Ry
     estimated scf accuracy    <       0.00819928 Ry

     iteration # 12     ecut=    55.00 Ry     beta= 0.70
     Davidson diagonalization with overlap
     ethr =  7.45E-05,  avg # of iterations =  1.7

     total cpu time spent up to now is        3.6 secs

     total energy              =    -764.43319782 Ry
     Harris-Foulkes estimate   =    -764.43324088 Ry
     estimated scf accuracy    <       0.00676514 Ry

     iteration # 13     ecut=    55.00 Ry     beta= 0.70
     Davidson diagonalization with overlap
     ethr =  6.15E-05,  avg # of iterations =  1.0

     total cpu time spent up to now is        3.8 secs

     total energy              =    -764.43222975 Ry
     Harris-Foulkes estimate   =    -764.43322740 Ry
     estimated scf accuracy    <       0.00611766 Ry

     iteration # 14     ecut=    55.00 Ry     beta= 0.70
     Davidson diagonalization with overlap
     ethr =  5.56E-05,  avg # of iterations =  1.0

     total cpu time spent up to now is        3.9 secs

     total energy              =    -764.43221131 Ry
     Harris-Foulkes estimate   =    -764.43246199 Ry
     estimated scf accuracy    <       0.00117981 Ry

     iteration # 15     ecut=    55.00 Ry     beta= 0.70
     Davidson diagonalization with overlap
     ethr =  1.07E-05,  avg # of iterations =  3.3

     total cpu time spent up to now is        4.1 secs

     total energy              =    -764.43228510 Ry
     Harris-Foulkes estimate   =    -764.43230337 Ry
     estimated scf accuracy    <       0.00022026 Ry

     iteration # 16     ecut=    55.00 Ry     beta= 0.70
     Davidson diagonalization with overlap
     ethr =  2.00E-06,  avg # of iterations =  2.7

     total cpu time spent up to now is        4.3 secs

     total energy              =    -764.43231857 Ry
     Harris-Foulkes estimate   =    -764.43231200 Ry
     estimated scf accuracy    <       0.00031160 Ry

     iteration # 17     ecut=    55.00 Ry     beta= 0.70
     Davidson diagonalization with overlap
     ethr =  2.00E-06,  avg # of iterations =  1.0

     total cpu time spent up to now is        4.4 secs

     total energy              =    -764.43231995 Ry
     Harris-Foulkes estimate   =    -764.43232699 Ry
     estimated scf accuracy    <       0.00032476 Ry

     iteration # 18     ecut=    55.00 Ry     beta= 0.70
     Davidson diagonalization with overlap
     ethr =  2.00E-06,  avg # of iterations =  1.3

     total cpu time spent up to now is        4.6 secs

     total energy              =    -764.43232030 Ry
     Harris-Foulkes estimate   =    -764.43232789 Ry
     estimated scf accuracy    <       0.00018092 Ry

     iteration # 19     ecut=    55.00 Ry     beta= 0.70
     Davidson diagonalization with overlap
     ethr =  1.64E-06,  avg # of iterations =  1.7

     total cpu time spent up to now is        4.7 secs

     total energy              =    -764.43235004 Ry
     Harris-Foulkes estimate   =    -764.43236539 Ry
     estimated scf accuracy    <       0.00050695 Ry

     iteration # 20     ecut=    55.00 Ry     beta= 0.70
     Davidson diagonalization with overlap
     ethr =  1.64E-06,  avg # of iterations =  1.3

     total cpu time spent up to now is        4.9 secs

     total energy              =    -764.43234982 Ry
     Harris-Foulkes estimate   =    -764.43235286 Ry
     estimated scf accuracy    <       0.00034954 Ry

     iteration # 21     ecut=    55.00 Ry     beta= 0.70
     Davidson diagonalization with overlap
     ethr =  1.64E-06,  avg # of iterations =  1.0

     total cpu time spent up to now is        5.0 secs

     total energy              =    -764.43232340 Ry
     Harris-Foulkes estimate   =    -764.43235077 Ry
     estimated scf accuracy    <       0.00028313 Ry

     iteration # 22     ecut=    55.00 Ry     beta= 0.70
     Davidson diagonalization with overlap
     ethr =  1.64E-06,  avg # of iterations =  2.0

     total cpu time spent up to now is        5.2 secs

     total energy              =    -764.43234803 Ry
     Harris-Foulkes estimate   =    -764.43234823 Ry
     estimated scf accuracy    <       0.00009070 Ry

     iteration # 23     ecut=    55.00 Ry     beta= 0.70
     Davidson diagonalization with overlap
     ethr =  8.25E-07,  avg # of iterations =  1.0

     total cpu time spent up to now is        5.3 secs

     total energy              =    -764.43234148 Ry
     Harris-Foulkes estimate   =    -764.43234881 Ry
     estimated scf accuracy    <       0.00009019 Ry

     iteration # 24     ecut=    55.00 Ry     beta= 0.70
     Davidson diagonalization with overlap
     ethr =  8.20E-07,  avg # of iterations =  1.3

     total cpu time spent up to now is        5.5 secs

     total energy              =    -764.43234441 Ry
     Harris-Foulkes estimate   =    -764.43234498 Ry
     estimated scf accuracy    <       0.00000135 Ry

     iteration # 25     ecut=    55.00 Ry     beta= 0.70
     Davidson diagonalization with overlap
     ethr =  1.23E-08,  avg # of iterations =  4.0

     total cpu time spent up to now is        5.6 secs

     total energy              =    -764.43235245 Ry
     Harris-Foulkes estimate   =    -764.43235401 Ry
     estimated scf accuracy    <       0.00024586 Ry

     iteration # 26     ecut=    55.00 Ry     beta= 0.70
     Davidson diagonalization with overlap
     ethr =  1.23E-08,  avg # of iterations =  1.3

     total cpu time spent up to now is        5.8 secs

     total energy              =    -764.43230262 Ry
     Harris-Foulkes estimate   =    -764.43235251 Ry
     estimated scf accuracy    <       0.00021368 Ry

     iteration # 27     ecut=    55.00 Ry     beta= 0.70
     Davidson diagonalization with overlap
     ethr =  1.23E-08,  avg # of iterations =  3.7

     total cpu time spent up to now is        6.0 secs

     total energy              =    -764.43229903 Ry
     Harris-Foulkes estimate   =    -764.43238995 Ry
     estimated scf accuracy    <       0.00135449 Ry

     iteration # 28     ecut=    55.00 Ry     beta= 0.70
     Davidson diagonalization with overlap
     ethr =  1.23E-08,  avg # of iterations =  3.3

     total cpu time spent up to now is        6.2 secs

     total energy              =    -764.43234548 Ry
     Harris-Foulkes estimate   =    -764.43234547 Ry
     estimated scf accuracy    <       0.00000023 Ry

     iteration # 29     ecut=    55.00 Ry     beta= 0.70
     Davidson diagonalization with overlap
     ethr =  2.13E-09,  avg # of iterations =  1.0

     total cpu time spent up to now is        6.3 secs

     total energy              =    -764.43234550 Ry
     Harris-Foulkes estimate   =    -764.43234548 Ry
     estimated scf accuracy    <       0.00000038 Ry

     iteration # 30     ecut=    55.00 Ry     beta= 0.70
     Davidson diagonalization with overlap
     ethr =  2.13E-09,  avg # of iterations =  1.0

     total cpu time spent up to now is        6.5 secs

     total energy              =    -764.43234550 Ry
     Harris-Foulkes estimate   =    -764.43234551 Ry
     estimated scf accuracy    <       0.00000103 Ry

     iteration # 31     ecut=    55.00 Ry     beta= 0.70
     Davidson diagonalization with overlap
     ethr =  2.13E-09,  avg # of iterations =  1.0

     total cpu time spent up to now is        6.7 secs

     total energy              =    -764.43234548 Ry
     Harris-Foulkes estimate   =    -764.43234550 Ry
     estimated scf accuracy    <       0.00000100 Ry

     iteration # 32     ecut=    55.00 Ry     beta= 0.70
     Davidson diagonalization with overlap
     ethr =  2.13E-09,  avg # of iterations =  1.0

     total cpu time spent up to now is        6.8 secs

     total energy              =    -764.43234545 Ry
     Harris-Foulkes estimate   =    -764.43234549 Ry
     estimated scf accuracy    <       0.00000065 Ry

     iteration # 33     ecut=    55.00 Ry     beta= 0.70
     Davidson diagonalization with overlap
     ethr =  2.13E-09,  avg # of iterations =  1.7

     total cpu time spent up to now is        7.0 secs

     End of self-consistent calculation

          k = 0.0000 0.0000 0.0000 (   749 PWs)   bands (ev):

     5.8304  11.4611  11.4611  11.4611  13.0912  13.0912  31.0251  35.0162
    35.0162  35.0162

          k = 0.5000-0.5000 0.5000 (   796 PWs)   bands (ev):

     8.6186  11.4376  11.4376  14.3212  14.3212  14.7402  19.1783  30.3435
    33.3954  33.3954

          k = 0.0000-1.0000 0.0000 (   790 PWs)   bands (ev):

     8.9313   9.2942  14.2950  14.6471  14.6471  16.7466  21.7420  25.9887
    25.9887  32.8362

     the Fermi energy is    14.8218 ev

!    total energy              =    -764.43234548 Ry
     Harris-Foulkes estimate   =    -764.43234547 Ry
     estimated scf accuracy    <          6.0E-09 Ry

     total all-electron energy =    -38013.266808 Ry

     The total energy is the sum of the following terms:

     one-electron contribution =      13.99065188 Ry
     hartree contribution      =       7.85774798 Ry
     xc contribution           =     -31.93786052 Ry
     ewald contribution        =     -71.95438542 Ry
     one-center paw contrib.   =    -682.38571829 Ry
     smearing contrib. (-TS)   =      -0.00278110 Ry

     convergence has been achieved in  33 iterations

     Forces acting on atoms (cartesian axes, Ry/au):

     atom    1 type  1   force =     0.00000000    0.00000000    0.00000000

     Total force =     0.000000     Total SCF correction =     0.000000


     Computing stress (Cartesian axis) and pressure

          total   stress  (Ry/bohr**3)                   (kbar)     P=  493.92
   0.00335762  -0.00000000  -0.00000000        493.92     -0.00     -0.00
  -0.00000000   0.00335762   0.00000000         -0.00    493.92      0.00
  -0.00000000   0.00000000   0.00335762         -0.00      0.00    493.92


     Writing output data file Au.save/

     init_run     :      0.30s CPU      0.32s WALL (       1 calls)
     electrons    :      5.15s CPU      5.65s WALL (       1 calls)
     forces       :      0.02s CPU      0.02s WALL (       1 calls)
     stress       :      0.07s CPU      0.07s WALL (       1 calls)

     Called by init_run:
     wfcinit      :      0.01s CPU      0.01s WALL (       1 calls)
     potinit      :      0.12s CPU      0.13s WALL (       1 calls)
     hinit0       :      0.16s CPU      0.16s WALL (       1 calls)

     Called by electrons:
     c_bands      :      0.72s CPU      0.76s WALL (      34 calls)
     sum_band     :      0.41s CPU      0.42s WALL (      34 calls)
     v_of_rho     :      0.13s CPU      0.13s WALL (      34 calls)
     newd         :      0.23s CPU      0.26s WALL (      34 calls)
     PAW_pot      :      3.73s CPU      4.14s WALL (      34 calls)
     mix_rho      :      0.03s CPU      0.03s WALL (      34 calls)

     Called by c_bands:
     init_us_2    :      0.03s CPU      0.03s WALL (     213 calls)
     cegterg      :      0.69s CPU      0.72s WALL (     102 calls)

     Called by sum_band:
     sum_band:bec :      0.00s CPU      0.00s WALL (     102 calls)
     addusdens    :      0.21s CPU      0.21s WALL (      34 calls)

     Called by *egterg:
     h_psi        :      0.51s CPU      0.53s WALL (     328 calls)
     s_psi        :      0.02s CPU      0.02s WALL (     328 calls)
     g_psi        :      0.00s CPU      0.00s WALL (     223 calls)
     cdiaghg      :      0.07s CPU      0.07s WALL (     322 calls)

     Called by h_psi:
     h_psi:pot    :      0.51s CPU      0.53s WALL (     328 calls)
     h_psi:calbec :      0.03s CPU      0.03s WALL (     328 calls)
     vloc_psi     :      0.46s CPU      0.48s WALL (     328 calls)
     add_vuspsi   :      0.02s CPU      0.02s WALL (     328 calls)

     General routines
     calbec       :      0.04s CPU      0.04s WALL (     445 calls)
     fft          :      0.09s CPU      0.09s WALL (     401 calls)
     ffts         :      0.00s CPU      0.01s WALL (      34 calls)
     fftw         :      0.53s CPU      0.56s WALL (    5914 calls)

     Parallel routines
     fft_scatt_xy :      0.05s CPU      0.05s WALL (    6349 calls)
     fft_scatt_yz :      0.22s CPU      0.23s WALL (    6349 calls)

     PWSCF        :     6.55s CPU         7.10s WALL


   This run was terminated on:  11:47:39  26Mar2024            

=------------------------------------------------------------------------------=
   JOB DONE.
=------------------------------------------------------------------------------=
