
     Program PWSCF v.6.3MaX starts on 26Mar2024 at 12: 1:27 

     This program is part of the open-source Quantum ESPRESSO suite
     for quantum simulation of materials; please cite
         "P. Giannozzi et al., J. Phys.:Condens. Matter 21 395502 (2009);
         "P. Giannozzi et al., J. Phys.:Condens. Matter 29 465901 (2017);
          URL http://www.quantum-espresso.org", 
     in publications or presentations arising from this work. More details at
     http://www.quantum-espresso.org/quote

     Parallel version (MPI), running on     5 processors

     MPI processes distributed on     1 nodes
     R & G space division:  proc/nbgrp/npool/nimage =       5
     Waiting for input...
     Reading input from standard input

     Current dimensions of program PWSCF are:
     Max number of different atomic species (ntypx) = 10
     Max number of k-points (npk) =  40000
     Max angular momentum in pseudopotentials (lmaxx) =  3
               file Au.pbesol-n-kjpaw_psl.1.0.0.UPF: wavefunction(s)  6S 5D renormalized

     Subspace diagonalization in iterative solution of the eigenvalue problem:
     a serial algorithm will be used


     Parallelization info
     --------------------
     sticks:   dense  smooth     PW     G-vecs:    dense   smooth      PW
     Min         103     103     32                 1597     1597     290
     Max         104     104     33                 1600     1600     293
     Sum         517     517    163                 7991     7991    1459



     bravais-lattice index     =            2
     lattice parameter (alat)  =       7.7100  a.u.
     unit-cell volume          =     114.5785 (a.u.)^3
     number of atoms/cell      =            1
     number of atomic types    =            1
     number of electrons       =        11.00
     number of Kohn-Sham states=           10
     kinetic-energy cutoff     =      65.0000  Ry
     charge density cutoff     =     260.0000  Ry
     convergence threshold     =      1.0E-08
     mixing beta               =       0.7000
     number of iterations used =            8  plain     mixing
     Exchange-correlation      = SLA PW PSX PSC ( 1  4 10  8 0 0)

     celldm(1)=   7.710000  celldm(2)=   0.000000  celldm(3)=   0.000000
     celldm(4)=   0.000000  celldm(5)=   0.000000  celldm(6)=   0.000000

     crystal axes: (cart. coord. in units of alat)
               a(1) = (  -0.500000   0.000000   0.500000 )  
               a(2) = (   0.000000   0.500000   0.500000 )  
               a(3) = (  -0.500000   0.500000   0.000000 )  

     reciprocal axes: (cart. coord. in units 2 pi/alat)
               b(1) = ( -1.000000 -1.000000  1.000000 )  
               b(2) = (  1.000000  1.000000  1.000000 )  
               b(3) = ( -1.000000  1.000000 -1.000000 )  


     PseudoPot. # 1 for Au read from file:
     /home/lorenzo/pseudos/Au/Au.pbesol-n-kjpaw_psl.1.0.0.UPF
     MD5 check sum: abc371be705c47a6b6a6b4088b452d3e
     Pseudo is Projector augmented-wave + core cor, Zval = 11.0
     Generated using "atomic" code by A. Dal Corso v.6.3
     Shape of augmentation charge: PSQ
     Using radial grid of 1279 points,  6 beta functions with: 
                l(1) =   0
                l(2) =   0
                l(3) =   1
                l(4) =   1
                l(5) =   2
                l(6) =   2
     Q(r) pseudized with 0 coefficients 


     atomic species   valence    mass     pseudopotential
        Au            11.00   196.96600     Au( 1.00)

     48 Sym. Ops., with inversion, found



   Cartesian axes

     site n.     atom                  positions (alat units)
         1           Au  tau(   1) = (   0.0000000   0.0000000   0.0000000  )

     number of k points=    20  gaussian smearing, width (Ry)=  0.0100
                       cart. coord. in units 2pi/alat
        k(    1) = (   0.0000000   0.0000000   0.0000000), wk =   0.0058309
        k(    2) = (  -0.1428571   0.1428571  -0.1428571), wk =   0.0466472
        k(    3) = (  -0.2857143   0.2857143  -0.2857143), wk =   0.0466472
        k(    4) = (  -0.4285714   0.4285714  -0.4285714), wk =   0.0466472
        k(    5) = (   0.0000000   0.2857143   0.0000000), wk =   0.0349854
        k(    6) = (  -0.1428571   0.4285714  -0.1428571), wk =   0.1399417
        k(    7) = (  -0.2857143   0.5714286  -0.2857143), wk =   0.1399417
        k(    8) = (   0.5714286  -0.2857143   0.5714286), wk =   0.1399417
        k(    9) = (   0.4285714  -0.1428571   0.4285714), wk =   0.1399417
        k(   10) = (   0.2857143  -0.0000000   0.2857143), wk =   0.0699708
        k(   11) = (   0.0000000   0.5714286   0.0000000), wk =   0.0349854
        k(   12) = (  -0.1428571   0.7142857  -0.1428571), wk =   0.1399417
        k(   13) = (   0.7142857  -0.1428571   0.7142857), wk =   0.1399417
        k(   14) = (   0.5714286   0.0000000   0.5714286), wk =   0.0699708
        k(   15) = (   0.0000000   0.8571429   0.0000000), wk =   0.0349854
        k(   16) = (   0.8571429  -0.0000000   0.8571429), wk =   0.0699708
        k(   17) = (  -0.2857143   0.5714286   0.0000000), wk =   0.1399417
        k(   18) = (   0.5714286  -0.2857143   0.8571429), wk =   0.2798834
        k(   19) = (   0.7142857  -0.1428571   1.0000000), wk =   0.1399417
        k(   20) = (   0.5714286   0.0000000   0.8571429), wk =   0.1399417

     Dense  grid:     7991 G-vectors     FFT dimensions: (  27,  27,  27)

     Estimated max dynamical RAM per process >       8.16 MB

     Estimated total dynamical RAM >      40.82 MB

     Initial potential from superposition of free atoms

     starting charge   10.99990, renormalised to   11.00000
     Starting wfcs are    9 randomized atomic wfcs +    1 random wfcs
     Checking if some PAW data can be deallocated... 

     total cpu time spent up to now is        1.2 secs

     Self-consistent Calculation

     iteration #  1     ecut=    65.00 Ry     beta= 0.70
     Davidson diagonalization with overlap
     ethr =  1.00E-02,  avg # of iterations =  5.2

     Threshold (ethr) on eigenvalues was too large:
     Diagonalizing with lowered threshold

     Davidson diagonalization with overlap
     ethr =  5.57E-04,  avg # of iterations =  2.1

     total cpu time spent up to now is        1.8 secs

     total energy              =    -764.66481266 Ry
     Harris-Foulkes estimate   =    -764.70587586 Ry
     estimated scf accuracy    <       0.06316845 Ry

     iteration #  2     ecut=    65.00 Ry     beta= 0.70
     Davidson diagonalization with overlap
     ethr =  5.74E-04,  avg # of iterations =  4.7

     total cpu time spent up to now is        2.3 secs

     total energy              =    -729.33448751 Ry
     Harris-Foulkes estimate   =    -775.29288578 Ry
     estimated scf accuracy    <  137608.31124945 Ry

     iteration #  3     ecut=    65.00 Ry     beta= 0.70
     Davidson diagonalization with overlap
     ethr =  5.74E-04,  avg # of iterations =  6.6

     total cpu time spent up to now is        2.8 secs

     total energy              =    -764.68138096 Ry
     Harris-Foulkes estimate   =    -764.69439274 Ry
     estimated scf accuracy    <       0.02420940 Ry

     iteration #  4     ecut=    65.00 Ry     beta= 0.70
     Davidson diagonalization with overlap
     ethr =  2.20E-04,  avg # of iterations =  1.4

     total cpu time spent up to now is        3.3 secs

     total energy              =    -764.68545598 Ry
     Harris-Foulkes estimate   =    -764.68554937 Ry
     estimated scf accuracy    <       0.00325874 Ry

     iteration #  5     ecut=    65.00 Ry     beta= 0.70
     Davidson diagonalization with overlap
     ethr =  2.96E-05,  avg # of iterations =  3.7

     total cpu time spent up to now is        3.9 secs

     total energy              =    -764.68615982 Ry
     Harris-Foulkes estimate   =    -764.68631144 Ry
     estimated scf accuracy    <       0.00300422 Ry

     iteration #  6     ecut=    65.00 Ry     beta= 0.70
     Davidson diagonalization with overlap
     ethr =  2.73E-05,  avg # of iterations =  1.0

     total cpu time spent up to now is        4.4 secs

     total energy              =    -764.68614280 Ry
     Harris-Foulkes estimate   =    -764.68619556 Ry
     estimated scf accuracy    <       0.00272923 Ry

     iteration #  7     ecut=    65.00 Ry     beta= 0.70
     Davidson diagonalization with overlap
     ethr =  2.48E-05,  avg # of iterations =  1.0

     total cpu time spent up to now is        4.7 secs

     total energy              =    -764.68616975 Ry
     Harris-Foulkes estimate   =    -764.68616963 Ry
     estimated scf accuracy    <       0.00272345 Ry

     iteration #  8     ecut=    65.00 Ry     beta= 0.70
     Davidson diagonalization with overlap
     ethr =  2.48E-05,  avg # of iterations =  1.0

     total cpu time spent up to now is        5.1 secs

     total energy              =    -764.68617309 Ry
     Harris-Foulkes estimate   =    -764.68617376 Ry
     estimated scf accuracy    <       0.00272323 Ry

     iteration #  9     ecut=    65.00 Ry     beta= 0.70
     Davidson diagonalization with overlap
     ethr =  2.48E-05,  avg # of iterations =  1.0

     total cpu time spent up to now is        5.5 secs

     total energy              =    -764.68617382 Ry
     Harris-Foulkes estimate   =    -764.68617446 Ry
     estimated scf accuracy    <       0.00271811 Ry

     iteration # 10     ecut=    65.00 Ry     beta= 0.70
     Davidson diagonalization with overlap
     ethr =  2.47E-05,  avg # of iterations =  1.0

     total cpu time spent up to now is        5.8 secs

     total energy              =    -764.68617338 Ry
     Harris-Foulkes estimate   =    -764.68617450 Ry
     estimated scf accuracy    <       0.00271570 Ry

     iteration # 11     ecut=    65.00 Ry     beta= 0.70
     Davidson diagonalization with overlap
     ethr =  2.47E-05,  avg # of iterations =  1.0

     total cpu time spent up to now is        6.2 secs

     total energy              =    -764.69348279 Ry
     Harris-Foulkes estimate   =    -764.68617376 Ry
     estimated scf accuracy    <       0.00269651 Ry

     iteration # 12     ecut=    65.00 Ry     beta= 0.70
     Davidson diagonalization with overlap
     ethr =  2.45E-05,  avg # of iterations =  3.1

     total cpu time spent up to now is        6.6 secs

     total energy              =    -764.69044235 Ry
     Harris-Foulkes estimate   =    -764.70128609 Ry
     estimated scf accuracy    <       0.03730516 Ry

     iteration # 13     ecut=    65.00 Ry     beta= 0.70
     Davidson diagonalization with overlap
     ethr =  2.45E-05,  avg # of iterations =  2.5

     total cpu time spent up to now is        7.0 secs

     total energy              =    -764.70707652 Ry
     Harris-Foulkes estimate   =    -764.69163040 Ry
     estimated scf accuracy    <       0.01556984 Ry

     iteration # 14     ecut=    65.00 Ry     beta= 0.70
     Davidson diagonalization with overlap
     ethr =  2.45E-05,  avg # of iterations =  4.1

     total cpu time spent up to now is        7.6 secs

     total energy              =    -764.70803209 Ry
     Harris-Foulkes estimate   =    -764.78457842 Ry
     estimated scf accuracy    <       0.28271868 Ry

     iteration # 15     ecut=    65.00 Ry     beta= 0.70
     Davidson diagonalization with overlap
     ethr =  2.45E-05,  avg # of iterations =  3.0

     total cpu time spent up to now is        8.0 secs

     total energy              =    -764.72053132 Ry
     Harris-Foulkes estimate   =    -764.71765372 Ry
     estimated scf accuracy    <       0.08546327 Ry

     iteration # 16     ecut=    65.00 Ry     beta= 0.70
     Davidson diagonalization with overlap
     ethr =  2.45E-05,  avg # of iterations =  1.0

     total cpu time spent up to now is        8.3 secs

     total energy              =    -764.67942941 Ry
     Harris-Foulkes estimate   =    -764.72056672 Ry
     estimated scf accuracy    <       0.09378232 Ry

     iteration # 17     ecut=    65.00 Ry     beta= 0.70
     Davidson diagonalization with overlap
     ethr =  2.45E-05,  avg # of iterations =  3.1

     total cpu time spent up to now is        8.7 secs

     total energy              =    -764.68553240 Ry
     Harris-Foulkes estimate   =    -764.68870555 Ry
     estimated scf accuracy    <       0.00990122 Ry

     iteration # 18     ecut=    65.00 Ry     beta= 0.70
     Davidson diagonalization with overlap
     ethr =  2.45E-05,  avg # of iterations =  2.0

     total cpu time spent up to now is        9.1 secs

     total energy              =    -764.68613614 Ry
     Harris-Foulkes estimate   =    -764.68628854 Ry
     estimated scf accuracy    <       0.00366487 Ry

     iteration # 19     ecut=    65.00 Ry     beta= 0.70
     Davidson diagonalization with overlap
     ethr =  2.45E-05,  avg # of iterations =  1.0

     total cpu time spent up to now is        9.4 secs

     total energy              =    -764.68603647 Ry
     Harris-Foulkes estimate   =    -764.68619312 Ry
     estimated scf accuracy    <       0.00328743 Ry

     iteration # 20     ecut=    65.00 Ry     beta= 0.70
     Davidson diagonalization with overlap
     ethr =  2.45E-05,  avg # of iterations =  1.6

     total cpu time spent up to now is        9.7 secs

     total energy              =    -764.68609581 Ry
     Harris-Foulkes estimate   =    -764.68611995 Ry
     estimated scf accuracy    <       0.00200898 Ry

     iteration # 21     ecut=    65.00 Ry     beta= 0.70
     Davidson diagonalization with overlap
     ethr =  1.83E-05,  avg # of iterations =  1.0

     total cpu time spent up to now is        9.9 secs

     total energy              =    -764.68609766 Ry
     Harris-Foulkes estimate   =    -764.68610938 Ry
     estimated scf accuracy    <       0.00185941 Ry

     iteration # 22     ecut=    65.00 Ry     beta= 0.70
     Davidson diagonalization with overlap
     ethr =  1.69E-05,  avg # of iterations =  1.0

     total cpu time spent up to now is       10.2 secs

     total energy              =    -764.68590869 Ry
     Harris-Foulkes estimate   =    -764.68610166 Ry
     estimated scf accuracy    <       0.00163170 Ry

     iteration # 23     ecut=    65.00 Ry     beta= 0.70
     Davidson diagonalization with overlap
     ethr =  1.48E-05,  avg # of iterations =  2.8

     total cpu time spent up to now is       10.6 secs

     total energy              =    -764.68602558 Ry
     Harris-Foulkes estimate   =    -764.68609897 Ry
     estimated scf accuracy    <       0.00026630 Ry

     iteration # 24     ecut=    65.00 Ry     beta= 0.70
     Davidson diagonalization with overlap
     ethr =  2.42E-06,  avg # of iterations =  1.9

     total cpu time spent up to now is       10.9 secs

     total energy              =    -764.68602599 Ry
     Harris-Foulkes estimate   =    -764.68603932 Ry
     estimated scf accuracy    <       0.00007148 Ry

     iteration # 25     ecut=    65.00 Ry     beta= 0.70
     Davidson diagonalization with overlap
     ethr =  6.50E-07,  avg # of iterations =  1.2

     total cpu time spent up to now is       11.2 secs

     total energy              =    -764.68600492 Ry
     Harris-Foulkes estimate   =    -764.68602892 Ry
     estimated scf accuracy    <       0.00003297 Ry

     iteration # 26     ecut=    65.00 Ry     beta= 0.70
     Davidson diagonalization with overlap
     ethr =  3.00E-07,  avg # of iterations =  3.0

     total cpu time spent up to now is       11.7 secs

     total energy              =    -764.68602195 Ry
     Harris-Foulkes estimate   =    -764.68603004 Ry
     estimated scf accuracy    <       0.00002819 Ry

     iteration # 27     ecut=    65.00 Ry     beta= 0.70
     Davidson diagonalization with overlap
     ethr =  2.56E-07,  avg # of iterations =  1.1

     total cpu time spent up to now is       12.0 secs

     total energy              =    -764.68601754 Ry
     Harris-Foulkes estimate   =    -764.68602313 Ry
     estimated scf accuracy    <       0.00000823 Ry

     iteration # 28     ecut=    65.00 Ry     beta= 0.70
     Davidson diagonalization with overlap
     ethr =  7.48E-08,  avg # of iterations =  2.6

     total cpu time spent up to now is       12.4 secs

     total energy              =    -764.68602015 Ry
     Harris-Foulkes estimate   =    -764.68602061 Ry
     estimated scf accuracy    <       0.00000354 Ry

     iteration # 29     ecut=    65.00 Ry     beta= 0.70
     Davidson diagonalization with overlap
     ethr =  3.22E-08,  avg # of iterations =  1.4

     total cpu time spent up to now is       12.7 secs

     total energy              =    -764.68602025 Ry
     Harris-Foulkes estimate   =    -764.68602038 Ry
     estimated scf accuracy    <       0.00000037 Ry

     iteration # 30     ecut=    65.00 Ry     beta= 0.70
     Davidson diagonalization with overlap
     ethr =  3.33E-09,  avg # of iterations =  2.4

     total cpu time spent up to now is       13.0 secs

     total energy              =    -764.68602032 Ry
     Harris-Foulkes estimate   =    -764.68602032 Ry
     estimated scf accuracy    <       0.00000001 Ry

     iteration # 31     ecut=    65.00 Ry     beta= 0.70
     Davidson diagonalization with overlap
     ethr =  1.09E-10,  avg # of iterations =  3.3

     total cpu time spent up to now is       13.4 secs

     total energy              =    -764.68602033 Ry
     Harris-Foulkes estimate   =    -764.68602033 Ry
     estimated scf accuracy    <       0.00000001 Ry

     iteration # 32     ecut=    65.00 Ry     beta= 0.70
     Davidson diagonalization with overlap
     ethr =  1.09E-10,  avg # of iterations =  1.0

     total cpu time spent up to now is       13.7 secs

     total energy              =    -764.68602033 Ry
     Harris-Foulkes estimate   =    -764.68602033 Ry
     estimated scf accuracy    <       0.00000002 Ry

     iteration # 33     ecut=    65.00 Ry     beta= 0.70
     Davidson diagonalization with overlap
     ethr =  1.09E-10,  avg # of iterations =  1.6

     total cpu time spent up to now is       14.1 secs

     total energy              =    -764.68602032 Ry
     Harris-Foulkes estimate   =    -764.68602033 Ry
     estimated scf accuracy    <       0.00000005 Ry

     iteration # 34     ecut=    65.00 Ry     beta= 0.70
     Davidson diagonalization with overlap
     ethr =  1.09E-10,  avg # of iterations =  3.0

     total cpu time spent up to now is       14.4 secs

     total energy              =    -764.68602033 Ry
     Harris-Foulkes estimate   =    -764.68602033 Ry
     estimated scf accuracy    <       0.00000009 Ry

     iteration # 35     ecut=    65.00 Ry     beta= 0.70
     Davidson diagonalization with overlap
     ethr =  1.09E-10,  avg # of iterations =  1.1

     total cpu time spent up to now is       14.7 secs

     total energy              =    -764.68602034 Ry
     Harris-Foulkes estimate   =    -764.68602033 Ry
     estimated scf accuracy    <       0.00000007 Ry

     iteration # 36     ecut=    65.00 Ry     beta= 0.70
     Davidson diagonalization with overlap
     ethr =  1.09E-10,  avg # of iterations =  2.9

     total cpu time spent up to now is       15.1 secs

     total energy              =    -764.68602030 Ry
     Harris-Foulkes estimate   =    -764.68602035 Ry
     estimated scf accuracy    <       0.00000037 Ry

     iteration # 37     ecut=    65.00 Ry     beta= 0.70
     Davidson diagonalization with overlap
     ethr =  1.09E-10,  avg # of iterations =  3.0

     total cpu time spent up to now is       15.4 secs

     total energy              =    -764.68602033 Ry
     Harris-Foulkes estimate   =    -764.68602033 Ry
     estimated scf accuracy    <       0.00000002 Ry

     iteration # 38     ecut=    65.00 Ry     beta= 0.70
     Davidson diagonalization with overlap
     ethr =  1.09E-10,  avg # of iterations =  1.9

     total cpu time spent up to now is       15.7 secs

     End of self-consistent calculation

          k = 0.0000 0.0000 0.0000 (   965 PWs)   bands (ev):

     5.8137  11.0908  11.0908  11.0908  12.6289  12.6289  31.1337  34.9830
    34.9830  34.9830

          k =-0.1429 0.1429-0.1429 (   989 PWs)   bands (ev):

     6.5012  10.9038  11.2953  11.2953  12.5680  12.5680  31.0470  32.1328
    35.6002  35.6002

          k =-0.2857 0.2857-0.2857 (  1010 PWs)   bands (ev):

     7.9575  11.1760  11.3304  11.3304  12.9767  12.9767  25.6269  31.7854
    35.6058  35.6058

          k =-0.4286 0.4286-0.4286 (  1023 PWs)   bands (ev):

     8.4139  11.0938  11.0938  13.7154  13.7154  13.7270  20.2139  30.5869
    33.6626  33.6626

          k = 0.0000 0.2857 0.0000 (   994 PWs)   bands (ev):

     6.7364  10.6365  11.5182  11.5182  12.1582  12.8342  32.1539  32.9375
    33.6818  33.6818

          k =-0.1429 0.4286-0.1429 (  1004 PWs)   bands (ev):

     8.0500  10.3587  11.3825  11.7913  12.6651  13.2028  27.9091  32.3334
    32.4101  34.4176

          k =-0.2857 0.5714-0.2857 (  1014 PWs)   bands (ev):

     8.8633  10.8639  11.3564  11.5953  13.8125  14.7179  22.0958  30.7840
    31.5235  32.7111

          k = 0.5714-0.2857 0.5714 (  1006 PWs)   bands (ev):

     8.9207  10.7617  11.4414  12.2477  13.6761  16.6964  19.1490  29.5207
    31.7558  32.4629

          k = 0.4286-0.1429 0.4286 (  1018 PWs)   bands (ev):

     8.8289  10.8981  11.2137  11.5910  12.7452  14.4735  24.0545  29.5153
    32.6303  35.5715

          k = 0.2857-0.0000 0.2857 (   995 PWs)   bands (ev):

     7.5408  10.5947  11.4286  11.6601  12.1488  13.1745  29.1839  30.8150
    34.6833  35.5242

          k = 0.0000 0.5714 0.0000 (  1018 PWs)   bands (ev):

     8.6462   9.7323  11.9794  12.6762  12.6762  13.3180  29.6847  29.6847
    30.4536  32.2724

          k =-0.1429 0.7143-0.1429 (  1023 PWs)   bands (ev):

     9.1278   9.6415  11.8975  12.7510  13.8747  15.0146  24.3801  27.6701
    28.4490  33.3621

          k = 0.7143-0.1429 0.7143 (  1011 PWs)   bands (ev):

     9.4089  10.2124  11.5268  12.4580  13.7625  18.9303  19.7156  25.2315
    29.4116  33.0916

          k = 0.5714 0.0000 0.5714 (  1015 PWs)   bands (ev):

     9.8140  10.7115  10.7608  12.1695  12.9665  16.5986  23.3831  24.4129
    32.3092  32.7390

          k = 0.0000 0.8571 0.0000 (  1006 PWs)   bands (ev):

     8.7447   9.0954  13.7315  13.9437  13.9437  15.3550  23.3061  26.4362
    26.4362  32.6480

          k = 0.8571-0.0000 0.8571 (  1013 PWs)   bands (ev):

     8.9369   9.3036  13.0196  13.4464  14.0207  18.3827  20.9860  24.3648
    26.8384  33.7839

          k =-0.2857 0.5714 0.0000 (  1023 PWs)   bands (ev):

     9.2817  10.0681  10.9344  12.5986  12.6735  14.5611  25.8954  27.7330
    30.9332  36.1583

          k = 0.5714-0.2857 0.8571 (  1024 PWs)   bands (ev):

     9.6765  10.3509  10.9927  12.2597  13.5882  17.1199  21.2197  26.8325
    28.8443  34.8819

          k = 0.7143-0.1429 1.0000 (  1019 PWs)   bands (ev):

     9.3499   9.6022  11.8357  13.1728  13.9387  17.6600  22.5323  24.9525
    26.0593  36.2140

          k = 0.5714 0.0000 0.8571 (  1018 PWs)   bands (ev):

     9.7520  10.2247  11.0647  12.5634  13.9313  19.5724  21.6647  22.8022
    26.6779  36.3398

     the Fermi energy is    15.3352 ev

!    total energy              =    -764.68602033 Ry
     Harris-Foulkes estimate   =    -764.68602033 Ry
     estimated scf accuracy    <          2.0E-09 Ry

     total all-electron energy =    -38013.520483 Ry

     The total energy is the sum of the following terms:

     one-electron contribution =      13.85572575 Ry
     hartree contribution      =       7.58116439 Ry
     xc contribution           =     -31.82313718 Ry
     ewald contribution        =     -71.95438534 Ry
     one-center paw contrib.   =    -682.34528979 Ry
     smearing contrib. (-TS)   =      -0.00009815 Ry

     convergence has been achieved in  38 iterations

     Forces acting on atoms (cartesian axes, Ry/au):

     atom    1 type  1   force =     0.00000000    0.00000000    0.00000000

     Total force =     0.000000     Total SCF correction =     0.000000


     Computing stress (Cartesian axis) and pressure

          total   stress  (Ry/bohr**3)                   (kbar)     P=   10.27
   0.00006984   0.00000000  -0.00000000         10.27      0.00     -0.00
   0.00000000   0.00006984  -0.00000000          0.00     10.27     -0.00
  -0.00000000   0.00000000   0.00006984         -0.00      0.00     10.27


     Writing output data file Au.save/

     init_run     :      0.36s CPU      0.38s WALL (       1 calls)
     electrons    :     13.60s CPU     14.48s WALL (       1 calls)
     forces       :      0.04s CPU      0.04s WALL (       1 calls)
     stress       :      0.12s CPU      0.12s WALL (       1 calls)

     Called by init_run:
     wfcinit      :      0.05s CPU      0.06s WALL (       1 calls)
     potinit      :      0.11s CPU      0.12s WALL (       1 calls)
     hinit0       :      0.18s CPU      0.18s WALL (       1 calls)

     Called by electrons:
     c_bands      :      7.22s CPU      7.54s WALL (      39 calls)
     sum_band     :      1.72s CPU      1.77s WALL (      39 calls)
     v_of_rho     :      0.18s CPU      0.19s WALL (      39 calls)
     newd         :      0.32s CPU      0.39s WALL (      39 calls)
     PAW_pot      :      4.21s CPU      4.65s WALL (      39 calls)
     mix_rho      :      0.04s CPU      0.04s WALL (      39 calls)

     Called by c_bands:
     init_us_2    :      0.21s CPU      0.22s WALL (    1620 calls)
     cegterg      :      6.86s CPU      7.17s WALL (     780 calls)

     Called by sum_band:
     sum_band:bec :      0.01s CPU      0.01s WALL (     780 calls)
     addusdens    :      0.31s CPU      0.31s WALL (      39 calls)

     Called by *egterg:
     h_psi        :      5.15s CPU      5.38s WALL (    2546 calls)
     s_psi        :      0.17s CPU      0.17s WALL (    2546 calls)
     g_psi        :      0.02s CPU      0.02s WALL (    1746 calls)
     cdiaghg      :      0.59s CPU      0.61s WALL (    2506 calls)

     Called by h_psi:
     h_psi:pot    :      5.12s CPU      5.35s WALL (    2546 calls)
     h_psi:calbec :      0.27s CPU      0.29s WALL (    2546 calls)
     vloc_psi     :      4.66s CPU      4.87s WALL (    2546 calls)
     add_vuspsi   :      0.17s CPU      0.18s WALL (    2546 calls)

     General routines
     calbec       :      0.40s CPU      0.42s WALL (    3426 calls)
     fft          :      0.12s CPU      0.12s WALL (     456 calls)
     ffts         :      0.01s CPU      0.01s WALL (      39 calls)
     fftw         :      5.37s CPU      5.60s WALL (   47944 calls)

     Parallel routines
     fft_scatt_xy :      0.42s CPU      0.44s WALL (   48439 calls)
     fft_scatt_yz :      1.74s CPU      1.81s WALL (   48439 calls)

     PWSCF        :    14.99s CPU        15.94s WALL


   This run was terminated on:  12: 1:43  26Mar2024            

=------------------------------------------------------------------------------=
   JOB DONE.
=------------------------------------------------------------------------------=
