
     Program PWSCF v.6.3MaX starts on 26Mar2024 at 11:40: 5 

     This program is part of the open-source Quantum ESPRESSO suite
     for quantum simulation of materials; please cite
         "P. Giannozzi et al., J. Phys.:Condens. Matter 21 395502 (2009);
         "P. Giannozzi et al., J. Phys.:Condens. Matter 29 465901 (2017);
          URL http://www.quantum-espresso.org", 
     in publications or presentations arising from this work. More details at
     http://www.quantum-espresso.org/quote

     Parallel version (MPI), running on     5 processors

     MPI processes distributed on     1 nodes
     R & G space division:  proc/nbgrp/npool/nimage =       5
     Waiting for input...
     Reading input from standard input

     Current dimensions of program PWSCF are:
     Max number of different atomic species (ntypx) = 10
     Max number of k-points (npk) =  40000
     Max angular momentum in pseudopotentials (lmaxx) =  3

     Subspace diagonalization in iterative solution of the eigenvalue problem:
     a serial algorithm will be used


     Parallelization info
     --------------------
     sticks:   dense  smooth     PW     G-vecs:    dense   smooth      PW
     Min          84      84     27                 1115     1115     207
     Max          85      85     28                 1117     1117     208
     Sum         421     421    139                 5577     5577    1037



     bravais-lattice index     =            2
     lattice parameter (alat)  =       7.7100  a.u.
     unit-cell volume          =     114.5785 (a.u.)^3
     number of atoms/cell      =            1
     number of atomic types    =            1
     number of electrons       =        11.00
     number of Kohn-Sham states=           10
     kinetic-energy cutoff     =      50.0000  Ry
     charge density cutoff     =     200.0000  Ry
     convergence threshold     =      1.0E-08
     mixing beta               =       0.7000
     number of iterations used =            8  plain     mixing
     Exchange-correlation      = PBE ( 1  4  3  4 0 0)

     celldm(1)=   7.710000  celldm(2)=   0.000000  celldm(3)=   0.000000
     celldm(4)=   0.000000  celldm(5)=   0.000000  celldm(6)=   0.000000

     crystal axes: (cart. coord. in units of alat)
               a(1) = (  -0.500000   0.000000   0.500000 )  
               a(2) = (   0.000000   0.500000   0.500000 )  
               a(3) = (  -0.500000   0.500000   0.000000 )  

     reciprocal axes: (cart. coord. in units 2 pi/alat)
               b(1) = ( -1.000000 -1.000000  1.000000 )  
               b(2) = (  1.000000  1.000000  1.000000 )  
               b(3) = ( -1.000000  1.000000 -1.000000 )  


     PseudoPot. # 1 for Au read from file:
     /home/lorenzo/pseudos/Au/Au.pbe-n-rrkjus_psl.1.0.0.UPF
     MD5 check sum: d7e77ba19504afed2c9b41c931dde4f0
     Pseudo is Ultrasoft + core correction, Zval = 11.0
     Generated using "atomic" code by A. Dal Corso v.6.3
     Using radial grid of 1279 points,  6 beta functions with: 
                l(1) =   0
                l(2) =   0
                l(3) =   1
                l(4) =   1
                l(5) =   2
                l(6) =   2
     Q(r) pseudized with 0 coefficients 


     atomic species   valence    mass     pseudopotential
        Au            11.00   196.96600     Au( 1.00)

     48 Sym. Ops., with inversion, found



   Cartesian axes

     site n.     atom                  positions (alat units)
         1           Au  tau(   1) = (   0.0000000   0.0000000   0.0000000  )

     number of k points=    47  gaussian smearing, width (Ry)=  0.0100
                       cart. coord. in units 2pi/alat
        k(    1) = (   0.0000000   0.0000000   0.0000000), wk =   0.0020000
        k(    2) = (  -0.1000000   0.1000000  -0.1000000), wk =   0.0160000
        k(    3) = (  -0.2000000   0.2000000  -0.2000000), wk =   0.0160000
        k(    4) = (  -0.3000000   0.3000000  -0.3000000), wk =   0.0160000
        k(    5) = (  -0.4000000   0.4000000  -0.4000000), wk =   0.0160000
        k(    6) = (   0.5000000  -0.5000000   0.5000000), wk =   0.0080000
        k(    7) = (   0.0000000   0.2000000   0.0000000), wk =   0.0120000
        k(    8) = (  -0.1000000   0.3000000  -0.1000000), wk =   0.0480000
        k(    9) = (  -0.2000000   0.4000000  -0.2000000), wk =   0.0480000
        k(   10) = (  -0.3000000   0.5000000  -0.3000000), wk =   0.0480000
        k(   11) = (   0.6000000  -0.4000000   0.6000000), wk =   0.0480000
        k(   12) = (   0.5000000  -0.3000000   0.5000000), wk =   0.0480000
        k(   13) = (   0.4000000  -0.2000000   0.4000000), wk =   0.0480000
        k(   14) = (   0.3000000  -0.1000000   0.3000000), wk =   0.0480000
        k(   15) = (   0.2000000   0.0000000   0.2000000), wk =   0.0240000
        k(   16) = (   0.0000000   0.4000000   0.0000000), wk =   0.0120000
        k(   17) = (  -0.1000000   0.5000000  -0.1000000), wk =   0.0480000
        k(   18) = (  -0.2000000   0.6000000  -0.2000000), wk =   0.0480000
        k(   19) = (   0.7000000  -0.3000000   0.7000000), wk =   0.0480000
        k(   20) = (   0.6000000  -0.2000000   0.6000000), wk =   0.0480000
        k(   21) = (   0.5000000  -0.1000000   0.5000000), wk =   0.0480000
        k(   22) = (   0.4000000   0.0000000   0.4000000), wk =   0.0240000
        k(   23) = (   0.0000000   0.6000000   0.0000000), wk =   0.0120000
        k(   24) = (  -0.1000000   0.7000000  -0.1000000), wk =   0.0480000
        k(   25) = (   0.8000000  -0.2000000   0.8000000), wk =   0.0480000
        k(   26) = (   0.7000000  -0.1000000   0.7000000), wk =   0.0480000
        k(   27) = (   0.6000000  -0.0000000   0.6000000), wk =   0.0240000
        k(   28) = (   0.0000000   0.8000000   0.0000000), wk =   0.0120000
        k(   29) = (   0.9000000  -0.1000000   0.9000000), wk =   0.0480000
        k(   30) = (   0.8000000   0.0000000   0.8000000), wk =   0.0240000
        k(   31) = (   0.0000000  -1.0000000   0.0000000), wk =   0.0060000
        k(   32) = (  -0.2000000   0.4000000   0.0000000), wk =   0.0480000
        k(   33) = (  -0.3000000   0.5000000  -0.1000000), wk =   0.0960000
        k(   34) = (   0.6000000  -0.4000000   0.8000000), wk =   0.0960000
        k(   35) = (   0.5000000  -0.3000000   0.7000000), wk =   0.0480000
        k(   36) = (  -0.2000000   0.6000000   0.0000000), wk =   0.0480000
        k(   37) = (   0.7000000  -0.3000000   0.9000000), wk =   0.0960000
        k(   38) = (   0.6000000  -0.2000000   0.8000000), wk =   0.0960000
        k(   39) = (   0.5000000  -0.1000000   0.7000000), wk =   0.0960000
        k(   40) = (   0.4000000   0.0000000   0.6000000), wk =   0.0480000
        k(   41) = (   0.8000000  -0.2000000   1.0000000), wk =   0.0480000
        k(   42) = (   0.7000000  -0.1000000   0.9000000), wk =   0.0960000
        k(   43) = (   0.6000000   0.0000000   0.8000000), wk =   0.0480000
        k(   44) = (  -0.2000000  -1.0000000   0.0000000), wk =   0.0240000
        k(   45) = (   0.6000000  -0.2000000   1.0000000), wk =   0.0480000
        k(   46) = (   0.5000000  -0.1000000   0.9000000), wk =   0.0480000
        k(   47) = (  -0.4000000  -1.0000000   0.0000000), wk =   0.0240000

     Dense  grid:     5577 G-vectors     FFT dimensions: (  25,  25,  25)

     Estimated max dynamical RAM per process >       6.53 MB

     Estimated total dynamical RAM >      32.66 MB

     Initial potential from superposition of free atoms

     starting charge   10.99989, renormalised to   11.00000
     Starting wfcs are    9 randomized atomic wfcs +    1 random wfcs

     total cpu time spent up to now is        1.2 secs

     Self-consistent Calculation

     iteration #  1     ecut=    50.00 Ry     beta= 0.70
     Davidson diagonalization with overlap
     ethr =  1.00E-02,  avg # of iterations =  5.4

     Threshold (ethr) on eigenvalues was too large:
     Diagonalizing with lowered threshold

     Davidson diagonalization with overlap
     ethr =  4.80E-04,  avg # of iterations =  1.6

     total cpu time spent up to now is        2.7 secs

     total energy              =     -85.36865716 Ry
     Harris-Foulkes estimate   =     -85.40190749 Ry
     estimated scf accuracy    <       0.05281020 Ry

     iteration #  2     ecut=    50.00 Ry     beta= 0.70
     Davidson diagonalization with overlap
     ethr =  4.80E-04,  avg # of iterations =  2.5

     total cpu time spent up to now is        3.3 secs

     total energy              =     -85.38272542 Ry
     Harris-Foulkes estimate   =     -85.38994289 Ry
     estimated scf accuracy    <       0.01159369 Ry

     iteration #  3     ecut=    50.00 Ry     beta= 0.70
     Davidson diagonalization with overlap
     ethr =  1.05E-04,  avg # of iterations =  2.2

     total cpu time spent up to now is        3.9 secs

     total energy              =     -85.38544752 Ry
     Harris-Foulkes estimate   =     -85.38549487 Ry
     estimated scf accuracy    <       0.00017697 Ry

     iteration #  4     ecut=    50.00 Ry     beta= 0.70
     Davidson diagonalization with overlap
     ethr =  1.61E-06,  avg # of iterations =  3.7

     total cpu time spent up to now is        4.8 secs

     total energy              =     -85.38559821 Ry
     Harris-Foulkes estimate   =     -85.38565560 Ry
     estimated scf accuracy    <       0.00011077 Ry

     iteration #  5     ecut=    50.00 Ry     beta= 0.70
     Davidson diagonalization with overlap
     ethr =  1.01E-06,  avg # of iterations =  1.0

     total cpu time spent up to now is        5.2 secs

     total energy              =     -85.38560593 Ry
     Harris-Foulkes estimate   =     -85.38561004 Ry
     estimated scf accuracy    <       0.00000681 Ry

     iteration #  6     ecut=    50.00 Ry     beta= 0.70
     Davidson diagonalization with overlap
     ethr =  6.19E-08,  avg # of iterations =  3.1

     total cpu time spent up to now is        6.0 secs

     total energy              =     -85.38561102 Ry
     Harris-Foulkes estimate   =     -85.38561136 Ry
     estimated scf accuracy    <       0.00000109 Ry

     iteration #  7     ecut=    50.00 Ry     beta= 0.70
     Davidson diagonalization with overlap
     ethr =  9.89E-09,  avg # of iterations =  1.1

     total cpu time spent up to now is        6.4 secs

     total energy              =     -85.38561087 Ry
     Harris-Foulkes estimate   =     -85.38561107 Ry
     estimated scf accuracy    <       0.00000033 Ry

     iteration #  8     ecut=    50.00 Ry     beta= 0.70
     Davidson diagonalization with overlap
     ethr =  2.97E-09,  avg # of iterations =  2.3

     total cpu time spent up to now is        7.0 secs

     total energy              =     -85.38561097 Ry
     Harris-Foulkes estimate   =     -85.38561099 Ry
     estimated scf accuracy    <       0.00000002 Ry

     iteration #  9     ecut=    50.00 Ry     beta= 0.70
     Davidson diagonalization with overlap
     ethr =  2.20E-10,  avg # of iterations =  2.2

     total cpu time spent up to now is        7.5 secs

     End of self-consistent calculation

          k = 0.0000 0.0000 0.0000 (   701 PWs)   bands (ev):

     6.0951  11.3134  11.3134  11.3134  12.8445  12.8445  31.3944  35.2601
    35.2601  35.2601

          k =-0.1000 0.1000-0.1000 (   685 PWs)   bands (ev):

     6.4404  11.2075  11.4280  11.4280  12.7990  12.7990  31.6923  33.1687
    35.5913  35.5913

          k =-0.2000 0.2000-0.2000 (   667 PWs)   bands (ev):

     7.3641  11.0718  11.6019  11.6019  12.8442  12.8442  29.2800  32.4863
    36.2116  36.2116

          k =-0.3000 0.3000-0.3000 (   682 PWs)   bands (ev):

     8.3279  11.5277  11.5277  11.5673  13.2732  13.2732  25.2842  31.8978
    35.6566  35.6566

          k =-0.4000 0.4000-0.4000 (   679 PWs)   bands (ev):

     8.6430  11.3517  11.3517  13.3638  13.8173  13.8173  21.4105  31.0211
    34.2369  34.2369

          k = 0.5000-0.5000 0.5000 (   700 PWs)   bands (ev):

     8.6597  11.2746  11.2746  14.0576  14.0576  15.0230  19.1102  30.6829
    33.6220  33.6220

          k = 0.0000 0.2000 0.0000 (   685 PWs)   bands (ev):

     6.5571  11.0788  11.5249  11.5249  12.5958  12.9480  31.8990  33.8956
    34.6756  34.6756

          k =-0.1000 0.3000-0.1000 (   679 PWs)   bands (ev):

     7.3038  10.8523  11.7197  11.7541  12.4768  13.0738  30.7563  32.6035
    34.0961  35.6681

          k =-0.2000 0.4000-0.2000 (   681 PWs)   bands (ev):

     8.3439  10.9007  11.5408  11.7902  13.0497  13.4347  26.8081  32.3475
    33.4336  35.5819

          k =-0.3000 0.5000-0.3000 (   691 PWs)   bands (ev):

     8.8625  11.2565  11.6295  11.8436  13.9044  14.2587  22.7728  31.4295
    32.7716  33.9145

          k = 0.6000-0.4000 0.6000 (   689 PWs)   bands (ev):

     8.9116  11.1173  11.4904  12.8604  14.0738  16.0717  19.4728  30.8072
    32.5316  32.7751

          k = 0.5000-0.3000 0.5000 (   680 PWs)   bands (ev):

     8.9218  11.1701  11.4877  12.7786  13.7556  15.5557  20.4383  30.6843
    32.1740  33.9175

          k = 0.4000-0.2000 0.4000 (   678 PWs)   bands (ev):

     8.7960  11.3144  11.6355  11.6420  13.1120  14.2665  24.1196  31.0307
    32.9667  36.1697

          k = 0.3000-0.1000 0.3000 (   675 PWs)   bands (ev):

     8.0154  10.8892  11.6273  11.7964  12.5398  13.4540  28.1233  31.5785
    34.4867  36.5168

          k = 0.2000 0.0000 0.2000 (   682 PWs)   bands (ev):

     6.9900  11.0153  11.6006  11.6124  12.5588  12.9884  31.5457  31.8874
    34.5276  37.0671

          k = 0.0000 0.4000 0.0000 (   681 PWs)   bands (ev):

     7.8092  10.5077  12.0850  12.1338  12.1338  13.2262  32.4577  32.4577
    32.6940  33.1396

          k =-0.1000 0.5000-0.1000 (   680 PWs)   bands (ev):

     8.6801  10.2704  11.6738  12.3721  13.0086  13.5244  28.6125  31.2488
    32.4166  33.6547

          k =-0.2000 0.6000-0.2000 (   682 PWs)   bands (ev):

     9.3074  10.5157  11.3601  12.2770  13.9729  14.5742  24.4240  30.5931
    30.6045  33.2033

          k = 0.7000-0.3000 0.7000 (   685 PWs)   bands (ev):

     9.4334  10.7758  11.6682  12.0968  14.1181  16.8755  20.6713  28.9861
    30.8169  32.6712

          k = 0.6000-0.2000 0.6000 (   687 PWs)   bands (ev):

     9.5422  10.8051  11.9160  11.9961  13.7583  17.6022  19.9960  27.8587
    32.1378  32.4564

          k = 0.5000-0.1000 0.5000 (   681 PWs)   bands (ev):

     9.6265  10.9488  11.3248  12.0404  13.0629  15.7321  23.4431  27.5758
    32.8232  34.3951

          k = 0.4000 0.0000 0.4000 (   670 PWs)   bands (ev):

     9.0641  10.6796  11.4133  12.2053  12.3628  14.4497  26.6740  28.6269
    33.8041  36.6274

          k = 0.0000 0.6000 0.0000 (   689 PWs)   bands (ev):

     9.0129   9.8718  12.3921  13.0356  13.0356  13.5861  29.5258  29.5258
    30.0476  32.6230

          k =-0.1000 0.7000-0.1000 (   683 PWs)   bands (ev):

     9.2773   9.7337  12.4235  13.1444  13.9844  14.5926  25.9214  28.2346
    28.5481  33.5336

          k = 0.8000-0.2000 0.8000 (   688 PWs)   bands (ev):

     9.4442  10.0234  12.1271  12.9520  14.1811  17.1444  22.2777  26.4009
    28.6365  33.6624

          k = 0.7000-0.1000 0.7000 (   691 PWs)   bands (ev):

     9.6956  10.4845  11.7240  12.7309  13.8587  19.2501  20.3959  24.7444
    29.8924  33.3788

          k = 0.6000-0.0000 0.6000 (   684 PWs)   bands (ev):

    10.0174  10.8839  11.1201  12.4745  13.3181  17.3224  23.4573  23.9793
    32.0068  33.0809

          k = 0.0000 0.8000 0.0000 (   684 PWs)   bands (ev):

     9.0491   9.4023  13.8917  13.9579  13.9579  14.7756  24.8844  27.1632
    27.1632  32.9848

          k = 0.9000-0.1000 0.9000 (   689 PWs)   bands (ev):

     9.0949   9.4138  13.5419  13.7415  14.2709  17.1390  22.5190  25.6309
    26.9090  33.8642

          k = 0.8000 0.0000 0.8000 (   688 PWs)   bands (ev):

     9.3560   9.8365  12.6478  13.3918  14.0911  19.7042  20.6686  23.9237
    27.9429  34.0211

          k = 0.0000-1.0000 0.0000 (   692 PWs)   bands (ev):

     8.9108   9.2320  14.0122  14.3835  14.3835  17.0303  21.8163  26.2312
    26.2312  33.2376

          k =-0.2000 0.4000 0.0000 (   677 PWs)   bands (ev):

     8.1630  10.5944  11.6272  12.1393  12.4530  13.4932  29.3186  30.7935
    34.3534  34.7498

          k =-0.3000 0.5000-0.1000 (   685 PWs)   bands (ev):

     9.1187  10.6788  11.2660  12.1588  13.0288  14.3950  25.7267  29.7167
    32.5013  35.4274

          k = 0.6000-0.4000 0.8000 (   683 PWs)   bands (ev):

     9.3717  10.9507  11.5438  12.0045  13.7296  15.8660  21.8737  29.4515
    31.0563  34.1873

          k = 0.5000-0.3000 0.7000 (   684 PWs)   bands (ev):

     9.3642  10.8297  11.8619  12.1480  13.9539  17.7890  19.0743  29.7695
    30.1433  33.5650

          k =-0.2000 0.6000 0.0000 (   680 PWs)   bands (ev):

     9.3517  10.0543  11.5219  13.0278  13.1172  14.3919  26.9874  28.4708
    30.5573  35.3764

          k = 0.7000-0.3000 0.9000 (   680 PWs)   bands (ev):

     9.7022  10.2917  11.3117  12.8347  13.8109  16.1074  23.5398  27.4885
    28.9469  35.0255

          k = 0.6000-0.2000 0.8000 (   687 PWs)   bands (ev):

     9.8431  10.5130  11.4242  12.5463  13.9748  18.6243  20.2344  26.7306
    28.6440  34.7095

          k = 0.5000-0.1000 0.7000 (   687 PWs)   bands (ev):

    10.0828  10.5587  11.2111  12.4848  13.6532  17.6289  21.7720  25.8207
    29.7794  35.0066

          k = 0.4000 0.0000 0.6000 (   684 PWs)   bands (ev):

    10.0538  10.5454  10.8536  12.6106  13.0582  15.8118  24.6690  26.3283
    31.2055  36.0510

          k = 0.8000-0.2000 1.0000 (   687 PWs)   bands (ev):

     9.3709   9.6433  12.4752  13.6612  13.9532  16.3348  24.0810  26.3518
    27.0687  35.0113

          k = 0.7000-0.1000 0.9000 (   686 PWs)   bands (ev):

     9.5730   9.9603  12.0858  13.2228  14.1941  18.8886  21.6675  24.6234
    26.9440  35.4902

          k = 0.6000 0.0000 0.8000 (   689 PWs)   bands (ev):

     9.9015  10.4612  11.4468  12.8084  13.9548  19.3492  21.9658  23.1727
    28.1859  35.3281

          k =-0.2000-1.0000 0.0000 (   690 PWs)   bands (ev):

     9.2140   9.4925  13.1541  13.6499  14.3842  18.5746  21.4263  25.4820
    25.8717  35.1445

          k = 0.6000-0.2000 1.0000 (   696 PWs)   bands (ev):

    10.1028  10.3495  11.0530  12.9706  13.9439  18.0349  23.1387  24.3802
    27.3988  37.4767

          k = 0.5000-0.1000 0.9000 (   690 PWs)   bands (ev):

    10.1371  10.5894  10.9813  12.7157  14.1700  19.8829  21.3216  24.0905
    26.5656  37.4102

          k =-0.4000-1.0000 0.0000 (   692 PWs)   bands (ev):

     9.8702  10.2664  11.5227  12.8727  14.3853  20.8920  21.0844  23.5632
    25.5207  38.1663

     the Fermi energy is    15.9992 ev

!    total energy              =     -85.38561098 Ry
     Harris-Foulkes estimate   =     -85.38561098 Ry
     estimated scf accuracy    <          3.5E-09 Ry

     The total energy is the sum of the following terms:

     one-electron contribution =      11.08107852 Ry
     hartree contribution      =       7.59360892 Ry
     xc contribution           =     -32.10553982 Ry
     ewald contribution        =     -71.95438538 Ry
     smearing contrib. (-TS)   =      -0.00037322 Ry

     convergence has been achieved in   9 iterations

     Forces acting on atoms (cartesian axes, Ry/au):

     atom    1 type  1   force =     0.00000000    0.00000000    0.00000000

     Total force =     0.000000     Total SCF correction =     0.000000


     Computing stress (Cartesian axis) and pressure

          total   stress  (Ry/bohr**3)                   (kbar)     P=  107.34
   0.00072969   0.00000000  -0.00000000        107.34      0.00     -0.00
   0.00000000   0.00072969   0.00000000          0.00    107.34      0.00
  -0.00000000   0.00000000   0.00072969         -0.00      0.00    107.34


     Writing output data file Au.save/

     init_run     :      0.38s CPU      0.39s WALL (       1 calls)
     electrons    :      6.00s CPU      6.27s WALL (       1 calls)
     forces       :      0.04s CPU      0.04s WALL (       1 calls)
     stress       :      0.13s CPU      0.14s WALL (       1 calls)

     Called by init_run:
     wfcinit      :      0.20s CPU      0.21s WALL (       1 calls)
     potinit      :      0.01s CPU      0.01s WALL (       1 calls)
     hinit0       :      0.16s CPU      0.17s WALL (       1 calls)

     Called by electrons:
     c_bands      :      5.05s CPU      5.28s WALL (      10 calls)
     sum_band     :      0.83s CPU      0.86s WALL (      10 calls)
     v_of_rho     :      0.04s CPU      0.04s WALL (      10 calls)
     newd         :      0.07s CPU      0.07s WALL (      10 calls)
     mix_rho      :      0.01s CPU      0.01s WALL (      10 calls)

     Called by c_bands:
     init_us_2    :      0.11s CPU      0.12s WALL (    1081 calls)
     cegterg      :      4.83s CPU      5.05s WALL (     470 calls)

     Called by sum_band:
     sum_band:bec :      0.00s CPU      0.00s WALL (     470 calls)
     addusdens    :      0.06s CPU      0.06s WALL (      10 calls)

     Called by *egterg:
     h_psi        :      3.68s CPU      3.86s WALL (    1702 calls)
     s_psi        :      0.08s CPU      0.08s WALL (    1702 calls)
     g_psi        :      0.01s CPU      0.01s WALL (    1185 calls)
     cdiaghg      :      0.50s CPU      0.52s WALL (    1608 calls)

     Called by h_psi:
     h_psi:pot    :      3.67s CPU      3.85s WALL (    1702 calls)
     h_psi:calbec :      0.21s CPU      0.22s WALL (    1702 calls)
     vloc_psi     :      3.36s CPU      3.53s WALL (    1702 calls)
     add_vuspsi   :      0.08s CPU      0.09s WALL (    1702 calls)

     General routines
     calbec       :      0.29s CPU      0.30s WALL (    2407 calls)
     fft          :      0.03s CPU      0.03s WALL (     137 calls)
     ffts         :      0.00s CPU      0.00s WALL (      10 calls)
     fftw         :      3.76s CPU      3.95s WALL (   29904 calls)

     Parallel routines
     fft_scatt_xy :      0.22s CPU      0.24s WALL (   30051 calls)
     fft_scatt_yz :      1.76s CPU      1.82s WALL (   30051 calls)

     PWSCF        :     7.44s CPU         7.81s WALL


   This run was terminated on:  11:40:13  26Mar2024            

=------------------------------------------------------------------------------=
   JOB DONE.
=------------------------------------------------------------------------------=
