
     Program PWSCF v.6.3MaX starts on 26Mar2024 at 11:54:25 

     This program is part of the open-source Quantum ESPRESSO suite
     for quantum simulation of materials; please cite
         "P. Giannozzi et al., J. Phys.:Condens. Matter 21 395502 (2009);
         "P. Giannozzi et al., J. Phys.:Condens. Matter 29 465901 (2017);
          URL http://www.quantum-espresso.org", 
     in publications or presentations arising from this work. More details at
     http://www.quantum-espresso.org/quote

     Parallel version (MPI), running on     5 processors

     MPI processes distributed on     1 nodes
     R & G space division:  proc/nbgrp/npool/nimage =       5
     Waiting for input...
     Reading input from standard input

     Current dimensions of program PWSCF are:
     Max number of different atomic species (ntypx) = 10
     Max number of k-points (npk) =  40000
     Max angular momentum in pseudopotentials (lmaxx) =  3

     Subspace diagonalization in iterative solution of the eigenvalue problem:
     a serial algorithm will be used


     Parallelization info
     --------------------
     sticks:   dense  smooth     PW     G-vecs:    dense   smooth      PW
     Min          99      99     30                 1446     1446     248
     Max         100     100     31                 1449     1449     251
     Sum         499     499    151                 7239     7239    1243



     bravais-lattice index     =            2
     lattice parameter (alat)  =       7.7100  a.u.
     unit-cell volume          =     114.5785 (a.u.)^3
     number of atoms/cell      =            1
     number of atomic types    =            1
     number of electrons       =        11.00
     number of Kohn-Sham states=           10
     kinetic-energy cutoff     =      60.0000  Ry
     charge density cutoff     =     240.0000  Ry
     convergence threshold     =      1.0E-08
     mixing beta               =       0.7000
     number of iterations used =            8  plain     mixing
     Exchange-correlation      = PBE ( 1  4  3  4 0 0)

     celldm(1)=   7.710000  celldm(2)=   0.000000  celldm(3)=   0.000000
     celldm(4)=   0.000000  celldm(5)=   0.000000  celldm(6)=   0.000000

     crystal axes: (cart. coord. in units of alat)
               a(1) = (  -0.500000   0.000000   0.500000 )  
               a(2) = (   0.000000   0.500000   0.500000 )  
               a(3) = (  -0.500000   0.500000   0.000000 )  

     reciprocal axes: (cart. coord. in units 2 pi/alat)
               b(1) = ( -1.000000 -1.000000  1.000000 )  
               b(2) = (  1.000000  1.000000  1.000000 )  
               b(3) = ( -1.000000  1.000000 -1.000000 )  


     PseudoPot. # 1 for Au read from file:
     /home/lorenzo/pseudos/Au/Au.pbe-n-rrkjus_psl.1.0.0.UPF
     MD5 check sum: d7e77ba19504afed2c9b41c931dde4f0
     Pseudo is Ultrasoft + core correction, Zval = 11.0
     Generated using "atomic" code by A. Dal Corso v.6.3
     Using radial grid of 1279 points,  6 beta functions with: 
                l(1) =   0
                l(2) =   0
                l(3) =   1
                l(4) =   1
                l(5) =   2
                l(6) =   2
     Q(r) pseudized with 0 coefficients 


     atomic species   valence    mass     pseudopotential
        Au            11.00   196.96600     Au( 1.00)

     48 Sym. Ops., with inversion, found



   Cartesian axes

     site n.     atom                  positions (alat units)
         1           Au  tau(   1) = (   0.0000000   0.0000000   0.0000000  )

     number of k points=    10  gaussian smearing, width (Ry)=  0.0100
                       cart. coord. in units 2pi/alat
        k(    1) = (   0.0000000   0.0000000   0.0000000), wk =   0.0160000
        k(    2) = (  -0.2000000   0.2000000  -0.2000000), wk =   0.1280000
        k(    3) = (  -0.4000000   0.4000000  -0.4000000), wk =   0.1280000
        k(    4) = (   0.0000000   0.4000000   0.0000000), wk =   0.0960000
        k(    5) = (  -0.2000000   0.6000000  -0.2000000), wk =   0.3840000
        k(    6) = (   0.6000000  -0.2000000   0.6000000), wk =   0.3840000
        k(    7) = (   0.4000000   0.0000000   0.4000000), wk =   0.1920000
        k(    8) = (   0.0000000   0.8000000   0.0000000), wk =   0.0960000
        k(    9) = (   0.8000000   0.0000000   0.8000000), wk =   0.1920000
        k(   10) = (   0.6000000  -0.2000000   1.0000000), wk =   0.3840000

     Dense  grid:     7239 G-vectors     FFT dimensions: (  27,  27,  27)

     Estimated max dynamical RAM per process >       7.22 MB

     Estimated total dynamical RAM >      36.11 MB

     Initial potential from superposition of free atoms

     starting charge   10.99989, renormalised to   11.00000
     Starting wfcs are    9 randomized atomic wfcs +    1 random wfcs

     total cpu time spent up to now is        1.9 secs

     Self-consistent Calculation

     iteration #  1     ecut=    60.00 Ry     beta= 0.70
     Davidson diagonalization with overlap
     ethr =  1.00E-02,  avg # of iterations =  5.4

     Threshold (ethr) on eigenvalues was too large:
     Diagonalizing with lowered threshold

     Davidson diagonalization with overlap
     ethr =  4.67E-04,  avg # of iterations =  2.2

     total cpu time spent up to now is        2.3 secs

     total energy              =     -85.37830138 Ry
     Harris-Foulkes estimate   =     -85.41173290 Ry
     estimated scf accuracy    <       0.05313616 Ry

     iteration #  2     ecut=    60.00 Ry     beta= 0.70
     Davidson diagonalization with overlap
     ethr =  4.83E-04,  avg # of iterations =  2.4

     total cpu time spent up to now is        2.4 secs

     total energy              =     -85.39248045 Ry
     Harris-Foulkes estimate   =     -85.40027282 Ry
     estimated scf accuracy    <       0.01265789 Ry

     iteration #  3     ecut=    60.00 Ry     beta= 0.70
     Davidson diagonalization with overlap
     ethr =  1.15E-04,  avg # of iterations =  1.9

     total cpu time spent up to now is        2.6 secs

     total energy              =     -85.39527731 Ry
     Harris-Foulkes estimate   =     -85.39533756 Ry
     estimated scf accuracy    <       0.00017435 Ry

     iteration #  4     ecut=    60.00 Ry     beta= 0.70
     Davidson diagonalization with overlap
     ethr =  1.58E-06,  avg # of iterations =  4.5

     total cpu time spent up to now is        2.8 secs

     total energy              =     -85.39546571 Ry
     Harris-Foulkes estimate   =     -85.39555538 Ry
     estimated scf accuracy    <       0.00017784 Ry

     iteration #  5     ecut=    60.00 Ry     beta= 0.70
     Davidson diagonalization with overlap
     ethr =  1.58E-06,  avg # of iterations =  1.0

     total cpu time spent up to now is        2.9 secs

     total energy              =     -85.39547826 Ry
     Harris-Foulkes estimate   =     -85.39548514 Ry
     estimated scf accuracy    <       0.00001280 Ry

     iteration #  6     ecut=    60.00 Ry     beta= 0.70
     Davidson diagonalization with overlap
     ethr =  1.16E-07,  avg # of iterations =  3.0

     total cpu time spent up to now is        3.0 secs

     total energy              =     -85.39548589 Ry
     Harris-Foulkes estimate   =     -85.39548591 Ry
     estimated scf accuracy    <       0.00000046 Ry

     iteration #  7     ecut=    60.00 Ry     beta= 0.70
     Davidson diagonalization with overlap
     ethr =  4.18E-09,  avg # of iterations =  1.6

     total cpu time spent up to now is        3.1 secs

     total energy              =     -85.39548574 Ry
     Harris-Foulkes estimate   =     -85.39548592 Ry
     estimated scf accuracy    <       0.00000033 Ry

     iteration #  8     ecut=    60.00 Ry     beta= 0.70
     Davidson diagonalization with overlap
     ethr =  2.99E-09,  avg # of iterations =  1.4

     total cpu time spent up to now is        3.2 secs

     End of self-consistent calculation

          k = 0.0000 0.0000 0.0000 (   893 PWs)   bands (ev):

     6.0974  11.3291  11.3291  11.3291  12.8598  12.8598  31.3957  35.2595
    35.2595  35.2595

          k =-0.2000 0.2000-0.2000 (   914 PWs)   bands (ev):

     7.3669  11.0859  11.6174  11.6174  12.8595  12.8595  29.2834  32.4875
    36.2136  36.2136

          k =-0.4000 0.4000-0.4000 (   899 PWs)   bands (ev):

     8.6519  11.3658  11.3658  13.3690  13.8348  13.8348  21.4191  31.0205
    34.2414  34.2414

          k = 0.0000 0.4000 0.0000 (   889 PWs)   bands (ev):

     7.8119  10.5221  12.0985  12.1501  12.1501  13.2419  32.4611  32.4611
    32.6939  33.1431

          k =-0.2000 0.6000-0.2000 (   893 PWs)   bands (ev):

     9.3154  10.5271  11.3730  12.2923  13.9905  14.5876  24.4298  30.5973
    30.6087  33.2073

          k = 0.6000-0.2000 0.6000 (   887 PWs)   bands (ev):

     9.5531  10.8171  11.9282  12.0105  13.7761  17.6113  20.0051  27.8643
    32.1424  32.4580

          k = 0.4000 0.0000 0.4000 (   909 PWs)   bands (ev):

     9.0687  10.6934  11.4263  12.2193  12.3796  14.4658  26.6783  28.6336
    33.8052  36.6281

          k = 0.0000 0.8000 0.0000 (   902 PWs)   bands (ev):

     9.0573   9.4154  13.9081  13.9765  13.9765  14.7807  24.8921  27.1662
    27.1662  32.9872

          k = 0.8000 0.0000 0.8000 (   904 PWs)   bands (ev):

     9.3664   9.8481  12.6622  13.4072  14.1100  19.7115  20.6755  23.9303
    27.9465  34.0251

          k = 0.6000-0.2000 1.0000 (   896 PWs)   bands (ev):

    10.1123  10.3628  11.0656  12.9852  13.9625  18.0447  23.1444  24.3867
    27.4045  37.4789

     the Fermi energy is    14.8111 ev

!    total energy              =     -85.39548578 Ry
     Harris-Foulkes estimate   =     -85.39548579 Ry
     estimated scf accuracy    <          3.5E-09 Ry

     The total energy is the sum of the following terms:

     one-electron contribution =      11.06325390 Ry
     hartree contribution      =       7.60546833 Ry
     xc contribution           =     -32.10949134 Ry
     ewald contribution        =     -71.95438535 Ry
     smearing contrib. (-TS)   =      -0.00033132 Ry

     convergence has been achieved in   8 iterations

     Forces acting on atoms (cartesian axes, Ry/au):

     atom    1 type  1   force =     0.00000000    0.00000000    0.00000000

     Total force =     0.000000     Total SCF correction =     0.000000


     Computing stress (Cartesian axis) and pressure

          total   stress  (Ry/bohr**3)                   (kbar)     P=   97.43
   0.00066230  -0.00000000  -0.00000000         97.43     -0.00     -0.00
  -0.00000000   0.00066230   0.00000000         -0.00     97.43      0.00
  -0.00000000   0.00000000   0.00066230         -0.00      0.00     97.43


     Writing output data file Au.save/

     init_run     :      0.30s CPU      0.30s WALL (       1 calls)
     electrons    :      1.22s CPU      1.26s WALL (       1 calls)
     forces       :      0.03s CPU      0.03s WALL (       1 calls)
     stress       :      0.10s CPU      0.10s WALL (       1 calls)

     Called by init_run:
     wfcinit      :      0.05s CPU      0.05s WALL (       1 calls)
     potinit      :      0.01s CPU      0.01s WALL (       1 calls)
     hinit0       :      0.22s CPU      0.23s WALL (       1 calls)

     Called by electrons:
     c_bands      :      0.91s CPU      0.94s WALL (       9 calls)
     sum_band     :      0.21s CPU      0.22s WALL (       9 calls)
     v_of_rho     :      0.04s CPU      0.04s WALL (       9 calls)
     newd         :      0.07s CPU      0.07s WALL (       9 calls)
     mix_rho      :      0.00s CPU      0.00s WALL (       9 calls)

     Called by c_bands:
     init_us_2    :      0.03s CPU      0.03s WALL (     210 calls)
     cegterg      :      0.87s CPU      0.90s WALL (      90 calls)

     Called by sum_band:
     sum_band:bec :      0.00s CPU      0.00s WALL (      90 calls)
     addusdens    :      0.07s CPU      0.07s WALL (       9 calls)

     Called by *egterg:
     h_psi        :      0.68s CPU      0.70s WALL (     334 calls)
     s_psi        :      0.02s CPU      0.02s WALL (     334 calls)
     g_psi        :      0.00s CPU      0.00s WALL (     234 calls)
     cdiaghg      :      0.09s CPU      0.09s WALL (     314 calls)

     Called by h_psi:
     h_psi:pot    :      0.68s CPU      0.70s WALL (     334 calls)
     h_psi:calbec :      0.03s CPU      0.03s WALL (     334 calls)
     vloc_psi     :      0.62s CPU      0.64s WALL (     334 calls)
     add_vuspsi   :      0.02s CPU      0.02s WALL (     334 calls)

     General routines
     calbec       :      0.05s CPU      0.05s WALL (     474 calls)
     fft          :      0.03s CPU      0.03s WALL (     126 calls)
     ffts         :      0.00s CPU      0.00s WALL (       9 calls)
     fftw         :      0.68s CPU      0.70s WALL (    5710 calls)

     Parallel routines
     fft_scatt_xy :      0.06s CPU      0.06s WALL (    5845 calls)
     fft_scatt_yz :      0.18s CPU      0.18s WALL (    5845 calls)

     PWSCF        :     3.29s CPU         3.38s WALL


   This run was terminated on:  11:54:29  26Mar2024            

=------------------------------------------------------------------------------=
   JOB DONE.
=------------------------------------------------------------------------------=
