
     Program PWSCF v.6.3MaX starts on 26Mar2024 at 11:57:26 

     This program is part of the open-source Quantum ESPRESSO suite
     for quantum simulation of materials; please cite
         "P. Giannozzi et al., J. Phys.:Condens. Matter 21 395502 (2009);
         "P. Giannozzi et al., J. Phys.:Condens. Matter 29 465901 (2017);
          URL http://www.quantum-espresso.org", 
     in publications or presentations arising from this work. More details at
     http://www.quantum-espresso.org/quote

     Parallel version (MPI), running on     5 processors

     MPI processes distributed on     1 nodes
     R & G space division:  proc/nbgrp/npool/nimage =       5
     Waiting for input...
     Reading input from standard input

     Current dimensions of program PWSCF are:
     Max number of different atomic species (ntypx) = 10
     Max number of k-points (npk) =  40000
     Max angular momentum in pseudopotentials (lmaxx) =  3
               file Au.pbesol-n-kjpaw_psl.1.0.0.UPF: wavefunction(s)  6S 5D renormalized

     Subspace diagonalization in iterative solution of the eigenvalue problem:
     a serial algorithm will be used


     Parallelization info
     --------------------
     sticks:   dense  smooth     PW     G-vecs:    dense   smooth      PW
     Min         103     103     32                 1597     1597     290
     Max         104     104     33                 1600     1600     293
     Sum         517     517    163                 7991     7991    1459



     bravais-lattice index     =            2
     lattice parameter (alat)  =       7.7100  a.u.
     unit-cell volume          =     114.5785 (a.u.)^3
     number of atoms/cell      =            1
     number of atomic types    =            1
     number of electrons       =        11.00
     number of Kohn-Sham states=           10
     kinetic-energy cutoff     =      65.0000  Ry
     charge density cutoff     =     260.0000  Ry
     convergence threshold     =      1.0E-08
     mixing beta               =       0.7000
     number of iterations used =            8  plain     mixing
     Exchange-correlation      = SLA PW PSX PSC ( 1  4 10  8 0 0)

     celldm(1)=   7.710000  celldm(2)=   0.000000  celldm(3)=   0.000000
     celldm(4)=   0.000000  celldm(5)=   0.000000  celldm(6)=   0.000000

     crystal axes: (cart. coord. in units of alat)
               a(1) = (  -0.500000   0.000000   0.500000 )  
               a(2) = (   0.000000   0.500000   0.500000 )  
               a(3) = (  -0.500000   0.500000   0.000000 )  

     reciprocal axes: (cart. coord. in units 2 pi/alat)
               b(1) = ( -1.000000 -1.000000  1.000000 )  
               b(2) = (  1.000000  1.000000  1.000000 )  
               b(3) = ( -1.000000  1.000000 -1.000000 )  


     PseudoPot. # 1 for Au read from file:
     /home/lorenzo/pseudos/Au/Au.pbesol-n-kjpaw_psl.1.0.0.UPF
     MD5 check sum: abc371be705c47a6b6a6b4088b452d3e
     Pseudo is Projector augmented-wave + core cor, Zval = 11.0
     Generated using "atomic" code by A. Dal Corso v.6.3
     Shape of augmentation charge: PSQ
     Using radial grid of 1279 points,  6 beta functions with: 
                l(1) =   0
                l(2) =   0
                l(3) =   1
                l(4) =   1
                l(5) =   2
                l(6) =   2
     Q(r) pseudized with 0 coefficients 


     atomic species   valence    mass     pseudopotential
        Au            11.00   196.96600     Au( 1.00)

     48 Sym. Ops., with inversion, found



   Cartesian axes

     site n.     atom                  positions (alat units)
         1           Au  tau(   1) = (   0.0000000   0.0000000   0.0000000  )

     number of k points=    47  gaussian smearing, width (Ry)=  0.0100
                       cart. coord. in units 2pi/alat
        k(    1) = (   0.0000000   0.0000000   0.0000000), wk =   0.0020000
        k(    2) = (  -0.1000000   0.1000000  -0.1000000), wk =   0.0160000
        k(    3) = (  -0.2000000   0.2000000  -0.2000000), wk =   0.0160000
        k(    4) = (  -0.3000000   0.3000000  -0.3000000), wk =   0.0160000
        k(    5) = (  -0.4000000   0.4000000  -0.4000000), wk =   0.0160000
        k(    6) = (   0.5000000  -0.5000000   0.5000000), wk =   0.0080000
        k(    7) = (   0.0000000   0.2000000   0.0000000), wk =   0.0120000
        k(    8) = (  -0.1000000   0.3000000  -0.1000000), wk =   0.0480000
        k(    9) = (  -0.2000000   0.4000000  -0.2000000), wk =   0.0480000
        k(   10) = (  -0.3000000   0.5000000  -0.3000000), wk =   0.0480000
        k(   11) = (   0.6000000  -0.4000000   0.6000000), wk =   0.0480000
        k(   12) = (   0.5000000  -0.3000000   0.5000000), wk =   0.0480000
        k(   13) = (   0.4000000  -0.2000000   0.4000000), wk =   0.0480000
        k(   14) = (   0.3000000  -0.1000000   0.3000000), wk =   0.0480000
        k(   15) = (   0.2000000   0.0000000   0.2000000), wk =   0.0240000
        k(   16) = (   0.0000000   0.4000000   0.0000000), wk =   0.0120000
        k(   17) = (  -0.1000000   0.5000000  -0.1000000), wk =   0.0480000
        k(   18) = (  -0.2000000   0.6000000  -0.2000000), wk =   0.0480000
        k(   19) = (   0.7000000  -0.3000000   0.7000000), wk =   0.0480000
        k(   20) = (   0.6000000  -0.2000000   0.6000000), wk =   0.0480000
        k(   21) = (   0.5000000  -0.1000000   0.5000000), wk =   0.0480000
        k(   22) = (   0.4000000   0.0000000   0.4000000), wk =   0.0240000
        k(   23) = (   0.0000000   0.6000000   0.0000000), wk =   0.0120000
        k(   24) = (  -0.1000000   0.7000000  -0.1000000), wk =   0.0480000
        k(   25) = (   0.8000000  -0.2000000   0.8000000), wk =   0.0480000
        k(   26) = (   0.7000000  -0.1000000   0.7000000), wk =   0.0480000
        k(   27) = (   0.6000000  -0.0000000   0.6000000), wk =   0.0240000
        k(   28) = (   0.0000000   0.8000000   0.0000000), wk =   0.0120000
        k(   29) = (   0.9000000  -0.1000000   0.9000000), wk =   0.0480000
        k(   30) = (   0.8000000   0.0000000   0.8000000), wk =   0.0240000
        k(   31) = (   0.0000000  -1.0000000   0.0000000), wk =   0.0060000
        k(   32) = (  -0.2000000   0.4000000   0.0000000), wk =   0.0480000
        k(   33) = (  -0.3000000   0.5000000  -0.1000000), wk =   0.0960000
        k(   34) = (   0.6000000  -0.4000000   0.8000000), wk =   0.0960000
        k(   35) = (   0.5000000  -0.3000000   0.7000000), wk =   0.0480000
        k(   36) = (  -0.2000000   0.6000000   0.0000000), wk =   0.0480000
        k(   37) = (   0.7000000  -0.3000000   0.9000000), wk =   0.0960000
        k(   38) = (   0.6000000  -0.2000000   0.8000000), wk =   0.0960000
        k(   39) = (   0.5000000  -0.1000000   0.7000000), wk =   0.0960000
        k(   40) = (   0.4000000   0.0000000   0.6000000), wk =   0.0480000
        k(   41) = (   0.8000000  -0.2000000   1.0000000), wk =   0.0480000
        k(   42) = (   0.7000000  -0.1000000   0.9000000), wk =   0.0960000
        k(   43) = (   0.6000000   0.0000000   0.8000000), wk =   0.0480000
        k(   44) = (  -0.2000000  -1.0000000   0.0000000), wk =   0.0240000
        k(   45) = (   0.6000000  -0.2000000   1.0000000), wk =   0.0480000
        k(   46) = (   0.5000000  -0.1000000   0.9000000), wk =   0.0480000
        k(   47) = (  -0.4000000  -1.0000000   0.0000000), wk =   0.0240000

     Dense  grid:     7991 G-vectors     FFT dimensions: (  27,  27,  27)

     Estimated max dynamical RAM per process >       9.00 MB

     Estimated total dynamical RAM >      44.98 MB

     Initial potential from superposition of free atoms

     starting charge   10.99990, renormalised to   11.00000
     Starting wfcs are    9 randomized atomic wfcs +    1 random wfcs
     Checking if some PAW data can be deallocated... 

     total cpu time spent up to now is        1.5 secs

     Self-consistent Calculation

     iteration #  1     ecut=    65.00 Ry     beta= 0.70
     Davidson diagonalization with overlap
     ethr =  1.00E-02,  avg # of iterations =  5.3

     Threshold (ethr) on eigenvalues was too large:
     Diagonalizing with lowered threshold

     Davidson diagonalization with overlap
     ethr =  5.62E-04,  avg # of iterations =  1.6

     total cpu time spent up to now is        2.7 secs

     total energy              =    -764.65886627 Ry
     Harris-Foulkes estimate   =    -764.70080311 Ry
     estimated scf accuracy    <       0.06312966 Ry

     iteration #  2     ecut=    65.00 Ry     beta= 0.70
     Davidson diagonalization with overlap
     ethr =  5.74E-04,  avg # of iterations =  5.1

     total cpu time spent up to now is        4.1 secs

     total energy              =    -736.81252356 Ry
     Harris-Foulkes estimate   =    -767.33431920 Ry
     estimated scf accuracy    <   92581.78198454 Ry

     iteration #  3     ecut=    65.00 Ry     beta= 0.70
     Davidson diagonalization with overlap
     ethr =  5.74E-04,  avg # of iterations =  6.4

     total cpu time spent up to now is        5.3 secs

     total energy              =    -764.67589221 Ry
     Harris-Foulkes estimate   =    -764.68895468 Ry
     estimated scf accuracy    <       0.02497891 Ry

     iteration #  4     ecut=    65.00 Ry     beta= 0.70
     Davidson diagonalization with overlap
     ethr =  2.27E-04,  avg # of iterations =  1.5

     total cpu time spent up to now is        5.9 secs

     total energy              =    -764.68010142 Ry
     Harris-Foulkes estimate   =    -764.68017481 Ry
     estimated scf accuracy    <       0.00363180 Ry

     iteration #  5     ecut=    65.00 Ry     beta= 0.70
     Davidson diagonalization with overlap
     ethr =  3.30E-05,  avg # of iterations =  3.0

     total cpu time spent up to now is        6.6 secs

     total energy              =    -764.68077813 Ry
     Harris-Foulkes estimate   =    -764.68089837 Ry
     estimated scf accuracy    <       0.00307282 Ry

     iteration #  6     ecut=    65.00 Ry     beta= 0.70
     Davidson diagonalization with overlap
     ethr =  2.79E-05,  avg # of iterations =  1.1

     total cpu time spent up to now is        7.4 secs

     total energy              =    -764.68077340 Ry
     Harris-Foulkes estimate   =    -764.68081600 Ry
     estimated scf accuracy    <       0.00286204 Ry

     iteration #  7     ecut=    65.00 Ry     beta= 0.70
     Davidson diagonalization with overlap
     ethr =  2.60E-05,  avg # of iterations =  1.3

     total cpu time spent up to now is        7.9 secs

     total energy              =    -764.68077643 Ry
     Harris-Foulkes estimate   =    -764.68084549 Ry
     estimated scf accuracy    <       0.00303251 Ry

     iteration #  8     ecut=    65.00 Ry     beta= 0.70
     Davidson diagonalization with overlap
     ethr =  2.60E-05,  avg # of iterations =  1.0

     total cpu time spent up to now is        8.4 secs

     total energy              =    -764.68079965 Ry
     Harris-Foulkes estimate   =    -764.68080048 Ry
     estimated scf accuracy    <       0.00293648 Ry

     iteration #  9     ecut=    65.00 Ry     beta= 0.70
     Davidson diagonalization with overlap
     ethr =  2.60E-05,  avg # of iterations =  1.0

     total cpu time spent up to now is        9.0 secs

     total energy              =    -764.68079979 Ry
     Harris-Foulkes estimate   =    -764.68080035 Ry
     estimated scf accuracy    <       0.00291865 Ry

     iteration # 10     ecut=    65.00 Ry     beta= 0.70
     Davidson diagonalization with overlap
     ethr =  2.60E-05,  avg # of iterations =  1.0

     total cpu time spent up to now is        9.5 secs

     total energy              =    -764.68079914 Ry
     Harris-Foulkes estimate   =    -764.68080002 Ry
     estimated scf accuracy    <       0.00290824 Ry

     iteration # 11     ecut=    65.00 Ry     beta= 0.70
     Davidson diagonalization with overlap
     ethr =  2.60E-05,  avg # of iterations =  1.0

     total cpu time spent up to now is       10.0 secs

     total energy              =    -764.68064861 Ry
     Harris-Foulkes estimate   =    -764.68079927 Ry
     estimated scf accuracy    <       0.00289317 Ry

     iteration # 12     ecut=    65.00 Ry     beta= 0.70
     Davidson diagonalization with overlap
     ethr =  2.60E-05,  avg # of iterations =  2.0

     total cpu time spent up to now is       10.7 secs

     total energy              =    -764.68058222 Ry
     Harris-Foulkes estimate   =    -764.68077949 Ry
     estimated scf accuracy    <       0.00074466 Ry

     iteration # 13     ecut=    65.00 Ry     beta= 0.70
     Davidson diagonalization with overlap
     ethr =  6.77E-06,  avg # of iterations =  2.5

     total cpu time spent up to now is       11.3 secs

     total energy              =    -764.68062182 Ry
     Harris-Foulkes estimate   =    -764.68063757 Ry
     estimated scf accuracy    <       0.00004490 Ry

     iteration # 14     ecut=    65.00 Ry     beta= 0.70
     Davidson diagonalization with overlap
     ethr =  4.08E-07,  avg # of iterations =  3.4

     total cpu time spent up to now is       12.2 secs

     total energy              =    -764.68063875 Ry
     Harris-Foulkes estimate   =    -764.68066070 Ry
     estimated scf accuracy    <       0.00007048 Ry

     iteration # 15     ecut=    65.00 Ry     beta= 0.70
     Davidson diagonalization with overlap
     ethr =  4.08E-07,  avg # of iterations =  1.0

     total cpu time spent up to now is       13.0 secs

     total energy              =    -764.68063627 Ry
     Harris-Foulkes estimate   =    -764.68064145 Ry
     estimated scf accuracy    <       0.00001953 Ry

     iteration # 16     ecut=    65.00 Ry     beta= 0.70
     Davidson diagonalization with overlap
     ethr =  1.78E-07,  avg # of iterations =  1.9

     total cpu time spent up to now is       13.6 secs

     total energy              =    -764.68063739 Ry
     Harris-Foulkes estimate   =    -764.68063857 Ry
     estimated scf accuracy    <       0.00000270 Ry

     iteration # 17     ecut=    65.00 Ry     beta= 0.70
     Davidson diagonalization with overlap
     ethr =  2.45E-08,  avg # of iterations =  2.7

     total cpu time spent up to now is       14.4 secs

     total energy              =    -764.68063824 Ry
     Harris-Foulkes estimate   =    -764.68063823 Ry
     estimated scf accuracy    <       0.00000064 Ry

     iteration # 18     ecut=    65.00 Ry     beta= 0.70
     Davidson diagonalization with overlap
     ethr =  5.80E-09,  avg # of iterations =  2.0

     total cpu time spent up to now is       15.0 secs

     total energy              =    -764.68063832 Ry
     Harris-Foulkes estimate   =    -764.68063834 Ry
     estimated scf accuracy    <       0.00000007 Ry

     iteration # 19     ecut=    65.00 Ry     beta= 0.70
     Davidson diagonalization with overlap
     ethr =  6.73E-10,  avg # of iterations =  2.5

     total cpu time spent up to now is       15.6 secs

     total energy              =    -764.68063834 Ry
     Harris-Foulkes estimate   =    -764.68063834 Ry
     estimated scf accuracy    <       0.00000002 Ry

     iteration # 20     ecut=    65.00 Ry     beta= 0.70
     Davidson diagonalization with overlap
     ethr =  1.96E-10,  avg # of iterations =  2.3

     total cpu time spent up to now is       16.1 secs

     End of self-consistent calculation

          k = 0.0000 0.0000 0.0000 (   965 PWs)   bands (ev):

     5.8124  11.0820  11.0820  11.0820  12.6218  12.6218  31.1309  34.9846
    34.9846  34.9846

          k =-0.1000 0.1000-0.1000 (   992 PWs)   bands (ev):

     6.1576  10.9754  11.1966  11.1966  12.5762  12.5762  31.4472  32.8995
    35.3133  35.3133

          k =-0.2000 0.2000-0.2000 (   995 PWs)   bands (ev):

     7.0834  10.8358  11.3715  11.3715  12.6202  12.6202  29.0439  32.2432
    35.9473  35.9473

          k =-0.3000 0.3000-0.3000 (  1011 PWs)   bands (ev):

     8.0609  11.2990  11.2990  11.3152  13.0480  13.0480  25.0433  31.6449
    35.4120  35.4120

          k =-0.4000 0.4000-0.4000 (  1017 PWs)   bands (ev):

     8.3926  11.1233  11.1233  13.0901  13.5926  13.5926  21.1645  30.7529
    33.9592  33.9592

          k = 0.5000-0.5000 0.5000 (  1008 PWs)   bands (ev):

     8.4138  11.0463  11.0463  13.8335  13.8335  14.7342  18.8708  30.4106
    33.3323  33.3323

          k = 0.0000 0.2000 0.0000 (  1002 PWs)   bands (ev):

     6.2742  10.8470  11.2934  11.2934  12.3727  12.7251  31.6548  33.5978
    34.4236  34.4236

          k =-0.1000 0.3000-0.1000 (   998 PWs)   bands (ev):

     7.0216  10.6194  11.4889  11.5231  12.2516  12.8504  30.5121  32.3655
    33.8569  35.3545

          k =-0.2000 0.4000-0.2000 (  1012 PWs)   bands (ev):

     8.0700  10.6607  11.3121  11.5609  12.8189  13.2099  26.5645  32.0924
    33.1869  35.2759

          k =-0.3000 0.5000-0.3000 (  1009 PWs)   bands (ev):

     8.6085  11.0275  11.4012  11.5925  13.6798  14.0167  22.5231  31.1437
    32.4962  33.6359

          k = 0.6000-0.4000 0.6000 (  1015 PWs)   bands (ev):

     8.6655  10.8879  11.2623  12.6165  13.8497  15.8056  19.2274  30.5149
    32.2560  32.4701

          k = 0.5000-0.3000 0.5000 (  1016 PWs)   bands (ev):

     8.6742  10.9407  11.2599  12.5299  13.5307  15.3012  20.1885  30.4063
    31.8988  33.5914

          k = 0.4000-0.2000 0.4000 (  1007 PWs)   bands (ev):

     8.5356  11.0815  11.3938  11.4077  12.8860  14.0335  23.8699  30.7835
    32.6912  35.8299

          k = 0.3000-0.1000 0.3000 (  1007 PWs)   bands (ev):

     7.7368  10.6529  11.3965  11.5670  12.3149  13.2272  27.8756  31.3626
    34.2219  36.2191

          k = 0.2000 0.0000 0.2000 (   997 PWs)   bands (ev):

     6.7075  10.7826  11.3695  11.3810  12.3357  12.7646  31.2780  31.6755
    34.2623  36.7459

          k = 0.0000 0.4000 0.0000 (   998 PWs)   bands (ev):

     7.5274  10.2753  11.8579  11.9024  11.9024  13.0030  32.2242  32.2242
    32.3470  32.9546

          k =-0.1000 0.5000-0.1000 (  1011 PWs)   bands (ev):

     8.4043  10.0368  11.4421  12.1425  12.7746  13.2999  28.3610  31.0020
    32.0264  33.4506

          k =-0.2000 0.6000-0.2000 (  1011 PWs)   bands (ev):

     9.0520  10.2749  11.1230  12.0491  13.7483  14.3301  24.1651  30.2334
    30.3178  33.0004

          k = 0.7000-0.3000 0.7000 (  1015 PWs)   bands (ev):

     9.1890  10.5413  11.4241  11.8697  13.8942  16.6178  20.4101  28.6533
    30.5058  32.4368

          k = 0.6000-0.2000 0.6000 (  1012 PWs)   bands (ev):

     9.2978  10.5718  11.6724  11.7695  13.5335  17.3400  19.7359  27.5654
    31.7876  32.1901

          k = 0.5000-0.1000 0.5000 (  1015 PWs)   bands (ev):

     9.3731  10.7156  11.0795  11.8145  12.8359  15.4877  23.1717  27.3271
    32.5318  33.9984

          k = 0.4000 0.0000 0.4000 (  1007 PWs)   bands (ev):

     8.7907  10.4441  11.1812  11.9812  12.1329  14.2165  26.3893  28.4285
    33.4986  36.3683

          k = 0.0000 0.6000 0.0000 (  1018 PWs)   bands (ev):

     8.7475   9.6393  12.1416  12.8064  12.8064  13.3620  29.2714  29.2714
    29.6858  32.2602

          k =-0.1000 0.7000-0.1000 (  1022 PWs)   bands (ev):

     9.0251   9.4997  12.1770  12.9177  13.7596  14.3452  25.6444  27.8886
    28.2747  33.2176

          k = 0.8000-0.2000 0.8000 (  1014 PWs)   bands (ev):

     9.2030   9.7853  11.8835  12.7261  13.9575  16.8869  22.0031  26.0657
    28.3347  33.4150

          k = 0.7000-0.1000 0.7000 (  1015 PWs)   bands (ev):

     9.4575  10.2443  11.4831  12.5057  13.6344  18.9857  20.1275  24.4327
    29.5569  33.1259

          k = 0.6000-0.0000 0.6000 (  1011 PWs)   bands (ev):

     9.7768  10.6405  10.8810  12.2500  13.0914  17.0658  23.1386  23.7470
    31.6344  32.8030

          k = 0.0000 0.8000 0.0000 (  1014 PWs)   bands (ev):

     8.8005   9.1700  13.6665  13.7335  13.7335  14.4978  24.5597  26.8846
    26.8846  32.5523

          k = 0.9000-0.1000 0.9000 (  1007 PWs)   bands (ev):

     8.8499   9.1803  13.3061  13.5163  14.0485  16.8692  22.2171  25.3237
    26.6166  33.4719

          k = 0.8000 0.0000 0.8000 (  1015 PWs)   bands (ev):

     9.1163   9.5988  12.4081  13.1670  13.8683  19.4448  20.3872  23.5965
    27.6304  33.7544

          k = 0.0000-1.0000 0.0000 (   998 PWs)   bands (ev):

     8.6647   8.9998  13.7865  14.1625  14.1625  16.7421  21.5055  25.9421
    25.9421  32.7762

          k =-0.2000 0.4000 0.0000 (  1004 PWs)   bands (ev):

     7.8828  10.3609  11.3982  11.9084  12.2256  13.2667  29.0475  30.5989
    33.9973  34.5112

          k =-0.3000 0.5000-0.1000 (  1013 PWs)   bands (ev):

     8.8512  10.4389  11.0364  11.9301  12.7998  14.1612  25.4661  29.4839
    32.1512  35.1727

          k = 0.6000-0.4000 0.8000 (  1014 PWs)   bands (ev):

     9.1228  10.7197  11.2996  11.7741  13.5035  15.6163  21.6135  29.1827
    30.7198  33.9103

          k = 0.5000-0.3000 0.7000 (  1018 PWs)   bands (ev):

     9.1193  10.5981  11.6345  11.9046  13.7295  17.5165  18.8273  29.4843
    29.8151  33.2853

          k =-0.2000 0.6000 0.0000 (  1019 PWs)   bands (ev):

     9.0872   9.8206  11.2846  12.7987  12.8867  14.1567  26.7078  28.2401
    30.1702  35.0774

          k = 0.7000-0.3000 0.9000 (  1022 PWs)   bands (ev):

     9.4565  10.0530  11.0705  12.6066  13.5850  15.8571  23.2648  27.2245
    28.5822  34.7928

          k = 0.6000-0.2000 0.8000 (  1023 PWs)   bands (ev):

     9.6024  10.2757  11.1830  12.3196  13.7504  18.3637  19.9634  26.4324
    28.3082  34.4585

          k = 0.5000-0.1000 0.7000 (  1015 PWs)   bands (ev):

     9.8396  10.3228  10.9693  12.2585  13.4276  17.3707  21.4968  25.5450
    29.4304  34.7256

          k = 0.4000 0.0000 0.6000 (  1017 PWs)   bands (ev):

     9.7936  10.3090  10.6214  12.3834  12.8299  15.5670  24.3683  26.1070
    30.8442  35.7313

          k = 0.8000-0.2000 1.0000 (  1018 PWs)   bands (ev):

     9.1244   9.4097  12.2341  13.4336  13.7288  16.0771  23.7852  26.0905
    26.7194  34.6296

          k = 0.7000-0.1000 0.9000 (  1015 PWs)   bands (ev):

     9.3327   9.7232  11.8455  12.9969  13.9714  18.6252  21.3869  24.3172
    26.6156  35.2422

          k = 0.6000 0.0000 0.8000 (  1014 PWs)   bands (ev):

     9.6643  10.2204  11.2073  12.5830  13.7308  19.0802  21.7173  22.8520
    27.8466  35.0763

          k =-0.2000-1.0000 0.0000 (  1016 PWs)   bands (ev):

     8.9698   9.2591  12.9173  13.4245  14.1632  18.3061  21.1268  25.2084
    25.5327  34.7221

          k = 0.6000-0.2000 1.0000 (  1031 PWs)   bands (ev):

     9.8621  10.1130  10.8110  12.7442  13.7196  17.7743  22.8382  24.1344
    27.0344  37.1902

          k = 0.5000-0.1000 0.9000 (  1022 PWs)   bands (ev):

     9.8992  10.3497  10.7422  12.4893  13.9472  19.6124  21.0495  23.8185
    26.2018  37.1741

          k =-0.4000-1.0000 0.0000 (  1020 PWs)   bands (ev):

     9.6302  10.0299  11.2834  12.6461  14.1643  20.6009  20.8271  23.3063
    25.1424  38.0570

     the Fermi energy is    15.7450 ev

!    total energy              =    -764.68063835 Ry
     Harris-Foulkes estimate   =    -764.68063835 Ry
     estimated scf accuracy    <          4.6E-09 Ry

     total all-electron energy =    -38013.515101 Ry

     The total energy is the sum of the following terms:

     one-electron contribution =      13.86575038 Ry
     hartree contribution      =       7.57511781 Ry
     xc contribution           =     -31.82133046 Ry
     ewald contribution        =     -71.95438534 Ry
     one-center paw contrib.   =    -682.34540303 Ry
     smearing contrib. (-TS)   =      -0.00038770 Ry

     convergence has been achieved in  20 iterations

     Forces acting on atoms (cartesian axes, Ry/au):

     atom    1 type  1   force =     0.00000000    0.00000000    0.00000000

     Total force =     0.000000     Total SCF correction =     0.000000


     Computing stress (Cartesian axis) and pressure

          total   stress  (Ry/bohr**3)                   (kbar)     P=   16.78
   0.00011409   0.00000000  -0.00000000         16.78      0.00     -0.00
   0.00000000   0.00011409  -0.00000000          0.00     16.78     -0.00
  -0.00000000  -0.00000000   0.00011409         -0.00     -0.00     16.78


     Writing output data file Au.save/

     init_run     :      0.46s CPU      0.49s WALL (       1 calls)
     electrons    :     13.83s CPU     14.62s WALL (       1 calls)
     forces       :      0.06s CPU      0.06s WALL (       1 calls)
     stress       :      0.21s CPU      0.21s WALL (       1 calls)

     Called by init_run:
     wfcinit      :      0.14s CPU      0.15s WALL (       1 calls)
     potinit      :      0.12s CPU      0.14s WALL (       1 calls)
     hinit0       :      0.17s CPU      0.17s WALL (       1 calls)

     Called by electrons:
     c_bands      :      9.59s CPU     10.01s WALL (      21 calls)
     sum_band     :      1.77s CPU      1.82s WALL (      21 calls)
     v_of_rho     :      0.09s CPU      0.10s WALL (      21 calls)
     newd         :      0.19s CPU      0.22s WALL (      21 calls)
     PAW_pot      :      2.27s CPU      2.57s WALL (      21 calls)
     mix_rho      :      0.02s CPU      0.02s WALL (      21 calls)

     Called by c_bands:
     init_us_2    :      0.27s CPU      0.28s WALL (    2115 calls)
     cegterg      :      9.16s CPU      9.56s WALL (     987 calls)

     Called by sum_band:
     sum_band:bec :      0.01s CPU      0.01s WALL (     987 calls)
     addusdens    :      0.15s CPU      0.16s WALL (      21 calls)

     Called by *egterg:
     h_psi        :      6.84s CPU      7.16s WALL (    3369 calls)
     s_psi        :      0.20s CPU      0.21s WALL (    3369 calls)
     g_psi        :      0.02s CPU      0.02s WALL (    2335 calls)
     cdiaghg      :      0.84s CPU      0.87s WALL (    3275 calls)

     Called by h_psi:
     h_psi:pot    :      6.81s CPU      7.12s WALL (    3369 calls)
     h_psi:calbec :      0.40s CPU      0.42s WALL (    3369 calls)
     vloc_psi     :      6.17s CPU      6.45s WALL (    3369 calls)
     add_vuspsi   :      0.21s CPU      0.22s WALL (    3369 calls)

     General routines
     calbec       :      0.56s CPU      0.59s WALL (    4591 calls)
     fft          :      0.07s CPU      0.07s WALL (     258 calls)
     ffts         :      0.00s CPU      0.00s WALL (      21 calls)
     fftw         :      7.00s CPU      7.30s WALL (   59892 calls)

     Parallel routines
     fft_scatt_xy :      0.53s CPU      0.55s WALL (   60171 calls)
     fft_scatt_yz :      2.41s CPU      2.49s WALL (   60171 calls)

     PWSCF        :    15.60s CPU        16.50s WALL


   This run was terminated on:  11:57:43  26Mar2024            

=------------------------------------------------------------------------------=
   JOB DONE.
=------------------------------------------------------------------------------=
