
     Program PWSCF v.6.3MaX starts on 26Mar2024 at 11:36:24 

     This program is part of the open-source Quantum ESPRESSO suite
     for quantum simulation of materials; please cite
         "P. Giannozzi et al., J. Phys.:Condens. Matter 21 395502 (2009);
         "P. Giannozzi et al., J. Phys.:Condens. Matter 29 465901 (2017);
          URL http://www.quantum-espresso.org", 
     in publications or presentations arising from this work. More details at
     http://www.quantum-espresso.org/quote

     Parallel version (MPI), running on     5 processors

     MPI processes distributed on     1 nodes
     R & G space division:  proc/nbgrp/npool/nimage =       5
     Waiting for input...
     Reading input from standard input

     Current dimensions of program PWSCF are:
     Max number of different atomic species (ntypx) = 10
     Max number of k-points (npk) =  40000
     Max angular momentum in pseudopotentials (lmaxx) =  3

     Subspace diagonalization in iterative solution of the eigenvalue problem:
     a serial algorithm will be used


     Parallelization info
     --------------------
     sticks:   dense  smooth     PW     G-vecs:    dense   smooth      PW
     Min          73      73     24                  928      928     178
     Max          74      74     25                  930      930     181
     Sum         367     367    121                 4645     4645     893



     bravais-lattice index     =            2
     lattice parameter (alat)  =       7.7100  a.u.
     unit-cell volume          =     114.5785 (a.u.)^3
     number of atoms/cell      =            1
     number of atomic types    =            1
     number of electrons       =        11.00
     number of Kohn-Sham states=           10
     kinetic-energy cutoff     =      45.0000  Ry
     charge density cutoff     =     180.0000  Ry
     convergence threshold     =      1.0E-08
     mixing beta               =       0.7000
     number of iterations used =            8  plain     mixing
     Exchange-correlation      = PBE ( 1  4  3  4 0 0)

     celldm(1)=   7.710000  celldm(2)=   0.000000  celldm(3)=   0.000000
     celldm(4)=   0.000000  celldm(5)=   0.000000  celldm(6)=   0.000000

     crystal axes: (cart. coord. in units of alat)
               a(1) = (  -0.500000   0.000000   0.500000 )  
               a(2) = (   0.000000   0.500000   0.500000 )  
               a(3) = (  -0.500000   0.500000   0.000000 )  

     reciprocal axes: (cart. coord. in units 2 pi/alat)
               b(1) = ( -1.000000 -1.000000  1.000000 )  
               b(2) = (  1.000000  1.000000  1.000000 )  
               b(3) = ( -1.000000  1.000000 -1.000000 )  


     PseudoPot. # 1 for Au read from file:
     /home/lorenzo/pseudos/Au/Au.pbe-n-rrkjus_psl.1.0.0.UPF
     MD5 check sum: d7e77ba19504afed2c9b41c931dde4f0
     Pseudo is Ultrasoft + core correction, Zval = 11.0
     Generated using "atomic" code by A. Dal Corso v.6.3
     Using radial grid of 1279 points,  6 beta functions with: 
                l(1) =   0
                l(2) =   0
                l(3) =   1
                l(4) =   1
                l(5) =   2
                l(6) =   2
     Q(r) pseudized with 0 coefficients 


     atomic species   valence    mass     pseudopotential
        Au            11.00   196.96600     Au( 1.00)

     48 Sym. Ops., with inversion, found



   Cartesian axes

     site n.     atom                  positions (alat units)
         1           Au  tau(   1) = (   0.0000000   0.0000000   0.0000000  )

     number of k points=    56  gaussian smearing, width (Ry)=  0.0100
                       cart. coord. in units 2pi/alat
        k(    1) = (   0.0000000   0.0000000   0.0000000), wk =   0.0015026
        k(    2) = (  -0.0909091   0.0909091  -0.0909091), wk =   0.0120210
        k(    3) = (  -0.1818182   0.1818182  -0.1818182), wk =   0.0120210
        k(    4) = (  -0.2727273   0.2727273  -0.2727273), wk =   0.0120210
        k(    5) = (  -0.3636364   0.3636364  -0.3636364), wk =   0.0120210
        k(    6) = (  -0.4545455   0.4545455  -0.4545455), wk =   0.0120210
        k(    7) = (   0.0000000   0.1818182   0.0000000), wk =   0.0090158
        k(    8) = (  -0.0909091   0.2727273  -0.0909091), wk =   0.0360631
        k(    9) = (  -0.1818182   0.3636364  -0.1818182), wk =   0.0360631
        k(   10) = (  -0.2727273   0.4545455  -0.2727273), wk =   0.0360631
        k(   11) = (  -0.3636364   0.5454545  -0.3636364), wk =   0.0360631
        k(   12) = (   0.5454545  -0.3636364   0.5454545), wk =   0.0360631
        k(   13) = (   0.4545455  -0.2727273   0.4545455), wk =   0.0360631
        k(   14) = (   0.3636364  -0.1818182   0.3636364), wk =   0.0360631
        k(   15) = (   0.2727273  -0.0909091   0.2727273), wk =   0.0360631
        k(   16) = (   0.1818182  -0.0000000   0.1818182), wk =   0.0180316
        k(   17) = (   0.0000000   0.3636364   0.0000000), wk =   0.0090158
        k(   18) = (  -0.0909091   0.4545455  -0.0909091), wk =   0.0360631
        k(   19) = (  -0.1818182   0.5454545  -0.1818182), wk =   0.0360631
        k(   20) = (  -0.2727273   0.6363636  -0.2727273), wk =   0.0360631
        k(   21) = (   0.6363636  -0.2727273   0.6363636), wk =   0.0360631
        k(   22) = (   0.5454545  -0.1818182   0.5454545), wk =   0.0360631
        k(   23) = (   0.4545455  -0.0909091   0.4545455), wk =   0.0360631
        k(   24) = (   0.3636364   0.0000000   0.3636364), wk =   0.0180316
        k(   25) = (   0.0000000   0.5454545   0.0000000), wk =   0.0090158
        k(   26) = (  -0.0909091   0.6363636  -0.0909091), wk =   0.0360631
        k(   27) = (  -0.1818182   0.7272727  -0.1818182), wk =   0.0360631
        k(   28) = (   0.7272727  -0.1818182   0.7272727), wk =   0.0360631
        k(   29) = (   0.6363636  -0.0909091   0.6363636), wk =   0.0360631
        k(   30) = (   0.5454545   0.0000000   0.5454545), wk =   0.0180316
        k(   31) = (   0.0000000   0.7272727   0.0000000), wk =   0.0090158
        k(   32) = (  -0.0909091   0.8181818  -0.0909091), wk =   0.0360631
        k(   33) = (   0.8181818  -0.0909091   0.8181818), wk =   0.0360631
        k(   34) = (   0.7272727   0.0000000   0.7272727), wk =   0.0180316
        k(   35) = (   0.0000000   0.9090909   0.0000000), wk =   0.0090158
        k(   36) = (   0.9090909  -0.0000000   0.9090909), wk =   0.0180316
        k(   37) = (  -0.1818182   0.3636364   0.0000000), wk =   0.0360631
        k(   38) = (  -0.2727273   0.4545455  -0.0909091), wk =   0.0721262
        k(   39) = (  -0.3636364   0.5454545  -0.1818182), wk =   0.0721262
        k(   40) = (   0.5454545  -0.3636364   0.7272727), wk =   0.0721262
        k(   41) = (  -0.1818182   0.5454545   0.0000000), wk =   0.0360631
        k(   42) = (  -0.2727273   0.6363636  -0.0909091), wk =   0.0721262
        k(   43) = (   0.6363636  -0.2727273   0.8181818), wk =   0.0721262
        k(   44) = (   0.5454545  -0.1818182   0.7272727), wk =   0.0721262
        k(   45) = (   0.4545455  -0.0909091   0.6363636), wk =   0.0721262
        k(   46) = (   0.3636364   0.0000000   0.5454545), wk =   0.0360631
        k(   47) = (  -0.1818182   0.7272727   0.0000000), wk =   0.0360631
        k(   48) = (   0.7272727  -0.1818182   0.9090909), wk =   0.0721262
        k(   49) = (   0.6363636  -0.0909091   0.8181818), wk =   0.0721262
        k(   50) = (   0.5454545   0.0000000   0.7272727), wk =   0.0360631
        k(   51) = (   0.8181818  -0.0909091   1.0000000), wk =   0.0360631
        k(   52) = (   0.7272727   0.0000000   0.9090909), wk =   0.0360631
        k(   53) = (   0.6363636  -0.2727273   1.0000000), wk =   0.0360631
        k(   54) = (   0.5454545  -0.1818182   0.9090909), wk =   0.0721262
        k(   55) = (   0.6363636  -0.0909091   1.0000000), wk =   0.0360631
        k(   56) = (   0.5454545   0.0000000   0.9090909), wk =   0.0360631

     Dense  grid:     4645 G-vectors     FFT dimensions: (  24,  24,  24)

     Estimated max dynamical RAM per process >       5.80 MB

     Estimated total dynamical RAM >      29.00 MB

     Initial potential from superposition of free atoms

     starting charge   10.99989, renormalised to   11.00000
     Starting wfcs are    9 randomized atomic wfcs +    1 random wfcs

     total cpu time spent up to now is        1.2 secs

     Self-consistent Calculation

     iteration #  1     ecut=    45.00 Ry     beta= 0.70
     Davidson diagonalization with overlap
     ethr =  1.00E-02,  avg # of iterations =  5.2

     Threshold (ethr) on eigenvalues was too large:
     Diagonalizing with lowered threshold

     Davidson diagonalization with overlap
     ethr =  4.75E-04,  avg # of iterations =  1.7

     total cpu time spent up to now is        2.1 secs

     total energy              =     -85.37070080 Ry
     Harris-Foulkes estimate   =     -85.40376804 Ry
     estimated scf accuracy    <       0.05254364 Ry

     iteration #  2     ecut=    45.00 Ry     beta= 0.70
     Davidson diagonalization with overlap
     ethr =  4.78E-04,  avg # of iterations =  2.4

     total cpu time spent up to now is        2.5 secs

     total energy              =     -85.38479282 Ry
     Harris-Foulkes estimate   =     -85.39172874 Ry
     estimated scf accuracy    <       0.01108441 Ry

     iteration #  3     ecut=    45.00 Ry     beta= 0.70
     Davidson diagonalization with overlap
     ethr =  1.01E-04,  avg # of iterations =  2.2

     total cpu time spent up to now is        2.8 secs

     total energy              =     -85.38745636 Ry
     Harris-Foulkes estimate   =     -85.38750194 Ry
     estimated scf accuracy    <       0.00017472 Ry

     iteration #  4     ecut=    45.00 Ry     beta= 0.70
     Davidson diagonalization with overlap
     ethr =  1.59E-06,  avg # of iterations =  3.7

     total cpu time spent up to now is        3.4 secs

     total energy              =     -85.38757923 Ry
     Harris-Foulkes estimate   =     -85.38762791 Ry
     estimated scf accuracy    <       0.00009288 Ry

     iteration #  5     ecut=    45.00 Ry     beta= 0.70
     Davidson diagonalization with overlap
     ethr =  8.44E-07,  avg # of iterations =  1.0

     total cpu time spent up to now is        3.7 secs

     total energy              =     -85.38758601 Ry
     Harris-Foulkes estimate   =     -85.38758928 Ry
     estimated scf accuracy    <       0.00000541 Ry

     iteration #  6     ecut=    45.00 Ry     beta= 0.70
     Davidson diagonalization with overlap
     ethr =  4.92E-08,  avg # of iterations =  3.0

     total cpu time spent up to now is        4.1 secs

     total energy              =     -85.38759019 Ry
     Harris-Foulkes estimate   =     -85.38759046 Ry
     estimated scf accuracy    <       0.00000083 Ry

     iteration #  7     ecut=    45.00 Ry     beta= 0.70
     Davidson diagonalization with overlap
     ethr =  7.55E-09,  avg # of iterations =  1.0

     total cpu time spent up to now is        4.5 secs

     total energy              =     -85.38759008 Ry
     Harris-Foulkes estimate   =     -85.38759023 Ry
     estimated scf accuracy    <       0.00000024 Ry

     iteration #  8     ecut=    45.00 Ry     beta= 0.70
     Davidson diagonalization with overlap
     ethr =  2.17E-09,  avg # of iterations =  2.5

     total cpu time spent up to now is        4.8 secs

     total energy              =     -85.38759016 Ry
     Harris-Foulkes estimate   =     -85.38759017 Ry
     estimated scf accuracy    <       0.00000002 Ry

     iteration #  9     ecut=    45.00 Ry     beta= 0.70
     Davidson diagonalization with overlap
     ethr =  2.08E-10,  avg # of iterations =  2.1

     total cpu time spent up to now is        5.2 secs

     End of self-consistent calculation

          k = 0.0000 0.0000 0.0000 (   561 PWs)   bands (ev):

     6.0952  11.3127  11.3127  11.3127  12.8412  12.8412  31.3956  35.2587
    35.2587  35.2587

          k =-0.0909 0.0909-0.0909 (   576 PWs)   bands (ev):

     6.3816  11.2232  11.4093  11.4093  12.8015  12.8015  31.6626  33.4346
    35.5363  35.5363

          k =-0.1818 0.1818-0.1818 (   582 PWs)   bands (ev):

     7.1685  11.0767  11.5830  11.5830  12.8076  12.8076  29.9652  32.4647
    36.1285  36.1285

          k =-0.2727 0.2727-0.2727 (   577 PWs)   bands (ev):

     8.1167  11.3094  11.5691  11.5691  13.1221  13.1221  26.3899  32.1513
    35.9903  35.9903

          k =-0.3636 0.3636-0.3636 (   595 PWs)   bands (ev):

     8.5940  11.4091  11.4091  12.5871  13.6335  13.6335  22.7577  31.2982
    34.7140  34.7140

          k =-0.4545 0.4545-0.4545 (   586 PWs)   bands (ev):

     8.6597  11.2893  11.2893  14.0029  14.0029  14.5394  19.7236  30.7548
    33.7540  33.7540

          k = 0.0000 0.1818 0.0000 (   569 PWs)   bands (ev):

     6.4782  11.1171  11.4878  11.4878  12.6332  12.9271  31.8164  34.0506
    34.7903  34.7903

          k =-0.0909 0.2727-0.0909 (   579 PWs)   bands (ev):

     7.1074  10.9163  11.6774  11.6926  12.4919  13.0206  31.2430  32.5251
    34.3519  35.6659

          k =-0.1818 0.3636-0.1818 (   579 PWs)   bands (ev):

     8.0592  10.8719  11.6138  11.7718  12.8337  13.2923  27.7681  32.4915
    33.8434  36.1471

          k =-0.2727 0.4545-0.2727 (   588 PWs)   bands (ev):

     8.7307  11.3517  11.5234  11.6516  13.7198  13.7365  24.0637  31.7118
    33.1696  34.7048

          k =-0.3636 0.5455-0.3636 (   587 PWs)   bands (ev):

     8.8665  11.1769  11.4991  12.6356  14.0468  15.1466  20.6664  31.0142
    32.8052  33.1943

          k = 0.5455-0.3636 0.5455 (   583 PWs)   bands (ev):

     8.8727  11.1437  11.4338  13.1042  13.9848  16.1571  19.1816  30.7409
    32.3513  33.2659

          k = 0.4545-0.2727 0.4545 (   584 PWs)   bands (ev):

     8.8659  11.2550  11.4979  12.4609  13.5463  14.8339  21.7626  30.9098
    32.4733  34.7178

          k = 0.3636-0.1818 0.3636 (   587 PWs)   bands (ev):

     8.5932  11.2264  11.5415  11.6645  12.9401  13.9078  25.3034  31.3973
    33.4732  37.0046

          k = 0.2727-0.0909 0.2727 (   572 PWs)   bands (ev):

     7.7350  10.9062  11.6474  11.7567  12.5211  13.2731  28.9291  31.8717
    34.6674  36.6718

          k = 0.1818-0.0000 0.1818 (   574 PWs)   bands (ev):

     6.8414  11.0578  11.5512  11.5797  12.5973  12.9416  31.9076  31.9815
    34.5805  36.7639

          k = 0.0000 0.3636 0.0000 (   572 PWs)   bands (ev):

     7.5425  10.6241  11.9958  11.9958  12.1644  13.1627  32.8368  32.8878
    32.9625  32.9625

          k =-0.0909 0.4545-0.0909 (   576 PWs)   bands (ev):

     8.3464  10.3907  11.7281  12.2328  12.7219  13.3970  29.4169  31.8831
    32.8578  34.0425

          k =-0.1818 0.5455-0.1818 (   591 PWs)   bands (ev):

     9.1025  10.5060  11.3707  12.1954  13.8111  13.9025  25.6021  31.1476
    31.5850  33.3980

          k =-0.2727 0.6364-0.2727 (   588 PWs)   bands (ev):

     9.3242  10.8732  11.4844  12.0344  14.0999  15.6760  21.9938  30.1122
    30.9864  32.7623

          k = 0.6364-0.2727 0.6364 (   578 PWs)   bands (ev):

     9.3813  10.8328  11.9061  12.0420  14.0032  17.8412  19.1627  28.9249
    31.6704  32.3343

          k = 0.5455-0.1818 0.5455 (   585 PWs)   bands (ev):

     9.4624  10.9192  11.8860  11.8901  13.5203  16.4936  21.2238  28.2840
    32.3920  33.2565

          k = 0.4545-0.0909 0.4545 (   585 PWs)   bands (ev):

     9.4051  10.9332  11.3027  11.9983  12.8467  15.0877  24.5288  28.3673
    33.0467  35.5324

          k = 0.3636 0.0000 0.3636 (   582 PWs)   bands (ev):

     8.6744  10.7008  11.5128  12.1986  12.2340  14.0560  27.5353  29.4429
    34.2976  36.0237

          k = 0.0000 0.5455 0.0000 (   584 PWs)   bands (ev):

     8.7936  10.0365  12.1067  12.7708  12.7708  13.4837  30.3105  30.3105
    31.5173  32.6593

          k =-0.0909 0.6364-0.0909 (   587 PWs)   bands (ev):

     9.2197   9.8642  12.0970  12.9383  13.8230  13.8918  27.0944  29.2758
    29.5550  33.4303

          k =-0.1818 0.7273-0.1818 (   591 PWs)   bands (ev):

     9.4394  10.0628  11.9083  12.7989  14.1444  15.8906  23.4806  27.8471
    29.0004  33.5335

          k = 0.7273-0.1818 0.7273 (   588 PWs)   bands (ev):

     9.5963  10.4300  11.7534  12.6148  14.0626  18.4245  20.4219  26.2936
    29.6658  33.2880

          k = 0.6364-0.0909 0.6364 (   587 PWs)   bands (ev):

     9.8595  10.7142  11.4612  12.4648  13.6030  18.0639  21.3876  25.1172
    31.2130  33.0676

          k = 0.5455 0.0000 0.5455 (   584 PWs)   bands (ev):

    10.0382  10.8943  11.0015  12.3190  13.0586  16.4279  23.9844  25.2368
    33.0084  33.3310

          k = 0.0000 0.7273 0.0000 (   576 PWs)   bands (ev):

     9.1151   9.5432  13.6472  13.6472  13.7327  13.7924  26.6639  27.8979
    27.8979  32.8268

          k =-0.0909 0.8182-0.0909 (   593 PWs)   bands (ev):

     9.1510   9.4836  13.2767  13.5892  14.1732  15.9067  24.0413  26.4269
    27.3379  33.6725

          k = 0.8182-0.0909 0.8182 (   585 PWs)   bands (ev):

     9.3219   9.7670  12.7051  13.3682  14.1689  18.4930  21.5658  24.6670
    27.8175  34.0030

          k = 0.7273 0.0000 0.7273 (   590 PWs)   bands (ev):

     9.6088  10.2944  11.9711  13.0170  13.8523  19.5578  21.1783  23.3417
    29.2351  33.6687

          k = 0.0000 0.9091 0.0000 (   596 PWs)   bands (ev):

     8.9422   9.2677  13.9828  14.2874  14.2874  16.3604  22.6501  26.4310
    26.4310  33.1811

          k = 0.9091-0.0000 0.9091 (   590 PWs)   bands (ev):

     9.0302   9.3461  13.8007  13.8586  14.3204  17.8064  21.6108  25.4571
    26.6079  33.8604

          k =-0.1818 0.3636 0.0000 (   579 PWs)   bands (ev):

     7.8495  10.6807  11.6904  12.0017  12.4122  13.3229  29.9791  31.2992
    34.4848  34.9575

          k =-0.2727 0.4545-0.0909 (   583 PWs)   bands (ev):

     8.7864  10.6556  11.4076  12.0873  12.8229  14.0004  26.7547  30.3558
    33.1732  35.5152

          k =-0.3636 0.5455-0.1818 (   587 PWs)   bands (ev):

     9.2320  11.1018  11.3247  11.9424  13.5257  15.0679  23.1470  29.9489
    31.7592  34.5792

          k = 0.5455-0.3636 0.7273 (   584 PWs)   bands (ev):

     9.2583  10.9194  11.7687  12.1932  13.9240  16.7885  19.9466  30.0534
    30.7227  33.5369

          k =-0.1818 0.5455 0.0000 (   587 PWs)   bands (ev):

     9.0676  10.1695  11.5199  12.7646  12.9190  13.9803  27.9378  29.3098
    31.6391  35.1537

          k =-0.2727 0.6364-0.0909 (   585 PWs)   bands (ev):

     9.5894  10.3067  11.2541  12.6862  13.6062  15.2172  24.6656  28.3283
    30.0245  34.8686

          k = 0.6364-0.2727 0.8182 (   583 PWs)   bands (ev):

     9.7009  10.5953  11.3521  12.4709  13.9707  17.1801  21.3587  27.9300
    29.0358  34.3890

          k = 0.5455-0.1818 0.7273 (   575 PWs)   bands (ev):

     9.8267  10.5827  11.5779  12.3055  13.8619  18.6038  19.7726  27.0405
    29.5911  34.3363

          k = 0.4545-0.0909 0.6364 (   582 PWs)   bands (ev):

     9.9606  10.7196  11.0695  12.4009  13.4190  16.5718  22.7824  26.5596
    30.7792  35.0521

          k = 0.3636 0.0000 0.5455 (   580 PWs)   bands (ev):

     9.6943  10.5165  11.0546  12.5271  12.8017  15.1336  25.5368  27.3706
    32.0342  36.4992

          k =-0.1818 0.7273 0.0000 (   584 PWs)   bands (ev):

     9.3945   9.7286  12.2080  13.5765  13.6412  15.3036  25.4132  27.1667
    28.0997  34.7009

          k = 0.7273-0.1818 0.9091 (   584 PWs)   bands (ev):

     9.5580   9.9383  11.9752  13.2484  14.0816  17.4065  22.7316  25.8501
    27.3815  35.1397

          k = 0.6364-0.0909 0.8182 (   584 PWs)   bands (ev):

     9.7776  10.3443  11.6302  12.8710  14.0220  19.6439  20.6563  24.4075
    28.0670  35.0288

          k = 0.5455 0.0000 0.7273 (   586 PWs)   bands (ev):

    10.1162  10.6483  11.0897  12.6578  13.6637  18.1472  23.2202  23.2704
    29.4172  35.0419

          k = 0.8182-0.0909 1.0000 (   585 PWs)   bands (ev):

     9.1983   9.4797  13.1258  13.7436  14.2868  17.6376  22.3245  25.7969
    26.1484  34.8073

          k = 0.7273 0.0000 0.9091 (   588 PWs)   bands (ev):

     9.4438   9.8040  12.4757  13.3318  14.2805  19.6885  20.9562  24.2278
    26.6813  35.3912

          k = 0.6364-0.2727 1.0000 (   583 PWs)   bands (ev):

    10.1021  10.2680  10.9963  13.0325  13.6330  16.8234  23.8801  25.4163
    28.5790  36.9168

          k = 0.5455-0.1818 0.9091 (   579 PWs)   bands (ev):

    10.2008  10.4333  11.0369  12.7410  13.9953  18.8013  21.5790  24.9814
    27.4299  36.6319

          k = 0.6364-0.0909 1.0000 (   590 PWs)   bands (ev):

     9.8055  10.1096  11.6619  13.0456  14.2846  19.3647  22.0767  24.1497
    25.9311  37.7532

          k = 0.5455 0.0000 0.9091 (   589 PWs)   bands (ev):

    10.0191  10.5499  11.1329  12.7401  14.2811  20.2975  21.9719  22.9572
    26.1420  37.7454

     the Fermi energy is    16.0510 ev

!    total energy              =     -85.38759016 Ry
     Harris-Foulkes estimate   =     -85.38759016 Ry
     estimated scf accuracy    <          3.4E-09 Ry

     The total energy is the sum of the following terms:

     one-electron contribution =      11.07958401 Ry
     hartree contribution      =       7.59223701 Ry
     xc contribution           =     -32.10491180 Ry
     ewald contribution        =     -71.95438543 Ry
     smearing contrib. (-TS)   =      -0.00011396 Ry

     convergence has been achieved in   9 iterations

     Forces acting on atoms (cartesian axes, Ry/au):

     atom    1 type  1   force =     0.00000000    0.00000000    0.00000000

     Total force =     0.000000     Total SCF correction =     0.000000


     Computing stress (Cartesian axis) and pressure

          total   stress  (Ry/bohr**3)                   (kbar)     P=  103.02
   0.00070030  -0.00000000  -0.00000000        103.02     -0.00     -0.00
  -0.00000000   0.00070030   0.00000000         -0.00    103.02      0.00
  -0.00000000   0.00000000   0.00070030         -0.00      0.00    103.02


     Writing output data file Au.save/

     init_run     :      0.30s CPU      0.31s WALL (       1 calls)
     electrons    :      3.76s CPU      4.03s WALL (       1 calls)
     forces       :      0.04s CPU      0.04s WALL (       1 calls)
     stress       :      0.13s CPU      0.13s WALL (       1 calls)

     Called by init_run:
     wfcinit      :      0.13s CPU      0.14s WALL (       1 calls)
     potinit      :      0.01s CPU      0.01s WALL (       1 calls)
     hinit0       :      0.15s CPU      0.15s WALL (       1 calls)

     Called by electrons:
     c_bands      :      3.16s CPU      3.39s WALL (      10 calls)
     sum_band     :      0.53s CPU      0.57s WALL (      10 calls)
     v_of_rho     :      0.03s CPU      0.03s WALL (      10 calls)
     newd         :      0.04s CPU      0.05s WALL (      10 calls)
     mix_rho      :      0.00s CPU      0.00s WALL (      10 calls)

     Called by c_bands:
     init_us_2    :      0.10s CPU      0.10s WALL (    1288 calls)
     cegterg      :      3.02s CPU      3.24s WALL (     560 calls)

     Called by sum_band:
     sum_band:bec :      0.01s CPU      0.01s WALL (     560 calls)
     addusdens    :      0.04s CPU      0.05s WALL (      10 calls)

     Called by *egterg:
     h_psi        :      2.23s CPU      2.39s WALL (    2008 calls)
     s_psi        :      0.07s CPU      0.08s WALL (    2008 calls)
     g_psi        :      0.01s CPU      0.01s WALL (    1392 calls)
     cdiaghg      :      0.42s CPU      0.44s WALL (    1896 calls)

     Called by h_psi:
     h_psi:pot    :      2.22s CPU      2.38s WALL (    2008 calls)
     h_psi:calbec :      0.12s CPU      0.13s WALL (    2008 calls)
     vloc_psi     :      2.01s CPU      2.16s WALL (    2008 calls)
     add_vuspsi   :      0.07s CPU      0.08s WALL (    2008 calls)

     General routines
     calbec       :      0.18s CPU      0.19s WALL (    2848 calls)
     fft          :      0.02s CPU      0.02s WALL (     137 calls)
     ffts         :      0.00s CPU      0.00s WALL (      10 calls)
     fftw         :      2.22s CPU      2.38s WALL (   35640 calls)

     Parallel routines
     fft_scatt_xy :      0.20s CPU      0.21s WALL (   35787 calls)
     fft_scatt_yz :      0.69s CPU      0.73s WALL (   35787 calls)

     PWSCF        :     5.11s CPU         5.47s WALL


   This run was terminated on:  11:36:29  26Mar2024            

=------------------------------------------------------------------------------=
   JOB DONE.
=------------------------------------------------------------------------------=
