
     Program PWSCF v.6.3MaX starts on 26Mar2024 at 11:19: 5 

     This program is part of the open-source Quantum ESPRESSO suite
     for quantum simulation of materials; please cite
         "P. Giannozzi et al., J. Phys.:Condens. Matter 21 395502 (2009);
         "P. Giannozzi et al., J. Phys.:Condens. Matter 29 465901 (2017);
          URL http://www.quantum-espresso.org", 
     in publications or presentations arising from this work. More details at
     http://www.quantum-espresso.org/quote

     Parallel version (MPI), running on     5 processors

     MPI processes distributed on     1 nodes
     R & G space division:  proc/nbgrp/npool/nimage =       5
     Waiting for input...
     Reading input from standard input

     Current dimensions of program PWSCF are:
     Max number of different atomic species (ntypx) = 10
     Max number of k-points (npk) =  40000
     Max angular momentum in pseudopotentials (lmaxx) =  3
               file Au.pbesol-n-kjpaw_psl.1.0.0.UPF: wavefunction(s)  6S 5D renormalized

     Subspace diagonalization in iterative solution of the eigenvalue problem:
     a serial algorithm will be used


     Parallelization info
     --------------------
     sticks:   dense  smooth     PW     G-vecs:    dense   smooth      PW
     Min          32      32     12                  280      280      66
     Max          33      33     13                  283      283      67
     Sum         163     163     61                 1411     1411     331



     bravais-lattice index     =            2
     lattice parameter (alat)  =       7.7100  a.u.
     unit-cell volume          =     114.5785 (a.u.)^3
     number of atoms/cell      =            1
     number of atomic types    =            1
     number of electrons       =        11.00
     number of Kohn-Sham states=           10
     kinetic-energy cutoff     =      20.0000  Ry
     charge density cutoff     =      80.0000  Ry
     convergence threshold     =      1.0E-08
     mixing beta               =       0.7000
     number of iterations used =            8  plain     mixing
     Exchange-correlation      = SLA PW PSX PSC ( 1  4 10  8 0 0)

     celldm(1)=   7.710000  celldm(2)=   0.000000  celldm(3)=   0.000000
     celldm(4)=   0.000000  celldm(5)=   0.000000  celldm(6)=   0.000000

     crystal axes: (cart. coord. in units of alat)
               a(1) = (  -0.500000   0.000000   0.500000 )  
               a(2) = (   0.000000   0.500000   0.500000 )  
               a(3) = (  -0.500000   0.500000   0.000000 )  

     reciprocal axes: (cart. coord. in units 2 pi/alat)
               b(1) = ( -1.000000 -1.000000  1.000000 )  
               b(2) = (  1.000000  1.000000  1.000000 )  
               b(3) = ( -1.000000  1.000000 -1.000000 )  


     PseudoPot. # 1 for Au read from file:
     /home/lorenzo/pseudos/Au/Au.pbesol-n-kjpaw_psl.1.0.0.UPF
     MD5 check sum: abc371be705c47a6b6a6b4088b452d3e
     Pseudo is Projector augmented-wave + core cor, Zval = 11.0
     Generated using "atomic" code by A. Dal Corso v.6.3
     Shape of augmentation charge: PSQ
     Using radial grid of 1279 points,  6 beta functions with: 
                l(1) =   0
                l(2) =   0
                l(3) =   1
                l(4) =   1
                l(5) =   2
                l(6) =   2
     Q(r) pseudized with 0 coefficients 


     atomic species   valence    mass     pseudopotential
        Au            11.00   196.96600     Au( 1.00)

     48 Sym. Ops., with inversion, found



   Cartesian axes

     site n.     atom                  positions (alat units)
         1           Au  tau(   1) = (   0.0000000   0.0000000   0.0000000  )

     number of k points=    10  gaussian smearing, width (Ry)=  0.0100
                       cart. coord. in units 2pi/alat
        k(    1) = (   0.0000000   0.0000000   0.0000000), wk =   0.0160000
        k(    2) = (  -0.2000000   0.2000000  -0.2000000), wk =   0.1280000
        k(    3) = (  -0.4000000   0.4000000  -0.4000000), wk =   0.1280000
        k(    4) = (   0.0000000   0.4000000   0.0000000), wk =   0.0960000
        k(    5) = (  -0.2000000   0.6000000  -0.2000000), wk =   0.3840000
        k(    6) = (   0.6000000  -0.2000000   0.6000000), wk =   0.3840000
        k(    7) = (   0.4000000   0.0000000   0.4000000), wk =   0.1920000
        k(    8) = (   0.0000000   0.8000000   0.0000000), wk =   0.0960000
        k(    9) = (   0.8000000   0.0000000   0.8000000), wk =   0.1920000
        k(   10) = (   0.6000000  -0.2000000   1.0000000), wk =   0.3840000

     Dense  grid:     1411 G-vectors     FFT dimensions: (  15,  15,  15)

     Estimated max dynamical RAM per process >       1.98 MB

     Estimated total dynamical RAM >       9.88 MB

     Initial potential from superposition of free atoms

     starting charge   10.99990, renormalised to   11.00000
     Starting wfcs are    9 randomized atomic wfcs +    1 random wfcs
     Checking if some PAW data can be deallocated... 

     total cpu time spent up to now is        1.1 secs

     Self-consistent Calculation

     iteration #  1     ecut=    20.00 Ry     beta= 0.70
     Davidson diagonalization with overlap
     ethr =  1.00E-02,  avg # of iterations =  5.2

     Threshold (ethr) on eigenvalues was too large:
     Diagonalizing with lowered threshold

     Davidson diagonalization with overlap
     ethr =  6.14E-04,  avg # of iterations =  1.0

     total cpu time spent up to now is        1.3 secs

     total energy              =    -764.63988180 Ry
     Harris-Foulkes estimate   =    -764.69142815 Ry
     estimated scf accuracy    <       0.06861774 Ry

     iteration #  2     ecut=    20.00 Ry     beta= 0.70
     Davidson diagonalization with overlap
     ethr =  6.24E-04,  avg # of iterations =  2.3

     total cpu time spent up to now is        1.5 secs

     total energy              =    -764.66189046 Ry
     Harris-Foulkes estimate   =    -764.67334608 Ry
     estimated scf accuracy    <       0.01731793 Ry

     iteration #  3     ecut=    20.00 Ry     beta= 0.70
     Davidson diagonalization with overlap
     ethr =  1.57E-04,  avg # of iterations =  2.5

     total cpu time spent up to now is        1.6 secs

     total energy              =    -764.66589372 Ry
     Harris-Foulkes estimate   =    -764.66610297 Ry
     estimated scf accuracy    <       0.00008377 Ry

     iteration #  4     ecut=    20.00 Ry     beta= 0.70
     Davidson diagonalization with overlap
     ethr =  7.62E-07,  avg # of iterations =  3.8

     total cpu time spent up to now is        1.8 secs

     total energy              =    -764.66595277 Ry
     Harris-Foulkes estimate   =    -764.66634142 Ry
     estimated scf accuracy    <       0.00007689 Ry

     iteration #  5     ecut=    20.00 Ry     beta= 0.70
     Davidson diagonalization with overlap
     ethr =  6.99E-07,  avg # of iterations =  3.1

     total cpu time spent up to now is        2.0 secs

     total energy              =    -764.66608231 Ry
     Harris-Foulkes estimate   =    -764.66608777 Ry
     estimated scf accuracy    <       0.00000215 Ry

     iteration #  6     ecut=    20.00 Ry     beta= 0.70
     Davidson diagonalization with overlap
     ethr =  1.96E-08,  avg # of iterations =  2.5

     total cpu time spent up to now is        2.2 secs

     total energy              =    -764.66608370 Ry
     Harris-Foulkes estimate   =    -764.66608403 Ry
     estimated scf accuracy    <       0.00000008 Ry

     iteration #  7     ecut=    20.00 Ry     beta= 0.70
     Davidson diagonalization with overlap
     ethr =  7.71E-10,  avg # of iterations =  3.1

     total cpu time spent up to now is        2.4 secs

     End of self-consistent calculation

          k = 0.0000 0.0000 0.0000 (   169 PWs)   bands (ev):

     5.8550  11.0208  11.0208  11.0208  12.5756  12.5756  31.1770  35.0290
    35.0290  35.0290

          k =-0.2000 0.2000-0.2000 (   171 PWs)   bands (ev):

     7.1215  10.7912  11.3147  11.3147  12.5805  12.5805  29.2420  32.3830
    36.1752  36.1752

          k =-0.4000 0.4000-0.4000 (   174 PWs)   bands (ev):

     8.3761  11.0797  11.0797  13.1235  13.5635  13.5635  21.2612  30.8722
    33.9963  33.9963

          k = 0.0000 0.4000 0.0000 (   169 PWs)   bands (ev):

     7.5714  10.2193  11.8361  11.8530  11.8530  12.9664  32.3855  32.3855
    32.8593  33.2006

          k =-0.2000 0.6000-0.2000 (   171 PWs)   bands (ev):

     9.0532  10.2547  11.0926  12.0099  13.7616  14.3288  24.2706  30.4897
    30.8937  33.3114

          k = 0.6000-0.2000 0.6000 (   176 PWs)   bands (ev):

     9.2674  10.5475  11.6513  11.7299  13.4934  17.4078  19.8291  27.8753
    32.1577  32.4773

          k = 0.4000 0.0000 0.4000 (   170 PWs)   bands (ev):

     8.8134  10.3995  11.1514  11.9658  12.0810  14.1984  26.5709  28.7032
    33.7653  36.4402

          k = 0.0000 0.8000 0.0000 (   170 PWs)   bands (ev):

     8.8352   9.1218  13.6730  13.7325  13.7325  14.5284  24.8358  26.9427
    26.9427  33.6673

          k = 0.8000 0.0000 0.8000 (   180 PWs)   bands (ev):

     9.1129   9.5751  12.3768  13.1466  13.8077  19.4978  20.4366  24.0075
    27.7973  34.5966

          k = 0.6000-0.2000 1.0000 (   171 PWs)   bands (ev):

     9.8737  10.0719  10.7803  12.7393  13.7001  17.8389  22.9837  24.2787
    27.7493  37.3862

     the Fermi energy is    14.5574 ev

!    total energy              =    -764.66608385 Ry
     Harris-Foulkes estimate   =    -764.66608386 Ry
     estimated scf accuracy    <          6.0E-10 Ry

     total all-electron energy =    -38013.500546 Ry

     The total energy is the sum of the following terms:

     one-electron contribution =      13.86384445 Ry
     hartree contribution      =       7.53932532 Ry
     xc contribution           =     -31.80365046 Ry
     ewald contribution        =     -71.95438536 Ry
     one-center paw contrib.   =    -682.31089419 Ry
     smearing contrib. (-TS)   =      -0.00032361 Ry

     convergence has been achieved in   7 iterations

     Forces acting on atoms (cartesian axes, Ry/au):

     atom    1 type  1   force =     0.00000000    0.00000000    0.00000000

     Total force =     0.000000     Total SCF correction =     0.000000


     Computing stress (Cartesian axis) and pressure

          total   stress  (Ry/bohr**3)                   (kbar)     P= -156.52
  -0.00106400  -0.00000000   0.00000000       -156.52     -0.00      0.00
  -0.00000000  -0.00106400  -0.00000000         -0.00   -156.52     -0.00
   0.00000000  -0.00000000  -0.00106400          0.00     -0.00   -156.52


     Writing output data file Au.save/

     init_run     :      0.23s CPU      0.25s WALL (       1 calls)
     electrons    :      1.13s CPU      1.27s WALL (       1 calls)
     forces       :      0.01s CPU      0.01s WALL (       1 calls)
     stress       :      0.03s CPU      0.03s WALL (       1 calls)

     Called by init_run:
     wfcinit      :      0.01s CPU      0.01s WALL (       1 calls)
     potinit      :      0.12s CPU      0.14s WALL (       1 calls)
     hinit0       :      0.09s CPU      0.09s WALL (       1 calls)

     Called by electrons:
     c_bands      :      0.28s CPU      0.30s WALL (       8 calls)
     sum_band     :      0.04s CPU      0.05s WALL (       8 calls)
     v_of_rho     :      0.01s CPU      0.01s WALL (       8 calls)
     newd         :      0.02s CPU      0.02s WALL (       8 calls)
     PAW_pot      :      0.89s CPU      1.01s WALL (       8 calls)
     mix_rho      :      0.00s CPU      0.00s WALL (       8 calls)

     Called by c_bands:
     init_us_2    :      0.01s CPU      0.01s WALL (     190 calls)
     cegterg      :      0.26s CPU      0.29s WALL (      80 calls)

     Called by sum_band:
     sum_band:bec :      0.00s CPU      0.00s WALL (      80 calls)
     addusdens    :      0.01s CPU      0.01s WALL (       8 calls)

     Called by *egterg:
     h_psi        :      0.15s CPU      0.17s WALL (     325 calls)
     s_psi        :      0.01s CPU      0.01s WALL (     325 calls)
     g_psi        :      0.00s CPU      0.00s WALL (     235 calls)
     cdiaghg      :      0.07s CPU      0.08s WALL (     305 calls)

     Called by h_psi:
     h_psi:pot    :      0.15s CPU      0.17s WALL (     325 calls)
     h_psi:calbec :      0.01s CPU      0.01s WALL (     325 calls)
     vloc_psi     :      0.13s CPU      0.15s WALL (     325 calls)
     add_vuspsi   :      0.01s CPU      0.01s WALL (     325 calls)

     General routines
     calbec       :      0.02s CPU      0.02s WALL (     455 calls)
     fft          :      0.01s CPU      0.01s WALL (     115 calls)
     ffts         :      0.00s CPU      0.00s WALL (       8 calls)
     fftw         :      0.14s CPU      0.15s WALL (    5548 calls)

     Parallel routines
     fft_scatt_xy :      0.01s CPU      0.02s WALL (    5671 calls)
     fft_scatt_yz :      0.07s CPU      0.07s WALL (    5671 calls)

     PWSCF        :     2.27s CPU         2.48s WALL


   This run was terminated on:  11:19: 7  26Mar2024            

=------------------------------------------------------------------------------=
   JOB DONE.
=------------------------------------------------------------------------------=
