
     Program PWSCF v.6.3MaX starts on 26Mar2024 at 11:31: 8 

     This program is part of the open-source Quantum ESPRESSO suite
     for quantum simulation of materials; please cite
         "P. Giannozzi et al., J. Phys.:Condens. Matter 21 395502 (2009);
         "P. Giannozzi et al., J. Phys.:Condens. Matter 29 465901 (2017);
          URL http://www.quantum-espresso.org", 
     in publications or presentations arising from this work. More details at
     http://www.quantum-espresso.org/quote

     Parallel version (MPI), running on     5 processors

     MPI processes distributed on     1 nodes
     R & G space division:  proc/nbgrp/npool/nimage =       5
     Waiting for input...
     Reading input from standard input

     Current dimensions of program PWSCF are:
     Max number of different atomic species (ntypx) = 10
     Max number of k-points (npk) =  40000
     Max angular momentum in pseudopotentials (lmaxx) =  3

     Subspace diagonalization in iterative solution of the eigenvalue problem:
     a serial algorithm will be used


     Parallelization info
     --------------------
     sticks:   dense  smooth     PW     G-vecs:    dense   smooth      PW
     Min          56      56     19                  627      627     128
     Max          57      57     20                  630      630     130
     Sum         283     283     97                 3143     3143     645



     bravais-lattice index     =            2
     lattice parameter (alat)  =       7.7100  a.u.
     unit-cell volume          =     114.5785 (a.u.)^3
     number of atoms/cell      =            1
     number of atomic types    =            1
     number of electrons       =        11.00
     number of Kohn-Sham states=           10
     kinetic-energy cutoff     =      35.0000  Ry
     charge density cutoff     =     140.0000  Ry
     convergence threshold     =      1.0E-08
     mixing beta               =       0.7000
     number of iterations used =            8  plain     mixing
     Exchange-correlation      = PBE ( 1  4  3  4 0 0)

     celldm(1)=   7.710000  celldm(2)=   0.000000  celldm(3)=   0.000000
     celldm(4)=   0.000000  celldm(5)=   0.000000  celldm(6)=   0.000000

     crystal axes: (cart. coord. in units of alat)
               a(1) = (  -0.500000   0.000000   0.500000 )  
               a(2) = (   0.000000   0.500000   0.500000 )  
               a(3) = (  -0.500000   0.500000   0.000000 )  

     reciprocal axes: (cart. coord. in units 2 pi/alat)
               b(1) = ( -1.000000 -1.000000  1.000000 )  
               b(2) = (  1.000000  1.000000  1.000000 )  
               b(3) = ( -1.000000  1.000000 -1.000000 )  


     PseudoPot. # 1 for Au read from file:
     /home/lorenzo/pseudos/Au/Au.pbe-n-rrkjus_psl.1.0.0.UPF
     MD5 check sum: d7e77ba19504afed2c9b41c931dde4f0
     Pseudo is Ultrasoft + core correction, Zval = 11.0
     Generated using "atomic" code by A. Dal Corso v.6.3
     Using radial grid of 1279 points,  6 beta functions with: 
                l(1) =   0
                l(2) =   0
                l(3) =   1
                l(4) =   1
                l(5) =   2
                l(6) =   2
     Q(r) pseudized with 0 coefficients 


     atomic species   valence    mass     pseudopotential
        Au            11.00   196.96600     Au( 1.00)

     48 Sym. Ops., with inversion, found



   Cartesian axes

     site n.     atom                  positions (alat units)
         1           Au  tau(   1) = (   0.0000000   0.0000000   0.0000000  )

     number of k points=    35  gaussian smearing, width (Ry)=  0.0100
                       cart. coord. in units 2pi/alat
        k(    1) = (   0.0000000   0.0000000   0.0000000), wk =   0.0027435
        k(    2) = (  -0.1111111   0.1111111  -0.1111111), wk =   0.0219479
        k(    3) = (  -0.2222222   0.2222222  -0.2222222), wk =   0.0219479
        k(    4) = (  -0.3333333   0.3333333  -0.3333333), wk =   0.0219479
        k(    5) = (  -0.4444444   0.4444444  -0.4444444), wk =   0.0219479
        k(    6) = (   0.0000000   0.2222222   0.0000000), wk =   0.0164609
        k(    7) = (  -0.1111111   0.3333333  -0.1111111), wk =   0.0658436
        k(    8) = (  -0.2222222   0.4444444  -0.2222222), wk =   0.0658436
        k(    9) = (  -0.3333333   0.5555556  -0.3333333), wk =   0.0658436
        k(   10) = (   0.5555556  -0.3333333   0.5555556), wk =   0.0658436
        k(   11) = (   0.4444444  -0.2222222   0.4444444), wk =   0.0658436
        k(   12) = (   0.3333333  -0.1111111   0.3333333), wk =   0.0658436
        k(   13) = (   0.2222222  -0.0000000   0.2222222), wk =   0.0329218
        k(   14) = (   0.0000000   0.4444444   0.0000000), wk =   0.0164609
        k(   15) = (  -0.1111111   0.5555556  -0.1111111), wk =   0.0658436
        k(   16) = (  -0.2222222   0.6666667  -0.2222222), wk =   0.0658436
        k(   17) = (   0.6666667  -0.2222222   0.6666667), wk =   0.0658436
        k(   18) = (   0.5555556  -0.1111111   0.5555556), wk =   0.0658436
        k(   19) = (   0.4444444   0.0000000   0.4444444), wk =   0.0329218
        k(   20) = (   0.0000000   0.6666667   0.0000000), wk =   0.0164609
        k(   21) = (  -0.1111111   0.7777778  -0.1111111), wk =   0.0658436
        k(   22) = (   0.7777778  -0.1111111   0.7777778), wk =   0.0658436
        k(   23) = (   0.6666667  -0.0000000   0.6666667), wk =   0.0329218
        k(   24) = (   0.0000000   0.8888889   0.0000000), wk =   0.0164609
        k(   25) = (   0.8888889   0.0000000   0.8888889), wk =   0.0329218
        k(   26) = (  -0.2222222   0.4444444   0.0000000), wk =   0.0658436
        k(   27) = (  -0.3333333   0.5555556  -0.1111111), wk =   0.1316872
        k(   28) = (   0.5555556  -0.3333333   0.7777778), wk =   0.1316872
        k(   29) = (  -0.2222222   0.6666667   0.0000000), wk =   0.0658436
        k(   30) = (   0.6666667  -0.2222222   0.8888889), wk =   0.1316872
        k(   31) = (   0.5555556  -0.1111111   0.7777778), wk =   0.1316872
        k(   32) = (   0.4444444   0.0000000   0.6666667), wk =   0.0658436
        k(   33) = (   0.7777778  -0.1111111   1.0000000), wk =   0.0658436
        k(   34) = (   0.6666667  -0.0000000   0.8888889), wk =   0.0658436
        k(   35) = (   0.5555556  -0.1111111   1.0000000), wk =   0.0658436

     Dense  grid:     3143 G-vectors     FFT dimensions: (  24,  24,  24)

     Estimated max dynamical RAM per process >       4.01 MB

     Estimated total dynamical RAM >      20.06 MB

     Initial potential from superposition of free atoms

     starting charge   10.99989, renormalised to   11.00000
     Starting wfcs are    9 randomized atomic wfcs +    1 random wfcs

     total cpu time spent up to now is        1.1 secs

     Self-consistent Calculation

     iteration #  1     ecut=    35.00 Ry     beta= 0.70
     Davidson diagonalization with overlap
     ethr =  1.00E-02,  avg # of iterations =  5.3

     Threshold (ethr) on eigenvalues was too large:
     Diagonalizing with lowered threshold

     Davidson diagonalization with overlap
     ethr =  4.69E-04,  avg # of iterations =  1.8

     total cpu time spent up to now is        1.8 secs

     total energy              =     -85.37142571 Ry
     Harris-Foulkes estimate   =     -85.40414379 Ry
     estimated scf accuracy    <       0.05203129 Ry

     iteration #  2     ecut=    35.00 Ry     beta= 0.70
     Davidson diagonalization with overlap
     ethr =  4.73E-04,  avg # of iterations =  2.4

     total cpu time spent up to now is        2.0 secs

     total energy              =     -85.38536163 Ry
     Harris-Foulkes estimate   =     -85.39216203 Ry
     estimated scf accuracy    <       0.01085605 Ry

     iteration #  3     ecut=    35.00 Ry     beta= 0.70
     Davidson diagonalization with overlap
     ethr =  9.87E-05,  avg # of iterations =  2.1

     total cpu time spent up to now is        2.2 secs

     total energy              =     -85.38798575 Ry
     Harris-Foulkes estimate   =     -85.38803264 Ry
     estimated scf accuracy    <       0.00016895 Ry

     iteration #  4     ecut=    35.00 Ry     beta= 0.70
     Davidson diagonalization with overlap
     ethr =  1.54E-06,  avg # of iterations =  3.6

     total cpu time spent up to now is        2.6 secs

     total energy              =     -85.38811307 Ry
     Harris-Foulkes estimate   =     -85.38815737 Ry
     estimated scf accuracy    <       0.00008294 Ry

     iteration #  5     ecut=    35.00 Ry     beta= 0.70
     Davidson diagonalization with overlap
     ethr =  7.54E-07,  avg # of iterations =  1.1

     total cpu time spent up to now is        2.7 secs

     total energy              =     -85.38811969 Ry
     Harris-Foulkes estimate   =     -85.38812240 Ry
     estimated scf accuracy    <       0.00000443 Ry

     iteration #  6     ecut=    35.00 Ry     beta= 0.70
     Davidson diagonalization with overlap
     ethr =  4.03E-08,  avg # of iterations =  3.1

     total cpu time spent up to now is        3.0 secs

     total energy              =     -85.38812340 Ry
     Harris-Foulkes estimate   =     -85.38812370 Ry
     estimated scf accuracy    <       0.00000080 Ry

     iteration #  7     ecut=    35.00 Ry     beta= 0.70
     Davidson diagonalization with overlap
     ethr =  7.30E-09,  avg # of iterations =  1.0

     total cpu time spent up to now is        3.2 secs

     total energy              =     -85.38812334 Ry
     Harris-Foulkes estimate   =     -85.38812345 Ry
     estimated scf accuracy    <       0.00000016 Ry

     iteration #  8     ecut=    35.00 Ry     beta= 0.70
     Davidson diagonalization with overlap
     ethr =  1.49E-09,  avg # of iterations =  2.8

     total cpu time spent up to now is        3.4 secs

     total energy              =     -85.38812341 Ry
     Harris-Foulkes estimate   =     -85.38812342 Ry
     estimated scf accuracy    <       0.00000002 Ry

     iteration #  9     ecut=    35.00 Ry     beta= 0.70
     Davidson diagonalization with overlap
     ethr =  2.25E-10,  avg # of iterations =  1.8

     total cpu time spent up to now is        3.6 secs

     End of self-consistent calculation

          k = 0.0000 0.0000 0.0000 (   411 PWs)   bands (ev):

     6.0976  11.3189  11.3189  11.3189  12.8455  12.8455  31.3965  35.2602
    35.2602  35.2602

          k =-0.1111 0.1111-0.1111 (   396 PWs)   bands (ev):

     6.5216  11.1928  11.4566  11.4566  12.7941  12.7941  31.7086  32.8616
    35.6621  35.6621

          k =-0.2222 0.2222-0.2222 (   392 PWs)   bands (ev):

     7.6101  11.0970  11.6141  11.6141  12.9085  12.9085  28.4191  32.4598
    36.2555  36.2555

          k =-0.3333 0.3333-0.3333 (   401 PWs)   bands (ev):

     8.5075  11.4705  11.4705  12.0379  13.4686  13.4686  23.9484  31.5756
    35.1693  35.1693

          k =-0.4444 0.4444-0.4444 (   401 PWs)   bands (ev):

     8.6637  11.3026  11.3026  13.9833  13.9833  14.3453  19.9905  30.7915
    33.8220  33.8220

          k = 0.0000 0.2222 0.0000 (   391 PWs)   bands (ev):

     6.6654  11.0329  11.5802  11.5802  12.5441  12.9727  32.0127  33.7158
    34.5146  34.5146

          k =-0.1111 0.3333-0.1111 (   396 PWs)   bands (ev):

     7.5612  10.7800  11.7449  11.8320  12.5017  13.1482  30.1218  32.6959
    33.7445  35.6174

          k =-0.2222 0.4444-0.2222 (   395 PWs)   bands (ev):

     8.6449  11.0055  11.4328  11.8046  13.4010  13.6158  25.6295  32.1136
    32.9356  34.8307

          k =-0.3333 0.5556-0.3333 (   401 PWs)   bands (ev):

     8.9614  11.1480  11.6128  12.2139  14.0464  15.0998  21.2882  31.1064
    32.4487  33.0590

          k = 0.5556-0.3333 0.5556 (   397 PWs)   bands (ev):

     8.9777  11.0912  11.5165  12.8589  13.9575  16.4850  19.2418  30.5566
    32.0735  33.1052

          k = 0.4444-0.2222 0.4444 (   399 PWs)   bands (ev):

     8.9573  11.2505  11.6104  11.9879  13.3364  14.7942  22.7242  30.6091
    32.4841  35.1881

          k = 0.3333-0.1111 0.3333 (   392 PWs)   bands (ev):

     8.3528  10.9070  11.5828  11.8237  12.6042  13.7182  27.1293  31.1527
    34.0857  36.6928

          k = 0.2222-0.0000 0.2222 (   389 PWs)   bands (ev):

     7.1890  10.9682  11.6474  11.6716  12.5089  13.0618  31.0114  31.7882
    34.5282  37.4686

          k = 0.0000 0.4444 0.0000 (   407 PWs)   bands (ev):

     8.1420  10.3677  12.0166  12.3204  12.3204  13.3044  31.8148  31.8148
    32.5601  33.4582

          k =-0.1111 0.5556-0.1111 (   403 PWs)   bands (ev):

     9.0224  10.1435  11.6704  12.5409  13.4447  13.6871  27.5963  30.5012
    31.3885  33.4917

          k =-0.2222 0.6667-0.2222 (   399 PWs)   bands (ev):

     9.4437  10.5009  11.4703  12.3798  14.1113  15.5718  23.0495  29.2978
    30.0749  33.1459

          k = 0.6667-0.2222 0.6667 (   400 PWs)   bands (ev):

     9.5831  10.7057  11.7556  12.1926  13.9929  18.5300  19.3043  27.6083
    30.9316  32.7267

          k = 0.5556-0.1111 0.5556 (   400 PWs)   bands (ev):

     9.7818  10.8467  11.4657  12.1357  13.3338  16.6358  22.2429  26.7417
    32.7521  33.0651

          k = 0.4444 0.0000 0.4444 (   403 PWs)   bands (ev):

     9.4958  10.6953  11.2781  12.1984  12.5770  14.9912  25.6976  27.6042
    33.3795  35.9193

          k = 0.0000 0.6667 0.0000 (   399 PWs)   bands (ev):

     9.1251   9.6944  12.9945  13.3672  13.3672  13.7025  28.2473  28.6319
    28.6319  32.7097

          k =-0.1111 0.7778-0.1111 (   404 PWs)   bands (ev):

     9.2495   9.6164  12.8294  13.3673  14.1448  15.6469  24.4659  26.8480
    27.8348  33.7259

          k = 0.7778-0.1111 0.7778 (   401 PWs)   bands (ev):

     9.4616  10.0355  12.2744  13.1078  14.1029  18.8082  21.0894  24.7800
    28.5124  33.8014

          k = 0.6667-0.0000 0.6667 (   403 PWs)   bands (ev):

     9.8314  10.6405  11.5148  12.7342  13.6196  18.4945  22.4884  23.2157
    30.4926  33.3484

          k = 0.0000 0.8889 0.0000 (   396 PWs)   bands (ev):

     8.9620   9.2920  13.9751  14.2488  14.2488  16.0947  23.0044  26.5316
    26.5316  33.1575

          k = 0.8889 0.0000 0.8889 (   412 PWs)   bands (ev):

     9.0864   9.4119  13.5953  13.7936  14.2969  18.1176  21.5060  25.1622
    26.7924  34.0091

          k =-0.2222 0.4444 0.0000 (   401 PWs)   bands (ev):

     8.5538  10.5018  11.5181  12.3248  12.5314  13.7494  28.5006  30.1021
    33.5762  35.1385

          k =-0.3333 0.5556-0.1111 (   401 PWs)   bands (ev):

     9.4338  10.7767  11.0934  12.2507  13.2883  14.9820  24.5114  28.9542
    31.6670  35.2184

          k = 0.5556-0.3333 0.7778 (   404 PWs)   bands (ev):

     9.5147  10.7878  11.7386  12.0724  13.8771  17.0644  20.4651  28.9616
    30.1832  34.0262

          k =-0.2222 0.6667 0.0000 (   407 PWs)   bands (ev):

     9.5455   9.9474  11.6248  13.3144  13.3576  15.0627  25.8417  27.4918
    29.2880  35.4749

          k = 0.6667-0.2222 0.8889 (   403 PWs)   bands (ev):

     9.7752  10.2698  11.4336  12.9468  13.9800  17.4062  22.3401  26.3975
    27.9140  35.3589

          k = 0.5556-0.1111 0.7778 (   402 PWs)   bands (ev):

    10.0494  10.4923  11.3045  12.6163  13.8993  19.0120  20.7424  25.2006
    28.5525  35.2850

          k = 0.4444 0.0000 0.6667 (   404 PWs)   bands (ev):

    10.3627  10.6215  10.6484  12.6822  13.3765  16.7625  23.8434  25.0889
    30.1381  35.8318

          k = 0.7778-0.1111 1.0000 (   406 PWs)   bands (ev):

     9.3380   9.6044  12.7169  13.6202  14.2471  17.7747  22.5289  25.5956
    26.2006  35.4796

          k = 0.6667-0.0000 0.8889 (   401 PWs)   bands (ev):

     9.6521  10.0725  11.9911  13.0863  14.2396  20.5418  20.5808  23.7061
    26.8253  35.8358

          k = 0.5556-0.1111 1.0000 (   399 PWs)   bands (ev):

    10.0530  10.5301  11.0712  12.8056  14.2421  19.6027  22.4934  23.3106
    26.1967  38.7210

     the Fermi energy is    16.0299 ev

!    total energy              =     -85.38812341 Ry
     Harris-Foulkes estimate   =     -85.38812341 Ry
     estimated scf accuracy    <          5.0E-09 Ry

     The total energy is the sum of the following terms:

     one-electron contribution =      11.07703325 Ry
     hartree contribution      =       7.59560619 Ry
     xc contribution           =     -32.10634033 Ry
     ewald contribution        =     -71.95438545 Ry
     smearing contrib. (-TS)   =      -0.00003707 Ry

     convergence has been achieved in   9 iterations

     Forces acting on atoms (cartesian axes, Ry/au):

     atom    1 type  1   force =     0.00000000    0.00000000    0.00000000

     Total force =     0.000000     Total SCF correction =     0.000000


     Computing stress (Cartesian axis) and pressure

          total   stress  (Ry/bohr**3)                   (kbar)     P=   94.94
   0.00064536  -0.00000000  -0.00000000         94.94     -0.00     -0.00
  -0.00000000   0.00064536   0.00000000         -0.00     94.94      0.00
  -0.00000000   0.00000000   0.00064536         -0.00      0.00     94.94


     Writing output data file Au.save/

     init_run     :      0.22s CPU      0.22s WALL (       1 calls)
     electrons    :      2.38s CPU      2.55s WALL (       1 calls)
     forces       :      0.02s CPU      0.02s WALL (       1 calls)
     stress       :      0.06s CPU      0.06s WALL (       1 calls)

     Called by init_run:
     wfcinit      :      0.09s CPU      0.10s WALL (       1 calls)
     potinit      :      0.00s CPU      0.00s WALL (       1 calls)
     hinit0       :      0.12s CPU      0.12s WALL (       1 calls)

     Called by electrons:
     c_bands      :      1.97s CPU      2.11s WALL (      10 calls)
     sum_band     :      0.36s CPU      0.38s WALL (      10 calls)
     v_of_rho     :      0.03s CPU      0.03s WALL (      10 calls)
     newd         :      0.03s CPU      0.03s WALL (      10 calls)
     mix_rho      :      0.00s CPU      0.00s WALL (      10 calls)

     Called by c_bands:
     init_us_2    :      0.05s CPU      0.05s WALL (     805 calls)
     cegterg      :      1.89s CPU      2.03s WALL (     350 calls)

     Called by sum_band:
     sum_band:bec :      0.00s CPU      0.00s WALL (     350 calls)
     addusdens    :      0.03s CPU      0.03s WALL (      10 calls)

     Called by *egterg:
     h_psi        :      1.43s CPU      1.54s WALL (    1259 calls)
     s_psi        :      0.04s CPU      0.05s WALL (    1259 calls)
     g_psi        :      0.00s CPU      0.00s WALL (     874 calls)
     cdiaghg      :      0.28s CPU      0.30s WALL (    1189 calls)

     Called by h_psi:
     h_psi:pot    :      1.42s CPU      1.53s WALL (    1259 calls)
     h_psi:calbec :      0.06s CPU      0.07s WALL (    1259 calls)
     vloc_psi     :      1.30s CPU      1.40s WALL (    1259 calls)
     add_vuspsi   :      0.04s CPU      0.05s WALL (    1259 calls)

     General routines
     calbec       :      0.09s CPU      0.10s WALL (    1784 calls)
     fft          :      0.01s CPU      0.02s WALL (     137 calls)
     ffts         :      0.00s CPU      0.00s WALL (      10 calls)
     fftw         :      1.43s CPU      1.54s WALL (   22244 calls)

     Parallel routines
     fft_scatt_xy :      0.14s CPU      0.16s WALL (   22391 calls)
     fft_scatt_yz :      0.33s CPU      0.35s WALL (   22391 calls)

     PWSCF        :     3.52s CPU         3.77s WALL


   This run was terminated on:  11:31:11  26Mar2024            

=------------------------------------------------------------------------------=
   JOB DONE.
=------------------------------------------------------------------------------=
