
     Program PWSCF v.6.3MaX starts on 26Mar2024 at 11:14:25 

     This program is part of the open-source Quantum ESPRESSO suite
     for quantum simulation of materials; please cite
         "P. Giannozzi et al., J. Phys.:Condens. Matter 21 395502 (2009);
         "P. Giannozzi et al., J. Phys.:Condens. Matter 29 465901 (2017);
          URL http://www.quantum-espresso.org", 
     in publications or presentations arising from this work. More details at
     http://www.quantum-espresso.org/quote

     Parallel version (MPI), running on     5 processors

     MPI processes distributed on     1 nodes
     R & G space division:  proc/nbgrp/npool/nimage =       5
     Waiting for input...
     Reading input from standard input

     Current dimensions of program PWSCF are:
     Max number of different atomic species (ntypx) = 10
     Max number of k-points (npk) =  40000
     Max angular momentum in pseudopotentials (lmaxx) =  3

     Subspace diagonalization in iterative solution of the eigenvalue problem:
     a serial algorithm will be used


     Parallelization info
     --------------------
     sticks:   dense  smooth     PW     G-vecs:    dense   smooth      PW
     Min          17      17      7                  106      106      27
     Max          17      17      8                  107      107      28
     Sum          85      85     37                  531      531     137



     bravais-lattice index     =            2
     lattice parameter (alat)  =       7.7100  a.u.
     unit-cell volume          =     114.5785 (a.u.)^3
     number of atoms/cell      =            1
     number of atomic types    =            1
     number of electrons       =        11.00
     number of Kohn-Sham states=           10
     kinetic-energy cutoff     =      10.0000  Ry
     charge density cutoff     =      40.0000  Ry
     convergence threshold     =      1.0E-08
     mixing beta               =       0.7000
     number of iterations used =            8  plain     mixing
     Exchange-correlation      = PBE ( 1  4  3  4 0 0)

     celldm(1)=   7.710000  celldm(2)=   0.000000  celldm(3)=   0.000000
     celldm(4)=   0.000000  celldm(5)=   0.000000  celldm(6)=   0.000000

     crystal axes: (cart. coord. in units of alat)
               a(1) = (  -0.500000   0.000000   0.500000 )  
               a(2) = (   0.000000   0.500000   0.500000 )  
               a(3) = (  -0.500000   0.500000   0.000000 )  

     reciprocal axes: (cart. coord. in units 2 pi/alat)
               b(1) = ( -1.000000 -1.000000  1.000000 )  
               b(2) = (  1.000000  1.000000  1.000000 )  
               b(3) = ( -1.000000  1.000000 -1.000000 )  


     PseudoPot. # 1 for Au read from file:
     /home/lorenzo/pseudos/Au/Au.pbe-n-rrkjus_psl.1.0.0.UPF
     MD5 check sum: d7e77ba19504afed2c9b41c931dde4f0
     Pseudo is Ultrasoft + core correction, Zval = 11.0
     Generated using "atomic" code by A. Dal Corso v.6.3
     Using radial grid of 1279 points,  6 beta functions with: 
                l(1) =   0
                l(2) =   0
                l(3) =   1
                l(4) =   1
                l(5) =   2
                l(6) =   2
     Q(r) pseudized with 0 coefficients 


     atomic species   valence    mass     pseudopotential
        Au            11.00   196.96600     Au( 1.00)

     48 Sym. Ops., with inversion, found



   Cartesian axes

     site n.     atom                  positions (alat units)
         1           Au  tau(   1) = (   0.0000000   0.0000000   0.0000000  )

     number of k points=    10  gaussian smearing, width (Ry)=  0.0100
                       cart. coord. in units 2pi/alat
        k(    1) = (   0.0000000   0.0000000   0.0000000), wk =   0.0160000
        k(    2) = (  -0.2000000   0.2000000  -0.2000000), wk =   0.1280000
        k(    3) = (  -0.4000000   0.4000000  -0.4000000), wk =   0.1280000
        k(    4) = (   0.0000000   0.4000000   0.0000000), wk =   0.0960000
        k(    5) = (  -0.2000000   0.6000000  -0.2000000), wk =   0.3840000
        k(    6) = (   0.6000000  -0.2000000   0.6000000), wk =   0.3840000
        k(    7) = (   0.4000000   0.0000000   0.4000000), wk =   0.1920000
        k(    8) = (   0.0000000   0.8000000   0.0000000), wk =   0.0960000
        k(    9) = (   0.8000000   0.0000000   0.8000000), wk =   0.1920000
        k(   10) = (   0.6000000  -0.2000000   1.0000000), wk =   0.3840000

     Dense  grid:      531 G-vectors     FFT dimensions: (  12,  12,  12)

     Estimated max dynamical RAM per process >       1.05 MB

     Estimated total dynamical RAM >       5.25 MB

     Check: negative/imaginary core charge=   -0.000057    0.000000

     Initial potential from superposition of free atoms

     starting charge   10.99989, renormalised to   11.00000

     negative rho (up, down):  4.368E-05 0.000E+00
     Starting wfcs are    9 randomized atomic wfcs +    1 random wfcs

     total cpu time spent up to now is        1.0 secs

     Self-consistent Calculation

     iteration #  1     ecut=    10.00 Ry     beta= 0.70
     Davidson diagonalization with overlap
     ethr =  1.00E-02,  avg # of iterations =  4.3

     total cpu time spent up to now is        1.0 secs

     total energy              =     -83.81196808 Ry
     Harris-Foulkes estimate   =     -84.36670333 Ry
     estimated scf accuracy    <       0.76836612 Ry

     iteration #  2     ecut=    10.00 Ry     beta= 0.70
     Davidson diagonalization with overlap
     ethr =  6.99E-03,  avg # of iterations =  2.0

     total cpu time spent up to now is        1.1 secs

     total energy              =     -84.00694459 Ry
     Harris-Foulkes estimate   =     -84.01162829 Ry
     estimated scf accuracy    <       0.03081008 Ry

     iteration #  3     ecut=    10.00 Ry     beta= 0.70
     Davidson diagonalization with overlap
     ethr =  2.80E-04,  avg # of iterations =  1.6

     total cpu time spent up to now is        1.1 secs

     total energy              =     -84.01010904 Ry
     Harris-Foulkes estimate   =     -84.00931001 Ry
     estimated scf accuracy    <       0.00176097 Ry

     iteration #  4     ecut=    10.00 Ry     beta= 0.70
     Davidson diagonalization with overlap
     ethr =  1.60E-05,  avg # of iterations =  2.5

     total cpu time spent up to now is        1.2 secs

     total energy              =     -84.01018714 Ry
     Harris-Foulkes estimate   =     -84.01018972 Ry
     estimated scf accuracy    <       0.00000605 Ry

     iteration #  5     ecut=    10.00 Ry     beta= 0.70
     Davidson diagonalization with overlap
     ethr =  5.50E-08,  avg # of iterations =  2.5

     total cpu time spent up to now is        1.2 secs

     total energy              =     -84.01019124 Ry
     Harris-Foulkes estimate   =     -84.01019111 Ry
     estimated scf accuracy    <       0.00000017 Ry

     iteration #  6     ecut=    10.00 Ry     beta= 0.70
     Davidson diagonalization with overlap
     ethr =  1.58E-09,  avg # of iterations =  1.2

     total cpu time spent up to now is        1.2 secs

     total energy              =     -84.01019123 Ry
     Harris-Foulkes estimate   =     -84.01019125 Ry
     estimated scf accuracy    <       0.00000004 Ry

     iteration #  7     ecut=    10.00 Ry     beta= 0.70
     Davidson diagonalization with overlap
     ethr =  3.88E-10,  avg # of iterations =  1.4

     total cpu time spent up to now is        1.2 secs

     End of self-consistent calculation

          k = 0.0000 0.0000 0.0000 (    59 PWs)   bands (ev):

     6.1617   9.9679   9.9679   9.9679  12.2934  12.2934  32.4559  35.6983
    35.6983  35.6983

          k =-0.2000 0.2000-0.2000 (    62 PWs)   bands (ev):

     7.3227  10.0793  10.3390  10.3390  11.7846  11.7846  30.1239  33.9678
    36.7973  36.7973

          k =-0.4000 0.4000-0.4000 (    61 PWs)   bands (ev):

     8.1238  10.2094  10.2094  13.3942  13.6565  13.6565  21.8324  32.1072
    34.3244  34.3244

          k = 0.0000 0.4000 0.0000 (    60 PWs)   bands (ev):

     7.7746   9.2943  11.1141  11.1940  11.1940  12.8970  33.4540  33.4540
    33.4619  35.2016

          k =-0.2000 0.6000-0.2000 (    66 PWs)   bands (ev):

     8.6047   9.6366  10.4369  11.1420  12.6099  14.1115  24.5340  30.9796
    31.9977  34.9079

          k = 0.6000-0.2000 0.6000 (    60 PWs)   bands (ev):

     8.8767  10.2471  11.0827  11.4842  13.4498  17.7965  20.3979  28.9870
    32.6915  34.0816

          k = 0.4000 0.0000 0.4000 (    61 PWs)   bands (ev):

     8.7899  10.0811  10.6080  11.1434  11.4327  14.1346  26.8519  30.6076
    34.9724  37.8305

          k = 0.0000 0.8000 0.0000 (    64 PWs)   bands (ev):

     8.3280   8.5000  13.1464  13.1464  13.2471  14.7334  24.6064  27.1554
    27.1554  36.1802

          k = 0.8000 0.0000 0.8000 (    60 PWs)   bands (ev):

     8.6112   9.2546  12.5012  13.2767  13.3926  20.1059  20.2814  25.0577
    28.1204  37.5019

          k = 0.6000-0.2000 1.0000 (    61 PWs)   bands (ev):

     9.6270   9.6560  10.3675  12.2489  13.2774  18.1150  23.0981  25.1233
    29.3064  38.3896

     the Fermi energy is    14.7536 ev

!    total energy              =     -84.01019124 Ry
     Harris-Foulkes estimate   =     -84.01019124 Ry
     estimated scf accuracy    <          7.5E-10 Ry

     The total energy is the sum of the following terms:

     one-electron contribution =      13.44255971 Ry
     hartree contribution      =       5.71223217 Ry
     xc contribution           =     -31.21033289 Ry
     ewald contribution        =     -71.95438535 Ry
     smearing contrib. (-TS)   =      -0.00026488 Ry

     convergence has been achieved in   7 iterations

     Forces acting on atoms (cartesian axes, Ry/au):

     atom    1 type  1   force =     0.00000000    0.00000000    0.00000000

     Total force =     0.000000     Total SCF correction =     0.000000


     Computing stress (Cartesian axis) and pressure

          total   stress  (Ry/bohr**3)                   (kbar)     P=-4589.59
  -0.03119939  -0.00000000  -0.00000000      -4589.59     -0.00     -0.00
  -0.00000000  -0.03119939  -0.00000000         -0.00  -4589.59     -0.00
  -0.00000000  -0.00000000  -0.03119939         -0.00     -0.00  -4589.59


     Writing output data file Au.save/

     init_run     :      0.08s CPU      0.08s WALL (       1 calls)
     electrons    :      0.25s CPU      0.28s WALL (       1 calls)
     forces       :      0.00s CPU      0.01s WALL (       1 calls)
     stress       :      0.01s CPU      0.01s WALL (       1 calls)

     Called by init_run:
     wfcinit      :      0.01s CPU      0.01s WALL (       1 calls)
     potinit      :      0.01s CPU      0.01s WALL (       1 calls)
     hinit0       :      0.07s CPU      0.07s WALL (       1 calls)

     Called by electrons:
     c_bands      :      0.20s CPU      0.22s WALL (       7 calls)
     sum_band     :      0.03s CPU      0.03s WALL (       7 calls)
     v_of_rho     :      0.01s CPU      0.01s WALL (       8 calls)
     newd         :      0.01s CPU      0.01s WALL (       8 calls)
     mix_rho      :      0.00s CPU      0.00s WALL (       7 calls)

     Called by c_bands:
     init_us_2    :      0.00s CPU      0.00s WALL (     170 calls)
     cegterg      :      0.20s CPU      0.22s WALL (      70 calls)

     Called by sum_band:
     sum_band:bec :      0.00s CPU      0.00s WALL (      70 calls)
     addusdens    :      0.01s CPU      0.01s WALL (       7 calls)

     Called by *egterg:
     h_psi        :      0.12s CPU      0.13s WALL (     235 calls)
     s_psi        :      0.00s CPU      0.00s WALL (     235 calls)
     g_psi        :      0.00s CPU      0.00s WALL (     155 calls)
     cdiaghg      :      0.05s CPU      0.05s WALL (     225 calls)

     Called by h_psi:
     h_psi:pot    :      0.12s CPU      0.13s WALL (     235 calls)
     h_psi:calbec :      0.01s CPU      0.01s WALL (     235 calls)
     vloc_psi     :      0.11s CPU      0.12s WALL (     235 calls)
     add_vuspsi   :      0.00s CPU      0.00s WALL (     235 calls)

     General routines
     calbec       :      0.01s CPU      0.01s WALL (     355 calls)
     fft          :      0.00s CPU      0.00s WALL (     114 calls)
     ffts         :      0.00s CPU      0.00s WALL (       7 calls)
     fftw         :      0.12s CPU      0.13s WALL (    4264 calls)

     Parallel routines
     fft_scatt_xy :      0.01s CPU      0.01s WALL (    4385 calls)
     fft_scatt_yz :      0.08s CPU      0.08s WALL (    4385 calls)

     PWSCF        :     1.22s CPU         1.30s WALL


   This run was terminated on:  11:14:27  26Mar2024            

=------------------------------------------------------------------------------=
   JOB DONE.
=------------------------------------------------------------------------------=
