
     Program PWSCF v.6.3MaX starts on 26Mar2024 at 11:42: 4 

     This program is part of the open-source Quantum ESPRESSO suite
     for quantum simulation of materials; please cite
         "P. Giannozzi et al., J. Phys.:Condens. Matter 21 395502 (2009);
         "P. Giannozzi et al., J. Phys.:Condens. Matter 29 465901 (2017);
          URL http://www.quantum-espresso.org", 
     in publications or presentations arising from this work. More details at
     http://www.quantum-espresso.org/quote

     Parallel version (MPI), running on     5 processors

     MPI processes distributed on     1 nodes
     R & G space division:  proc/nbgrp/npool/nimage =       5
     Waiting for input...
     Reading input from standard input

     Current dimensions of program PWSCF are:
     Max number of different atomic species (ntypx) = 10
     Max number of k-points (npk) =  40000
     Max angular momentum in pseudopotentials (lmaxx) =  3
               file Au.pbesol-n-kjpaw_psl.1.0.0.UPF: wavefunction(s)  6S 5D renormalized

     Subspace diagonalization in iterative solution of the eigenvalue problem:
     a serial algorithm will be used


     Parallelization info
     --------------------
     sticks:   dense  smooth     PW     G-vecs:    dense   smooth      PW
     Min          84      84     24                 1115     1115     187
     Max          85      85     25                 1117     1117     191
     Sum         421     421    121                 5577     5577     941



     bravais-lattice index     =            2
     lattice parameter (alat)  =       7.7100  a.u.
     unit-cell volume          =     114.5785 (a.u.)^3
     number of atoms/cell      =            1
     number of atomic types    =            1
     number of electrons       =        11.00
     number of Kohn-Sham states=           10
     kinetic-energy cutoff     =      50.0000  Ry
     charge density cutoff     =     200.0000  Ry
     convergence threshold     =      1.0E-08
     mixing beta               =       0.7000
     number of iterations used =            8  plain     mixing
     Exchange-correlation      = SLA PW PSX PSC ( 1  4 10  8 0 0)

     celldm(1)=   7.710000  celldm(2)=   0.000000  celldm(3)=   0.000000
     celldm(4)=   0.000000  celldm(5)=   0.000000  celldm(6)=   0.000000

     crystal axes: (cart. coord. in units of alat)
               a(1) = (  -0.500000   0.000000   0.500000 )  
               a(2) = (   0.000000   0.500000   0.500000 )  
               a(3) = (  -0.500000   0.500000   0.000000 )  

     reciprocal axes: (cart. coord. in units 2 pi/alat)
               b(1) = ( -1.000000 -1.000000  1.000000 )  
               b(2) = (  1.000000  1.000000  1.000000 )  
               b(3) = ( -1.000000  1.000000 -1.000000 )  


     PseudoPot. # 1 for Au read from file:
     /home/lorenzo/pseudos/Au/Au.pbesol-n-kjpaw_psl.1.0.0.UPF
     MD5 check sum: abc371be705c47a6b6a6b4088b452d3e
     Pseudo is Projector augmented-wave + core cor, Zval = 11.0
     Generated using "atomic" code by A. Dal Corso v.6.3
     Shape of augmentation charge: PSQ
     Using radial grid of 1279 points,  6 beta functions with: 
                l(1) =   0
                l(2) =   0
                l(3) =   1
                l(4) =   1
                l(5) =   2
                l(6) =   2
     Q(r) pseudized with 0 coefficients 


     atomic species   valence    mass     pseudopotential
        Au            11.00   196.96600     Au( 1.00)

     48 Sym. Ops., with inversion, found



   Cartesian axes

     site n.     atom                  positions (alat units)
         1           Au  tau(   1) = (   0.0000000   0.0000000   0.0000000  )

     number of k points=     3  gaussian smearing, width (Ry)=  0.0100
                       cart. coord. in units 2pi/alat
        k(    1) = (   0.0000000   0.0000000   0.0000000), wk =   0.2500000
        k(    2) = (   0.5000000  -0.5000000   0.5000000), wk =   1.0000000
        k(    3) = (   0.0000000  -1.0000000   0.0000000), wk =   0.7500000

     Dense  grid:     5577 G-vectors     FFT dimensions: (  25,  25,  25)

     Estimated max dynamical RAM per process >       5.62 MB

     Estimated total dynamical RAM >      28.09 MB

     Initial potential from superposition of free atoms

     starting charge   10.99990, renormalised to   11.00000
     Starting wfcs are    9 randomized atomic wfcs +    1 random wfcs
     Checking if some PAW data can be deallocated... 

     total cpu time spent up to now is        1.2 secs

     Self-consistent Calculation

     iteration #  1     ecut=    50.00 Ry     beta= 0.70
     Davidson diagonalization with overlap
     ethr =  1.00E-02,  avg # of iterations =  8.3

     Threshold (ethr) on eigenvalues was too large:
     Diagonalizing with lowered threshold

     Davidson diagonalization with overlap
     ethr =  4.02E-04,  avg # of iterations =  1.7

     total cpu time spent up to now is        1.4 secs

     total energy              =    -764.44404467 Ry
     Harris-Foulkes estimate   =    -764.44242451 Ry
     estimated scf accuracy    <       0.04595422 Ry

     iteration #  2     ecut=    50.00 Ry     beta= 0.70
     Davidson diagonalization with overlap
     ethr =  4.18E-04,  avg # of iterations =  5.0

     total cpu time spent up to now is        1.6 secs

     total energy              =    -709.67593707 Ry
     Harris-Foulkes estimate   =   -1055.06408465 Ry
     estimated scf accuracy    <  187584.28378940 Ry

     iteration #  3     ecut=    50.00 Ry     beta= 0.70
     Davidson diagonalization with overlap
     ethr =  4.18E-04,  avg # of iterations = 11.3

     total cpu time spent up to now is        1.8 secs

     total energy              =    -764.42921769 Ry
     Harris-Foulkes estimate   =    -764.44436038 Ry
     estimated scf accuracy    <       0.03971082 Ry

     iteration #  4     ecut=    50.00 Ry     beta= 0.70
     Davidson diagonalization with overlap
     ethr =  3.61E-04,  avg # of iterations =  1.0

     total cpu time spent up to now is        1.9 secs

     total energy              =    -764.43018720 Ry
     Harris-Foulkes estimate   =    -764.43203731 Ry
     estimated scf accuracy    <       0.01180689 Ry

     iteration #  5     ecut=    50.00 Ry     beta= 0.70
     Davidson diagonalization with overlap
     ethr =  1.07E-04,  avg # of iterations =  3.7

     total cpu time spent up to now is        2.1 secs

     total energy              =    -764.42977570 Ry
     Harris-Foulkes estimate   =    -764.43453268 Ry
     estimated scf accuracy    <       0.01739502 Ry

     iteration #  6     ecut=    50.00 Ry     beta= 0.70
     Davidson diagonalization with overlap
     ethr =  1.07E-04,  avg # of iterations =  1.0

     total cpu time spent up to now is        2.3 secs

     total energy              =    -764.43235508 Ry
     Harris-Foulkes estimate   =    -764.43249469 Ry
     estimated scf accuracy    <       0.00787988 Ry

     iteration #  7     ecut=    50.00 Ry     beta= 0.70
     Davidson diagonalization with overlap
     ethr =  7.16E-05,  avg # of iterations =  1.0

     total cpu time spent up to now is        2.4 secs

     total energy              =    -764.43243455 Ry
     Harris-Foulkes estimate   =    -764.43244405 Ry
     estimated scf accuracy    <       0.00704648 Ry

     iteration #  8     ecut=    50.00 Ry     beta= 0.70
     Davidson diagonalization with overlap
     ethr =  6.41E-05,  avg # of iterations =  1.0

     total cpu time spent up to now is        2.7 secs

     total energy              =    -764.43234679 Ry
     Harris-Foulkes estimate   =    -764.43246738 Ry
     estimated scf accuracy    <       0.00717630 Ry

     iteration #  9     ecut=    50.00 Ry     beta= 0.70
     Davidson diagonalization with overlap
     ethr =  6.41E-05,  avg # of iterations =  1.0

     total cpu time spent up to now is        2.9 secs

     total energy              =    -764.43240804 Ry
     Harris-Foulkes estimate   =    -764.43241323 Ry
     estimated scf accuracy    <       0.00626124 Ry

     iteration # 10     ecut=    50.00 Ry     beta= 0.70
     Davidson diagonalization with overlap
     ethr =  5.69E-05,  avg # of iterations =  1.0

     total cpu time spent up to now is        3.1 secs

     total energy              =    -764.43240781 Ry
     Harris-Foulkes estimate   =    -764.43241168 Ry
     estimated scf accuracy    <       0.00616499 Ry

     iteration # 11     ecut=    50.00 Ry     beta= 0.70
     Davidson diagonalization with overlap
     ethr =  5.60E-05,  avg # of iterations =  1.0

     total cpu time spent up to now is        3.3 secs

     total energy              =    -764.43218262 Ry
     Harris-Foulkes estimate   =    -764.43241195 Ry
     estimated scf accuracy    <       0.00615233 Ry

     iteration # 12     ecut=    50.00 Ry     beta= 0.70
     Davidson diagonalization with overlap
     ethr =  5.59E-05,  avg # of iterations =  1.3

     total cpu time spent up to now is        3.5 secs

     total energy              =    -764.43219305 Ry
     Harris-Foulkes estimate   =    -764.43335053 Ry
     estimated scf accuracy    <       0.00832395 Ry

     iteration # 13     ecut=    50.00 Ry     beta= 0.70
     Davidson diagonalization with overlap
     ethr =  5.59E-05,  avg # of iterations =  1.0

     total cpu time spent up to now is        3.6 secs

     total energy              =    -764.43303436 Ry
     Harris-Foulkes estimate   =    -764.43250340 Ry
     estimated scf accuracy    <       0.00256078 Ry

     iteration # 14     ecut=    50.00 Ry     beta= 0.70
     Davidson diagonalization with overlap
     ethr =  2.33E-05,  avg # of iterations =  1.0

     total cpu time spent up to now is        3.8 secs

     total energy              =    -764.43443497 Ry
     Harris-Foulkes estimate   =    -764.43326220 Ry
     estimated scf accuracy    <       0.00731335 Ry

     iteration # 15     ecut=    50.00 Ry     beta= 0.70
     Davidson diagonalization with overlap
     ethr =  2.33E-05,  avg # of iterations =  1.3

     total cpu time spent up to now is        3.9 secs

     total energy              =    -764.43415479 Ry
     Harris-Foulkes estimate   =    -764.43478360 Ry
     estimated scf accuracy    <       0.01977277 Ry

     iteration # 16     ecut=    50.00 Ry     beta= 0.70
     Davidson diagonalization with overlap
     ethr =  2.33E-05,  avg # of iterations =  1.0

     total cpu time spent up to now is        4.1 secs

     total energy              =    -764.43333001 Ry
     Harris-Foulkes estimate   =    -764.43419703 Ry
     estimated scf accuracy    <       0.01733045 Ry

     iteration # 17     ecut=    50.00 Ry     beta= 0.70
     Davidson diagonalization with overlap
     ethr =  2.33E-05,  avg # of iterations =  1.3

     total cpu time spent up to now is        4.2 secs

     total energy              =    -764.42958935 Ry
     Harris-Foulkes estimate   =    -764.43339468 Ry
     estimated scf accuracy    <       0.01187689 Ry

     iteration # 18     ecut=    50.00 Ry     beta= 0.70
     Davidson diagonalization with overlap
     ethr =  2.33E-05,  avg # of iterations =  3.0

     total cpu time spent up to now is        4.4 secs

     total energy              =    -764.43214709 Ry
     Harris-Foulkes estimate   =    -764.43271036 Ry
     estimated scf accuracy    <       0.00420472 Ry

     iteration # 19     ecut=    50.00 Ry     beta= 0.70
     Davidson diagonalization with overlap
     ethr =  2.33E-05,  avg # of iterations =  3.0

     total cpu time spent up to now is        4.6 secs

     total energy              =    -764.43216773 Ry
     Harris-Foulkes estimate   =    -764.43227804 Ry
     estimated scf accuracy    <       0.00070478 Ry

     iteration # 20     ecut=    50.00 Ry     beta= 0.70
     Davidson diagonalization with overlap
     ethr =  6.41E-06,  avg # of iterations =  1.3

     total cpu time spent up to now is        4.7 secs

     total energy              =    -764.43214582 Ry
     Harris-Foulkes estimate   =    -764.43220485 Ry
     estimated scf accuracy    <       0.00020141 Ry

     iteration # 21     ecut=    50.00 Ry     beta= 0.70
     Davidson diagonalization with overlap
     ethr =  1.83E-06,  avg # of iterations =  3.0

     total cpu time spent up to now is        4.9 secs

     total energy              =    -764.43221338 Ry
     Harris-Foulkes estimate   =    -764.43219978 Ry
     estimated scf accuracy    <       0.00014252 Ry

     iteration # 22     ecut=    50.00 Ry     beta= 0.70
     Davidson diagonalization with overlap
     ethr =  1.30E-06,  avg # of iterations =  1.3

     total cpu time spent up to now is        5.0 secs

     total energy              =    -764.43218051 Ry
     Harris-Foulkes estimate   =    -764.43222982 Ry
     estimated scf accuracy    <       0.00036861 Ry

     iteration # 23     ecut=    50.00 Ry     beta= 0.70
     Davidson diagonalization with overlap
     ethr =  1.30E-06,  avg # of iterations =  1.3

     total cpu time spent up to now is        5.2 secs

     total energy              =    -764.43218990 Ry
     Harris-Foulkes estimate   =    -764.43219760 Ry
     estimated scf accuracy    <       0.00019444 Ry

     iteration # 24     ecut=    50.00 Ry     beta= 0.70
     Davidson diagonalization with overlap
     ethr =  1.30E-06,  avg # of iterations =  1.3

     total cpu time spent up to now is        5.3 secs

     total energy              =    -764.43219465 Ry
     Harris-Foulkes estimate   =    -764.43219319 Ry
     estimated scf accuracy    <       0.00005605 Ry

     iteration # 25     ecut=    50.00 Ry     beta= 0.70
     Davidson diagonalization with overlap
     ethr =  5.10E-07,  avg # of iterations =  1.0

     total cpu time spent up to now is        5.5 secs

     total energy              =    -764.43219535 Ry
     Harris-Foulkes estimate   =    -764.43219568 Ry
     estimated scf accuracy    <       0.00006028 Ry

     iteration # 26     ecut=    50.00 Ry     beta= 0.70
     Davidson diagonalization with overlap
     ethr =  5.10E-07,  avg # of iterations =  1.0

     total cpu time spent up to now is        5.6 secs

     total energy              =    -764.43219198 Ry
     Harris-Foulkes estimate   =    -764.43219573 Ry
     estimated scf accuracy    <       0.00005639 Ry

     iteration # 27     ecut=    50.00 Ry     beta= 0.70
     Davidson diagonalization with overlap
     ethr =  5.10E-07,  avg # of iterations =  1.3

     total cpu time spent up to now is        5.8 secs

     total energy              =    -764.43219374 Ry
     Harris-Foulkes estimate   =    -764.43219399 Ry
     estimated scf accuracy    <       0.00000135 Ry

     iteration # 28     ecut=    50.00 Ry     beta= 0.70
     Davidson diagonalization with overlap
     ethr =  1.23E-08,  avg # of iterations =  3.7

     total cpu time spent up to now is        6.0 secs

     total energy              =    -764.43219465 Ry
     Harris-Foulkes estimate   =    -764.43219491 Ry
     estimated scf accuracy    <       0.00001457 Ry

     iteration # 29     ecut=    50.00 Ry     beta= 0.70
     Davidson diagonalization with overlap
     ethr =  1.23E-08,  avg # of iterations =  1.0

     total cpu time spent up to now is        6.1 secs

     total energy              =    -764.43219373 Ry
     Harris-Foulkes estimate   =    -764.43219471 Ry
     estimated scf accuracy    <       0.00001138 Ry

     iteration # 30     ecut=    50.00 Ry     beta= 0.70
     Davidson diagonalization with overlap
     ethr =  1.23E-08,  avg # of iterations =  2.0

     total cpu time spent up to now is        6.3 secs

     total energy              =    -764.43219427 Ry
     Harris-Foulkes estimate   =    -764.43219436 Ry
     estimated scf accuracy    <       0.00000062 Ry

     iteration # 31     ecut=    50.00 Ry     beta= 0.70
     Davidson diagonalization with overlap
     ethr =  5.61E-09,  avg # of iterations =  1.7

     total cpu time spent up to now is        6.4 secs

     total energy              =    -764.43219436 Ry
     Harris-Foulkes estimate   =    -764.43219435 Ry
     estimated scf accuracy    <       0.00000046 Ry

     iteration # 32     ecut=    50.00 Ry     beta= 0.70
     Davidson diagonalization with overlap
     ethr =  4.19E-09,  avg # of iterations =  1.0

     total cpu time spent up to now is        6.6 secs

     total energy              =    -764.43219435 Ry
     Harris-Foulkes estimate   =    -764.43219437 Ry
     estimated scf accuracy    <       0.00000069 Ry

     iteration # 33     ecut=    50.00 Ry     beta= 0.70
     Davidson diagonalization with overlap
     ethr =  4.19E-09,  avg # of iterations =  1.0

     total cpu time spent up to now is        6.7 secs

     total energy              =    -764.43219433 Ry
     Harris-Foulkes estimate   =    -764.43219435 Ry
     estimated scf accuracy    <       0.00000063 Ry

     iteration # 34     ecut=    50.00 Ry     beta= 0.70
     Davidson diagonalization with overlap
     ethr =  4.19E-09,  avg # of iterations =  1.0

     total cpu time spent up to now is        6.9 secs

     total energy              =    -764.43219433 Ry
     Harris-Foulkes estimate   =    -764.43219434 Ry
     estimated scf accuracy    <       0.00000025 Ry

     iteration # 35     ecut=    50.00 Ry     beta= 0.70
     Davidson diagonalization with overlap
     ethr =  2.25E-09,  avg # of iterations =  1.0

     total cpu time spent up to now is        7.0 secs

     total energy              =    -764.43219432 Ry
     Harris-Foulkes estimate   =    -764.43219433 Ry
     estimated scf accuracy    <       0.00000016 Ry

     iteration # 36     ecut=    50.00 Ry     beta= 0.70
     Davidson diagonalization with overlap
     ethr =  1.45E-09,  avg # of iterations =  1.7

     total cpu time spent up to now is        7.2 secs

     total energy              =    -764.43219434 Ry
     Harris-Foulkes estimate   =    -764.43219434 Ry
     estimated scf accuracy    <       0.00000013 Ry

     iteration # 37     ecut=    50.00 Ry     beta= 0.70
     Davidson diagonalization with overlap
     ethr =  1.19E-09,  avg # of iterations =  1.0

     total cpu time spent up to now is        7.3 secs

     total energy              =    -764.43219434 Ry
     Harris-Foulkes estimate   =    -764.43219434 Ry
     estimated scf accuracy    <       0.00000012 Ry

     iteration # 38     ecut=    50.00 Ry     beta= 0.70
     Davidson diagonalization with overlap
     ethr =  1.10E-09,  avg # of iterations =  1.0

     total cpu time spent up to now is        7.5 secs

     total energy              =    -764.43219434 Ry
     Harris-Foulkes estimate   =    -764.43219434 Ry
     estimated scf accuracy    <       0.00000013 Ry

     iteration # 39     ecut=    50.00 Ry     beta= 0.70
     Davidson diagonalization with overlap
     ethr =  1.10E-09,  avg # of iterations =  1.0

     total cpu time spent up to now is        7.6 secs

     total energy              =    -764.43219434 Ry
     Harris-Foulkes estimate   =    -764.43219434 Ry
     estimated scf accuracy    <       0.00000013 Ry

     iteration # 40     ecut=    50.00 Ry     beta= 0.70
     Davidson diagonalization with overlap
     ethr =  1.10E-09,  avg # of iterations =  1.0

     total cpu time spent up to now is        7.8 secs

     total energy              =    -764.43219434 Ry
     Harris-Foulkes estimate   =    -764.43219434 Ry
     estimated scf accuracy    <       0.00000008 Ry

     iteration # 41     ecut=    50.00 Ry     beta= 0.70
     Davidson diagonalization with overlap
     ethr =  7.36E-10,  avg # of iterations =  1.0

     total cpu time spent up to now is        7.9 secs

     total energy              =    -764.43219433 Ry
     Harris-Foulkes estimate   =    -764.43219434 Ry
     estimated scf accuracy    <       0.00000008 Ry

     iteration # 42     ecut=    50.00 Ry     beta= 0.70
     Davidson diagonalization with overlap
     ethr =  7.24E-10,  avg # of iterations =  1.0

     total cpu time spent up to now is        8.1 secs

     total energy              =    -764.43219433 Ry
     Harris-Foulkes estimate   =    -764.43219433 Ry
     estimated scf accuracy    <       0.00000001 Ry

     iteration # 43     ecut=    50.00 Ry     beta= 0.70
     Davidson diagonalization with overlap
     ethr =  1.14E-10,  avg # of iterations =  1.3

     total cpu time spent up to now is        8.2 secs

     End of self-consistent calculation

          k = 0.0000 0.0000 0.0000 (   701 PWs)   bands (ev):

     5.8303  11.4614  11.4614  11.4614  13.0914  13.0914  31.0250  35.0162
    35.0162  35.0162

          k = 0.5000-0.5000 0.5000 (   700 PWs)   bands (ev):

     8.6189  11.4381  11.4381  14.3215  14.3215  14.7402  19.1782  30.3435
    33.3954  33.3954

          k = 0.0000-1.0000 0.0000 (   692 PWs)   bands (ev):

     8.9317   9.2949  14.2953  14.6474  14.6474  16.7465  21.7422  25.9887
    25.9887  32.8378

     the Fermi energy is    14.8219 ev

!    total energy              =    -764.43219434 Ry
     Harris-Foulkes estimate   =    -764.43219433 Ry
     estimated scf accuracy    <          1.7E-09 Ry

     total all-electron energy =    -38013.266657 Ry

     The total energy is the sum of the following terms:

     one-electron contribution =      13.99106156 Ry
     hartree contribution      =       7.85776589 Ry
     xc contribution           =     -31.93795566 Ry
     ewald contribution        =     -71.95438538 Ry
     one-center paw contrib.   =    -682.38589787 Ry
     smearing contrib. (-TS)   =      -0.00278287 Ry

     convergence has been achieved in  43 iterations

     Forces acting on atoms (cartesian axes, Ry/au):

     atom    1 type  1   force =     0.00000000    0.00000000    0.00000000

     Total force =     0.000000     Total SCF correction =     0.000000


     Computing stress (Cartesian axis) and pressure

          total   stress  (Ry/bohr**3)                   (kbar)     P=  493.12
   0.00335214  -0.00000000  -0.00000000        493.12     -0.00     -0.00
  -0.00000000   0.00335214   0.00000000         -0.00    493.12      0.00
  -0.00000000   0.00000000   0.00335214         -0.00      0.00    493.12


     Writing output data file Au.save/

     init_run     :      0.29s CPU      0.31s WALL (       1 calls)
     electrons    :      6.34s CPU      7.07s WALL (       1 calls)
     forces       :      0.02s CPU      0.02s WALL (       1 calls)
     stress       :      0.06s CPU      0.06s WALL (       1 calls)

     Called by init_run:
     wfcinit      :      0.01s CPU      0.01s WALL (       1 calls)
     potinit      :      0.10s CPU      0.12s WALL (       1 calls)
     hinit0       :      0.15s CPU      0.16s WALL (       1 calls)

     Called by electrons:
     c_bands      :      0.83s CPU      0.88s WALL (      44 calls)
     sum_band     :      0.48s CPU      0.50s WALL (      44 calls)
     v_of_rho     :      0.14s CPU      0.15s WALL (      44 calls)
     newd         :      0.26s CPU      0.29s WALL (      44 calls)
     PAW_pot      :      4.65s CPU      5.29s WALL (      44 calls)
     mix_rho      :      0.04s CPU      0.04s WALL (      44 calls)

     Called by c_bands:
     init_us_2    :      0.03s CPU      0.03s WALL (     273 calls)
     cegterg      :      0.79s CPU      0.83s WALL (     132 calls)

     Called by sum_band:
     sum_band:bec :      0.00s CPU      0.00s WALL (     132 calls)
     addusdens    :      0.25s CPU      0.25s WALL (      44 calls)

     Called by *egterg:
     h_psi        :      0.60s CPU      0.63s WALL (     384 calls)
     s_psi        :      0.02s CPU      0.02s WALL (     384 calls)
     g_psi        :      0.00s CPU      0.00s WALL (     249 calls)
     cdiaghg      :      0.08s CPU      0.08s WALL (     378 calls)

     Called by h_psi:
     h_psi:pot    :      0.60s CPU      0.63s WALL (     384 calls)
     h_psi:calbec :      0.03s CPU      0.03s WALL (     384 calls)
     vloc_psi     :      0.55s CPU      0.58s WALL (     384 calls)
     add_vuspsi   :      0.02s CPU      0.02s WALL (     384 calls)

     General routines
     calbec       :      0.04s CPU      0.04s WALL (     531 calls)
     fft          :      0.09s CPU      0.10s WALL (     511 calls)
     ffts         :      0.01s CPU      0.01s WALL (      44 calls)
     fftw         :      0.63s CPU      0.67s WALL (    7330 calls)

     Parallel routines
     fft_scatt_xy :      0.05s CPU      0.06s WALL (    7885 calls)
     fft_scatt_yz :      0.25s CPU      0.26s WALL (    7885 calls)

     PWSCF        :     7.56s CPU         8.37s WALL


   This run was terminated on:  11:42:12  26Mar2024            

=------------------------------------------------------------------------------=
   JOB DONE.
=------------------------------------------------------------------------------=
