
     Program PWSCF v.6.3MaX starts on 26Mar2024 at 12:13:54 

     This program is part of the open-source Quantum ESPRESSO suite
     for quantum simulation of materials; please cite
         "P. Giannozzi et al., J. Phys.:Condens. Matter 21 395502 (2009);
         "P. Giannozzi et al., J. Phys.:Condens. Matter 29 465901 (2017);
          URL http://www.quantum-espresso.org", 
     in publications or presentations arising from this work. More details at
     http://www.quantum-espresso.org/quote

     Parallel version (MPI), running on     5 processors

     MPI processes distributed on     1 nodes
     R & G space division:  proc/nbgrp/npool/nimage =       5
     Waiting for input...
     Reading input from standard input

     Current dimensions of program PWSCF are:
     Max number of different atomic species (ntypx) = 10
     Max number of k-points (npk) =  40000
     Max angular momentum in pseudopotentials (lmaxx) =  3
               file Au.pbe-n-kjpaw_psl.1.0.0.UPF: wavefunction(s)  6S 5D renormalized

     Subspace diagonalization in iterative solution of the eigenvalue problem:
     a serial algorithm will be used


     Parallelization info
     --------------------
     sticks:   dense  smooth     PW     G-vecs:    dense   smooth      PW
     Min         122     122     37                 1997     1997     337
     Max         123     123     38                 1997     1997     338
     Sum         613     613    187                 9985     9985    1687



     bravais-lattice index     =            2
     lattice parameter (alat)  =       7.7100  a.u.
     unit-cell volume          =     114.5785 (a.u.)^3
     number of atoms/cell      =            1
     number of atomic types    =            1
     number of electrons       =        11.00
     number of Kohn-Sham states=           10
     kinetic-energy cutoff     =      75.0000  Ry
     charge density cutoff     =     300.0000  Ry
     convergence threshold     =      1.0E-08
     mixing beta               =       0.7000
     number of iterations used =            8  plain     mixing
     Exchange-correlation      = SLA PW PBX PBC ( 1  4  3  4 0 0)

     celldm(1)=   7.710000  celldm(2)=   0.000000  celldm(3)=   0.000000
     celldm(4)=   0.000000  celldm(5)=   0.000000  celldm(6)=   0.000000

     crystal axes: (cart. coord. in units of alat)
               a(1) = (  -0.500000   0.000000   0.500000 )  
               a(2) = (   0.000000   0.500000   0.500000 )  
               a(3) = (  -0.500000   0.500000   0.000000 )  

     reciprocal axes: (cart. coord. in units 2 pi/alat)
               b(1) = ( -1.000000 -1.000000  1.000000 )  
               b(2) = (  1.000000  1.000000  1.000000 )  
               b(3) = ( -1.000000  1.000000 -1.000000 )  


     PseudoPot. # 1 for Au read from file:
     /home/lorenzo/pseudos/Au/Au.pbe-n-kjpaw_psl.1.0.0.UPF
     MD5 check sum: 4db85c736373c707a97ce4c36c2a9d23
     Pseudo is Projector augmented-wave + core cor, Zval = 11.0
     Generated using "atomic" code by A. Dal Corso v.6.3
     Shape of augmentation charge: PSQ
     Using radial grid of 1279 points,  6 beta functions with: 
                l(1) =   0
                l(2) =   0
                l(3) =   1
                l(4) =   1
                l(5) =   2
                l(6) =   2
     Q(r) pseudized with 0 coefficients 


     atomic species   valence    mass     pseudopotential
        Au            11.00   196.96600     Au( 1.00)

     48 Sym. Ops., with inversion, found



   Cartesian axes

     site n.     atom                  positions (alat units)
         1           Au  tau(   1) = (   0.0000000   0.0000000   0.0000000  )

     number of k points=     8  gaussian smearing, width (Ry)=  0.0100
                       cart. coord. in units 2pi/alat
        k(    1) = (   0.0000000   0.0000000   0.0000000), wk =   0.0312500
        k(    2) = (  -0.2500000   0.2500000  -0.2500000), wk =   0.2500000
        k(    3) = (   0.5000000  -0.5000000   0.5000000), wk =   0.1250000
        k(    4) = (   0.0000000   0.5000000   0.0000000), wk =   0.1875000
        k(    5) = (   0.7500000  -0.2500000   0.7500000), wk =   0.7500000
        k(    6) = (   0.5000000   0.0000000   0.5000000), wk =   0.3750000
        k(    7) = (   0.0000000  -1.0000000   0.0000000), wk =   0.0937500
        k(    8) = (  -0.5000000  -1.0000000   0.0000000), wk =   0.1875000

     Dense  grid:     9985 G-vectors     FFT dimensions: (  32,  32,  32)

     Estimated max dynamical RAM per process >       9.57 MB

     Estimated total dynamical RAM >      47.83 MB

     Initial potential from superposition of free atoms

     starting charge   10.99989, renormalised to   11.00000
     Starting wfcs are    9 randomized atomic wfcs +    1 random wfcs
     Checking if some PAW data can be deallocated... 

     total cpu time spent up to now is        1.4 secs

     Self-consistent Calculation

     iteration #  1     ecut=    75.00 Ry     beta= 0.70
     Davidson diagonalization with overlap
     ethr =  1.00E-02,  avg # of iterations =  6.1

     Threshold (ethr) on eigenvalues was too large:
     Diagonalizing with lowered threshold

     Davidson diagonalization with overlap
     ethr =  4.63E-04,  avg # of iterations =  2.0

     total cpu time spent up to now is        2.0 secs

     total energy              =    -775.10276403 Ry
     Harris-Foulkes estimate   =    -775.13791629 Ry
     estimated scf accuracy    <       0.05184455 Ry

     iteration #  2     ecut=    75.00 Ry     beta= 0.70
     Davidson diagonalization with overlap
     ethr =  4.71E-04,  avg # of iterations =  2.9

     total cpu time spent up to now is        2.3 secs

     total energy              =    -775.11838364 Ry
     Harris-Foulkes estimate   =    -775.12704302 Ry
     estimated scf accuracy    <       0.01418762 Ry

     iteration #  3     ecut=    75.00 Ry     beta= 0.70
     Davidson diagonalization with overlap
     ethr =  1.29E-04,  avg # of iterations =  2.0

     total cpu time spent up to now is        2.6 secs

     total energy              =    -775.12146669 Ry
     Harris-Foulkes estimate   =    -775.12149372 Ry
     estimated scf accuracy    <       0.00022865 Ry

     iteration #  4     ecut=    75.00 Ry     beta= 0.70
     Davidson diagonalization with overlap
     ethr =  2.08E-06,  avg # of iterations =  4.2

     total cpu time spent up to now is        2.9 secs

     total energy              =    -775.12169137 Ry
     Harris-Foulkes estimate   =    -775.12178315 Ry
     estimated scf accuracy    <       0.00019279 Ry

     iteration #  5     ecut=    75.00 Ry     beta= 0.70
     Davidson diagonalization with overlap
     ethr =  1.75E-06,  avg # of iterations =  1.0

     total cpu time spent up to now is        3.2 secs

     total energy              =    -775.12170208 Ry
     Harris-Foulkes estimate   =    -775.12171024 Ry
     estimated scf accuracy    <       0.00001762 Ry

     iteration #  6     ecut=    75.00 Ry     beta= 0.70
     Davidson diagonalization with overlap
     ethr =  1.60E-07,  avg # of iterations =  3.0

     total cpu time spent up to now is        3.5 secs

     total energy              =    -775.12170856 Ry
     Harris-Foulkes estimate   =    -775.12170878 Ry
     estimated scf accuracy    <       0.00000026 Ry

     iteration #  7     ecut=    75.00 Ry     beta= 0.70
     Davidson diagonalization with overlap
     ethr =  2.36E-09,  avg # of iterations =  4.0

     total cpu time spent up to now is        3.8 secs

     total energy              =    -775.12170884 Ry
     Harris-Foulkes estimate   =    -775.12170892 Ry
     estimated scf accuracy    <       0.00000021 Ry

     iteration #  8     ecut=    75.00 Ry     beta= 0.70
     Davidson diagonalization with overlap
     ethr =  1.87E-09,  avg # of iterations =  1.0

     total cpu time spent up to now is        4.0 secs

     total energy              =    -775.12170884 Ry
     Harris-Foulkes estimate   =    -775.12170885 Ry
     estimated scf accuracy    <       0.00000003 Ry

     iteration #  9     ecut=    75.00 Ry     beta= 0.70
     Davidson diagonalization with overlap
     ethr =  2.39E-10,  avg # of iterations =  2.5

     total cpu time spent up to now is        4.2 secs

     End of self-consistent calculation

          k = 0.0000 0.0000 0.0000 (  1243 PWs)   bands (ev):

     6.0713  11.2638  11.2638  11.2638  12.7929  12.7929  31.3848  35.2446
    35.2446  35.2446

          k =-0.2500 0.2500-0.2500 (  1260 PWs)   bands (ev):

     7.8749  11.1313  11.5470  11.5470  12.9618  12.9618  27.2737  32.3096
    36.1410  36.1410

          k = 0.5000-0.5000 0.5000 (  1260 PWs)   bands (ev):

     8.6242  11.2278  11.2278  13.9993  13.9993  14.9988  19.0618  30.6702
    33.5936  33.5936

          k = 0.0000 0.5000 0.0000 (  1283 PWs)   bands (ev):

     8.5023  10.1362  11.9658  12.5063  12.5063  13.3503  30.9527  30.9527
    32.3145  33.1189

          k = 0.7500-0.2500 0.7500 (  1247 PWs)   bands (ev):

     9.4903  10.4049  11.6149  12.4571  14.0889  17.0105  21.4542  27.5933
    29.6782  33.1676

          k = 0.5000 0.0000 0.5000 (  1264 PWs)   bands (ev):

     9.8524  10.7250  11.0696  12.1923  12.7844  15.6927  24.6128  26.2578
    33.0598  34.4405

          k = 0.0000-1.0000 0.0000 (  1234 PWs)   bands (ev):

     8.8758   9.1901  13.9564  14.3223  14.3223  17.0052  21.7729  26.2056
    26.2056  33.2025

          k =-0.5000-1.0000 0.0000 (  1232 PWs)   bands (ev):

     9.9840  10.7933  10.7933  12.6485  14.3243  20.7758  22.3221  22.3221
    25.4344  39.4426

     the Fermi energy is    16.8381 ev

!    total energy              =    -775.12170885 Ry
     Harris-Foulkes estimate   =    -775.12170885 Ry
     estimated scf accuracy    <          5.3E-10 Ry

     total all-electron energy =    -38023.967800 Ry

     The total energy is the sum of the following terms:

     one-electron contribution =      13.84997802 Ry
     hartree contribution      =       7.62922720 Ry
     xc contribution           =     -32.12109731 Ry
     ewald contribution        =     -71.95438534 Ry
     one-center paw contrib.   =    -692.52494862 Ry
     smearing contrib. (-TS)   =      -0.00048280 Ry

     convergence has been achieved in   9 iterations

     Forces acting on atoms (cartesian axes, Ry/au):

     atom    1 type  1   force =     0.00000000    0.00000000    0.00000000

     Total force =     0.000000     Total SCF correction =     0.000000


     Computing stress (Cartesian axis) and pressure

          total   stress  (Ry/bohr**3)                   (kbar)     P=  127.41
   0.00086609   0.00000000  -0.00000000        127.41      0.00     -0.00
   0.00000000   0.00086609  -0.00000000          0.00    127.41     -0.00
  -0.00000000  -0.00000000   0.00086609         -0.00     -0.00    127.41


     Writing output data file Au.save/

     init_run     :      0.44s CPU      0.48s WALL (       1 calls)
     electrons    :      2.60s CPU      2.85s WALL (       1 calls)
     forces       :      0.04s CPU      0.04s WALL (       1 calls)
     stress       :      0.11s CPU      0.11s WALL (       1 calls)

     Called by init_run:
     wfcinit      :      0.05s CPU      0.06s WALL (       1 calls)
     potinit      :      0.16s CPU      0.19s WALL (       1 calls)
     hinit0       :      0.19s CPU      0.19s WALL (       1 calls)

     Called by electrons:
     c_bands      :      1.09s CPU      1.18s WALL (      10 calls)
     sum_band     :      0.29s CPU      0.31s WALL (      10 calls)
     v_of_rho     :      0.07s CPU      0.07s WALL (      10 calls)
     newd         :      0.13s CPU      0.14s WALL (      10 calls)
     PAW_pot      :      1.18s CPU      1.32s WALL (      10 calls)
     mix_rho      :      0.01s CPU      0.01s WALL (      10 calls)

     Called by c_bands:
     init_us_2    :      0.03s CPU      0.03s WALL (     184 calls)
     cegterg      :      1.04s CPU      1.13s WALL (      80 calls)

     Called by sum_band:
     sum_band:bec :      0.00s CPU      0.00s WALL (      80 calls)
     addusdens    :      0.10s CPU      0.10s WALL (      10 calls)

     Called by *egterg:
     h_psi        :      0.79s CPU      0.87s WALL (     318 calls)
     s_psi        :      0.02s CPU      0.03s WALL (     318 calls)
     g_psi        :      0.00s CPU      0.00s WALL (     230 calls)
     cdiaghg      :      0.09s CPU      0.10s WALL (     302 calls)

     Called by h_psi:
     h_psi:pot    :      0.79s CPU      0.86s WALL (     318 calls)
     h_psi:calbec :      0.05s CPU      0.05s WALL (     318 calls)
     vloc_psi     :      0.71s CPU      0.78s WALL (     318 calls)
     add_vuspsi   :      0.02s CPU      0.03s WALL (     318 calls)

     General routines
     calbec       :      0.07s CPU      0.07s WALL (     438 calls)
     fft          :      0.04s CPU      0.04s WALL (     137 calls)
     ffts         :      0.00s CPU      0.00s WALL (      10 calls)
     fftw         :      0.77s CPU      0.85s WALL (    5284 calls)

     Parallel routines
     fft_scatt_xy :      0.07s CPU      0.08s WALL (    5431 calls)
     fft_scatt_yz :      0.32s CPU      0.35s WALL (    5431 calls)

     PWSCF        :     4.09s CPU         4.43s WALL


   This run was terminated on:  12:13:58  26Mar2024            

=------------------------------------------------------------------------------=
   JOB DONE.
=------------------------------------------------------------------------------=
