
     Program PWSCF v.6.3MaX starts on 26Mar2024 at 11:35:44 

     This program is part of the open-source Quantum ESPRESSO suite
     for quantum simulation of materials; please cite
         "P. Giannozzi et al., J. Phys.:Condens. Matter 21 395502 (2009);
         "P. Giannozzi et al., J. Phys.:Condens. Matter 29 465901 (2017);
          URL http://www.quantum-espresso.org", 
     in publications or presentations arising from this work. More details at
     http://www.quantum-espresso.org/quote

     Parallel version (MPI), running on     5 processors

     MPI processes distributed on     1 nodes
     R & G space division:  proc/nbgrp/npool/nimage =       5
     Waiting for input...
     Reading input from standard input

     Current dimensions of program PWSCF are:
     Max number of different atomic species (ntypx) = 10
     Max number of k-points (npk) =  40000
     Max angular momentum in pseudopotentials (lmaxx) =  3
               file Au.pbe-n-kjpaw_psl.1.0.0.UPF: wavefunction(s)  6S 5D renormalized

     Subspace diagonalization in iterative solution of the eigenvalue problem:
     a serial algorithm will be used


     Parallelization info
     --------------------
     sticks:   dense  smooth     PW     G-vecs:    dense   smooth      PW
     Min          73      73     24                  928      928     178
     Max          74      74     25                  930      930     181
     Sum         367     367    121                 4645     4645     893



     bravais-lattice index     =            2
     lattice parameter (alat)  =       7.7100  a.u.
     unit-cell volume          =     114.5785 (a.u.)^3
     number of atoms/cell      =            1
     number of atomic types    =            1
     number of electrons       =        11.00
     number of Kohn-Sham states=           10
     kinetic-energy cutoff     =      45.0000  Ry
     charge density cutoff     =     180.0000  Ry
     convergence threshold     =      1.0E-08
     mixing beta               =       0.7000
     number of iterations used =            8  plain     mixing
     Exchange-correlation      = SLA PW PBX PBC ( 1  4  3  4 0 0)

     celldm(1)=   7.710000  celldm(2)=   0.000000  celldm(3)=   0.000000
     celldm(4)=   0.000000  celldm(5)=   0.000000  celldm(6)=   0.000000

     crystal axes: (cart. coord. in units of alat)
               a(1) = (  -0.500000   0.000000   0.500000 )  
               a(2) = (   0.000000   0.500000   0.500000 )  
               a(3) = (  -0.500000   0.500000   0.000000 )  

     reciprocal axes: (cart. coord. in units 2 pi/alat)
               b(1) = ( -1.000000 -1.000000  1.000000 )  
               b(2) = (  1.000000  1.000000  1.000000 )  
               b(3) = ( -1.000000  1.000000 -1.000000 )  


     PseudoPot. # 1 for Au read from file:
     /home/lorenzo/pseudos/Au/Au.pbe-n-kjpaw_psl.1.0.0.UPF
     MD5 check sum: 4db85c736373c707a97ce4c36c2a9d23
     Pseudo is Projector augmented-wave + core cor, Zval = 11.0
     Generated using "atomic" code by A. Dal Corso v.6.3
     Shape of augmentation charge: PSQ
     Using radial grid of 1279 points,  6 beta functions with: 
                l(1) =   0
                l(2) =   0
                l(3) =   1
                l(4) =   1
                l(5) =   2
                l(6) =   2
     Q(r) pseudized with 0 coefficients 


     atomic species   valence    mass     pseudopotential
        Au            11.00   196.96600     Au( 1.00)

     48 Sym. Ops., with inversion, found



   Cartesian axes

     site n.     atom                  positions (alat units)
         1           Au  tau(   1) = (   0.0000000   0.0000000   0.0000000  )

     number of k points=    47  gaussian smearing, width (Ry)=  0.0100
                       cart. coord. in units 2pi/alat
        k(    1) = (   0.0000000   0.0000000   0.0000000), wk =   0.0020000
        k(    2) = (  -0.1000000   0.1000000  -0.1000000), wk =   0.0160000
        k(    3) = (  -0.2000000   0.2000000  -0.2000000), wk =   0.0160000
        k(    4) = (  -0.3000000   0.3000000  -0.3000000), wk =   0.0160000
        k(    5) = (  -0.4000000   0.4000000  -0.4000000), wk =   0.0160000
        k(    6) = (   0.5000000  -0.5000000   0.5000000), wk =   0.0080000
        k(    7) = (   0.0000000   0.2000000   0.0000000), wk =   0.0120000
        k(    8) = (  -0.1000000   0.3000000  -0.1000000), wk =   0.0480000
        k(    9) = (  -0.2000000   0.4000000  -0.2000000), wk =   0.0480000
        k(   10) = (  -0.3000000   0.5000000  -0.3000000), wk =   0.0480000
        k(   11) = (   0.6000000  -0.4000000   0.6000000), wk =   0.0480000
        k(   12) = (   0.5000000  -0.3000000   0.5000000), wk =   0.0480000
        k(   13) = (   0.4000000  -0.2000000   0.4000000), wk =   0.0480000
        k(   14) = (   0.3000000  -0.1000000   0.3000000), wk =   0.0480000
        k(   15) = (   0.2000000   0.0000000   0.2000000), wk =   0.0240000
        k(   16) = (   0.0000000   0.4000000   0.0000000), wk =   0.0120000
        k(   17) = (  -0.1000000   0.5000000  -0.1000000), wk =   0.0480000
        k(   18) = (  -0.2000000   0.6000000  -0.2000000), wk =   0.0480000
        k(   19) = (   0.7000000  -0.3000000   0.7000000), wk =   0.0480000
        k(   20) = (   0.6000000  -0.2000000   0.6000000), wk =   0.0480000
        k(   21) = (   0.5000000  -0.1000000   0.5000000), wk =   0.0480000
        k(   22) = (   0.4000000   0.0000000   0.4000000), wk =   0.0240000
        k(   23) = (   0.0000000   0.6000000   0.0000000), wk =   0.0120000
        k(   24) = (  -0.1000000   0.7000000  -0.1000000), wk =   0.0480000
        k(   25) = (   0.8000000  -0.2000000   0.8000000), wk =   0.0480000
        k(   26) = (   0.7000000  -0.1000000   0.7000000), wk =   0.0480000
        k(   27) = (   0.6000000  -0.0000000   0.6000000), wk =   0.0240000
        k(   28) = (   0.0000000   0.8000000   0.0000000), wk =   0.0120000
        k(   29) = (   0.9000000  -0.1000000   0.9000000), wk =   0.0480000
        k(   30) = (   0.8000000   0.0000000   0.8000000), wk =   0.0240000
        k(   31) = (   0.0000000  -1.0000000   0.0000000), wk =   0.0060000
        k(   32) = (  -0.2000000   0.4000000   0.0000000), wk =   0.0480000
        k(   33) = (  -0.3000000   0.5000000  -0.1000000), wk =   0.0960000
        k(   34) = (   0.6000000  -0.4000000   0.8000000), wk =   0.0960000
        k(   35) = (   0.5000000  -0.3000000   0.7000000), wk =   0.0480000
        k(   36) = (  -0.2000000   0.6000000   0.0000000), wk =   0.0480000
        k(   37) = (   0.7000000  -0.3000000   0.9000000), wk =   0.0960000
        k(   38) = (   0.6000000  -0.2000000   0.8000000), wk =   0.0960000
        k(   39) = (   0.5000000  -0.1000000   0.7000000), wk =   0.0960000
        k(   40) = (   0.4000000   0.0000000   0.6000000), wk =   0.0480000
        k(   41) = (   0.8000000  -0.2000000   1.0000000), wk =   0.0480000
        k(   42) = (   0.7000000  -0.1000000   0.9000000), wk =   0.0960000
        k(   43) = (   0.6000000   0.0000000   0.8000000), wk =   0.0480000
        k(   44) = (  -0.2000000  -1.0000000   0.0000000), wk =   0.0240000
        k(   45) = (   0.6000000  -0.2000000   1.0000000), wk =   0.0480000
        k(   46) = (   0.5000000  -0.1000000   0.9000000), wk =   0.0480000
        k(   47) = (  -0.4000000  -1.0000000   0.0000000), wk =   0.0240000

     Dense  grid:     4645 G-vectors     FFT dimensions: (  24,  24,  24)

     Estimated max dynamical RAM per process >       5.64 MB

     Estimated total dynamical RAM >      28.20 MB

     Initial potential from superposition of free atoms

     starting charge   10.99989, renormalised to   11.00000
     Starting wfcs are    9 randomized atomic wfcs +    1 random wfcs
     Checking if some PAW data can be deallocated... 

     total cpu time spent up to now is        1.3 secs

     Self-consistent Calculation

     iteration #  1     ecut=    45.00 Ry     beta= 0.70
     Davidson diagonalization with overlap
     ethr =  1.00E-02,  avg # of iterations =  5.3

     Threshold (ethr) on eigenvalues was too large:
     Diagonalizing with lowered threshold

     Davidson diagonalization with overlap
     ethr =  4.74E-04,  avg # of iterations =  1.8

     total cpu time spent up to now is        2.3 secs

     total energy              =    -775.11586714 Ry
     Harris-Foulkes estimate   =    -775.15107955 Ry
     estimated scf accuracy    <       0.05216142 Ry

     iteration #  2     ecut=    45.00 Ry     beta= 0.70
     Davidson diagonalization with overlap
     ethr =  4.74E-04,  avg # of iterations =  2.8

     total cpu time spent up to now is        3.0 secs

     total energy              =    -775.13148589 Ry
     Harris-Foulkes estimate   =    -775.14064968 Ry
     estimated scf accuracy    <       0.01509647 Ry

     iteration #  3     ecut=    45.00 Ry     beta= 0.70
     Davidson diagonalization with overlap
     ethr =  1.37E-04,  avg # of iterations =  2.0

     total cpu time spent up to now is        3.6 secs

     total energy              =    -775.13489547 Ry
     Harris-Foulkes estimate   =    -775.13491052 Ry
     estimated scf accuracy    <       0.00023285 Ry

     iteration #  4     ecut=    45.00 Ry     beta= 0.70
     Davidson diagonalization with overlap
     ethr =  2.12E-06,  avg # of iterations =  3.9

     total cpu time spent up to now is        4.4 secs

     total energy              =    -775.13512385 Ry
     Harris-Foulkes estimate   =    -775.13521696 Ry
     estimated scf accuracy    <       0.00020771 Ry

     iteration #  5     ecut=    45.00 Ry     beta= 0.70
     Davidson diagonalization with overlap
     ethr =  1.89E-06,  avg # of iterations =  1.0

     total cpu time spent up to now is        4.8 secs

     total energy              =    -775.13512698 Ry
     Harris-Foulkes estimate   =    -775.13514159 Ry
     estimated scf accuracy    <       0.00002234 Ry

     iteration #  6     ecut=    45.00 Ry     beta= 0.70
     Davidson diagonalization with overlap
     ethr =  2.03E-07,  avg # of iterations =  2.4

     total cpu time spent up to now is        5.2 secs

     total energy              =    -775.13513833 Ry
     Harris-Foulkes estimate   =    -775.13513931 Ry
     estimated scf accuracy    <       0.00000267 Ry

     iteration #  7     ecut=    45.00 Ry     beta= 0.70
     Davidson diagonalization with overlap
     ethr =  2.43E-08,  avg # of iterations =  1.6

     total cpu time spent up to now is        5.6 secs

     total energy              =    -775.13513832 Ry
     Harris-Foulkes estimate   =    -775.13513859 Ry
     estimated scf accuracy    <       0.00000056 Ry

     iteration #  8     ecut=    45.00 Ry     beta= 0.70
     Davidson diagonalization with overlap
     ethr =  5.11E-09,  avg # of iterations =  2.3

     total cpu time spent up to now is        6.0 secs

     End of self-consistent calculation

          k = 0.0000 0.0000 0.0000 (   561 PWs)   bands (ev):

     6.0728  11.2696  11.2696  11.2696  12.7947  12.7947  31.3877  35.2426
    35.2426  35.2426

          k =-0.1000 0.1000-0.1000 (   576 PWs)   bands (ev):

     6.4179  11.1645  11.3838  11.3838  12.7495  12.7495  31.6829  33.1491
    35.5719  35.5719

          k =-0.2000 0.2000-0.2000 (   582 PWs)   bands (ev):

     7.3411  11.0307  11.5572  11.5572  12.7947  12.7947  29.2510  32.4763
    36.1853  36.1853

          k =-0.3000 0.3000-0.3000 (   589 PWs)   bands (ev):

     8.3017  11.4833  11.4833  11.5311  13.2223  13.2223  25.2492  31.8865
    35.6252  35.6252

          k =-0.4000 0.4000-0.4000 (   589 PWs)   bands (ev):

     8.6130  11.3079  11.3079  13.3341  13.7641  13.7641  21.3715  31.0103
    34.2088  34.2088

          k = 0.5000-0.5000 0.5000 (   580 PWs)   bands (ev):

     8.6289  11.2312  11.2312  14.0034  14.0034  14.9996  19.0657  30.6725
    33.5955  33.5955

          k = 0.0000 0.2000 0.0000 (   569 PWs)   bands (ev):

     6.5346  11.0361  11.4806  11.4806  12.5472  12.8978  31.8904  33.8775
    34.6530  34.6530

          k =-0.1000 0.3000-0.1000 (   579 PWs)   bands (ev):

     7.2810  10.8109  11.6748  11.7090  12.4292  13.0233  30.7299  32.5918
    34.0685  35.6495

          k =-0.2000 0.4000-0.2000 (   584 PWs)   bands (ev):

     8.3189  10.8617  11.4968  11.7450  13.0018  13.3830  26.7749  32.3339
    33.4031  35.5565

          k =-0.3000 0.5000-0.3000 (   590 PWs)   bands (ev):

     8.8328  11.2134  11.5849  11.8066  13.8509  14.2128  22.7360  31.4161
    32.7421  33.8851

          k = 0.6000-0.4000 0.6000 (   583 PWs)   bands (ev):

     8.8802  11.0748  11.4463  12.8183  14.0195  16.0350  19.4311  30.7923
    32.5049  32.7472

          k = 0.5000-0.3000 0.5000 (   581 PWs)   bands (ev):

     8.8906  11.1274  11.4436  12.7388  13.7027  15.5137  20.3986  30.6653
    32.1513  33.8893

          k = 0.4000-0.2000 0.4000 (   585 PWs)   bands (ev):

     8.7678  11.2719  11.5907  11.6049  13.0619  14.2158  24.0839  31.0078
    32.9458  36.1392

          k = 0.3000-0.1000 0.3000 (   574 PWs)   bands (ev):

     7.9916  10.8489  11.5832  11.7510  12.4917  13.4032  28.0923  31.5551
    34.4666  36.5017

          k = 0.2000 0.0000 0.2000 (   574 PWs)   bands (ev):

     6.9674  10.9732  11.5559  11.5680  12.5104  12.9384  31.5220  31.8719
    34.5073  37.0491

          k = 0.0000 0.4000 0.0000 (   576 PWs)   bands (ev):

     7.7860  10.4674  12.0400  12.0875  12.0875  13.1751  32.4283  32.4283
    32.6744  33.1265

          k =-0.1000 0.5000-0.1000 (   582 PWs)   bands (ev):

     8.6550  10.2314  11.6308  12.3250  12.9619  13.4722  28.5810  31.2185
    32.3950  33.6286

          k =-0.2000 0.6000-0.2000 (   592 PWs)   bands (ev):

     9.2767  10.4783  11.3195  12.2302  13.9191  14.5288  24.3905  30.5633
    30.5766  33.1796

          k = 0.7000-0.3000 0.7000 (   582 PWs)   bands (ev):

     9.4000  10.7362  11.6287  12.0507  14.0637  16.8338  20.6357  28.9552
    30.7878  32.6510

          k = 0.6000-0.2000 0.6000 (   576 PWs)   bands (ev):

     9.5086  10.7650  11.8759  11.9504  13.7055  17.5630  19.9567  27.8267
    32.1079  32.4390

          k = 0.5000-0.1000 0.5000 (   585 PWs)   bands (ev):

     9.5950  10.9077  11.2874  11.9945  13.0129  15.6845  23.4079  27.5421
    32.8070  34.3639

          k = 0.4000 0.0000 0.4000 (   592 PWs)   bands (ev):

     9.0384  10.6397  11.3709  12.1587  12.3153  14.3985  26.6427  28.5919
    33.7880  36.6163

          k = 0.0000 0.6000 0.0000 (   576 PWs)   bands (ev):

     8.9847   9.8338  12.3553  12.9863  12.9863  13.5337  29.4961  29.4961
    30.0136  32.5969

          k =-0.1000 0.7000-0.1000 (   589 PWs)   bands (ev):

     9.2452   9.6965  12.3836  13.0944  13.9305  14.5492  25.8903  28.2011
    28.5194  33.5076

          k = 0.8000-0.2000 0.8000 (   586 PWs)   bands (ev):

     9.4094   9.9866  12.0863  12.9028  14.1264  17.1033  22.2472  26.3648
    28.6080  33.6386

          k = 0.7000-0.1000 0.7000 (   581 PWs)   bands (ev):

     9.6595  10.4472  11.6831  12.6826  13.8055  19.2154  20.3580  24.7077
    29.8627  33.3572

          k = 0.6000-0.0000 0.6000 (   584 PWs)   bands (ev):

     9.9812  10.8470  11.0803  12.4272  13.2671  17.2815  23.4224  23.9417
    31.9756  33.0617

          k = 0.0000 0.8000 0.0000 (   596 PWs)   bands (ev):

     9.0163   9.3659  13.8381  13.9047  13.9047  14.7466  24.8479  27.1361
    27.1361  32.9576

          k = 0.9000-0.1000 0.9000 (   594 PWs)   bands (ev):

     9.0612   9.3775  13.4947  13.6887  14.2159  17.1053  22.4837  25.6003
    26.8825  33.8367

          k = 0.8000 0.0000 0.8000 (   586 PWs)   bands (ev):

     9.3208   9.8000  12.6041  13.3408  14.0369  19.6692  20.6359  23.8862
    27.9149  33.9958

          k = 0.0000-1.0000 0.0000 (   588 PWs)   bands (ev):

     8.8776   9.1961  13.9580  14.3281  14.3281  17.0066  21.7756  26.2061
    26.2061  33.2094

          k =-0.2000 0.4000 0.0000 (   585 PWs)   bands (ev):

     8.1393  10.5541  11.5829  12.0929  12.4063  13.4420  29.2896  30.7636
    34.3335  34.7361

          k =-0.3000 0.5000-0.1000 (   584 PWs)   bands (ev):

     9.0914  10.6406  11.2234  12.1127  12.9802  14.3444  25.6933  29.6852
    32.4807  35.4048

          k = 0.6000-0.4000 0.8000 (   583 PWs)   bands (ev):

     9.3396  10.9094  11.5049  11.9599  13.6774  15.8211  21.8374  29.4210
    31.0326  34.1642

          k = 0.5000-0.3000 0.7000 (   584 PWs)   bands (ev):

     9.3313  10.7888  11.8167  12.1073  13.9003  17.7524  19.0326  29.7383
    30.1189  33.5443

          k =-0.2000 0.6000 0.0000 (   590 PWs)   bands (ev):

     9.3230  10.0160  11.4811  12.9784  13.0696  14.3422  26.9564  28.4382
    30.5283  35.3465

          k = 0.7000-0.3000 0.9000 (   581 PWs)   bands (ev):

     9.6681  10.2543  11.2724  12.7868  13.7585  16.0629  23.5076  27.4560
    28.9157  35.0040

          k = 0.6000-0.2000 0.8000 (   579 PWs)   bands (ev):

     9.8076  10.4748  11.3844  12.4990  13.9213  18.5841  20.1998  26.6966
    28.6134  34.6899

          k = 0.5000-0.1000 0.7000 (   578 PWs)   bands (ev):

    10.0473  10.5200  11.1722  12.4377  13.6011  17.5884  21.7357  25.7865
    29.7494  34.9866

          k = 0.4000 0.0000 0.6000 (   583 PWs)   bands (ev):

    10.0234  10.5064  10.8130  12.5638  13.0084  15.7644  24.6372  26.2921
    31.1791  36.0267

          k = 0.8000-0.2000 1.0000 (   583 PWs)   bands (ev):

     9.3371   9.6064  12.4328  13.6101  13.9000  16.2946  24.0497  26.3218
    27.0358  34.9847

          k = 0.7000-0.1000 0.9000 (   587 PWs)   bands (ev):

     9.5375   9.9233  12.0438  13.1730  14.1396  18.8508  21.6363  24.5875
    26.9124  35.4678

          k = 0.6000 0.0000 0.8000 (   590 PWs)   bands (ev):

     9.8645  10.4241  11.4063  12.7602  13.9013  19.3150  21.9294  23.1349
    28.1540  35.3075

          k =-0.2000-1.0000 0.0000 (   586 PWs)   bands (ev):

     9.1799   9.4561  13.1081  13.5978  14.3288  18.5424  21.3891  25.4539
    25.8403  35.1174

          k = 0.6000-0.2000 1.0000 (   575 PWs)   bands (ev):

    10.0665  10.3113  11.0146  12.9222  13.8906  17.9951  23.1066  24.3459
    27.3646  37.4547

          k = 0.5000-0.1000 0.9000 (   586 PWs)   bands (ev):

    10.0999  10.5514  10.9419  12.6683  14.1157  19.8475  21.2858  24.0565
    26.5303  37.3926

          k =-0.4000-1.0000 0.0000 (   590 PWs)   bands (ev):

     9.8340  10.2284  11.4819  12.8248  14.3299  20.8579  21.0498  23.5306
    25.4831  38.1553

     the Fermi energy is    15.9565 ev

!    total energy              =    -775.13513844 Ry
     Harris-Foulkes estimate   =    -775.13513845 Ry
     estimated scf accuracy    <          9.7E-09 Ry

     total all-electron energy =    -38023.981229 Ry

     The total energy is the sum of the following terms:

     one-electron contribution =      13.83345164 Ry
     hartree contribution      =       7.63309468 Ry
     xc contribution           =     -32.12201323 Ry
     ewald contribution        =     -71.95438543 Ry
     one-center paw contrib.   =    -692.52492034 Ry
     smearing contrib. (-TS)   =      -0.00036576 Ry

     convergence has been achieved in   8 iterations

     Forces acting on atoms (cartesian axes, Ry/au):

     atom    1 type  1   force =     0.00000000    0.00000000    0.00000000

     Total force =     0.000000     Total SCF correction =     0.000000


     Computing stress (Cartesian axis) and pressure

          total   stress  (Ry/bohr**3)                   (kbar)     P=  107.02
   0.00072754  -0.00000000  -0.00000000        107.02     -0.00     -0.00
  -0.00000000   0.00072754   0.00000000         -0.00    107.02      0.00
  -0.00000000   0.00000000   0.00072754         -0.00      0.00    107.02


     Writing output data file Au.save/

     init_run     :      0.40s CPU      0.42s WALL (       1 calls)
     electrons    :      4.35s CPU      4.68s WALL (       1 calls)
     forces       :      0.03s CPU      0.03s WALL (       1 calls)
     stress       :      0.10s CPU      0.10s WALL (       1 calls)

     Called by init_run:
     wfcinit      :      0.11s CPU      0.12s WALL (       1 calls)
     potinit      :      0.12s CPU      0.13s WALL (       1 calls)
     hinit0       :      0.14s CPU      0.14s WALL (       1 calls)

     Called by electrons:
     c_bands      :      2.81s CPU      2.98s WALL (       9 calls)
     sum_band     :      0.53s CPU      0.56s WALL (       9 calls)
     v_of_rho     :      0.03s CPU      0.03s WALL (       9 calls)
     newd         :      0.06s CPU      0.06s WALL (       9 calls)
     PAW_pot      :      1.05s CPU      1.17s WALL (       9 calls)
     mix_rho      :      0.00s CPU      0.00s WALL (       9 calls)

     Called by c_bands:
     init_us_2    :      0.08s CPU      0.08s WALL (     987 calls)
     cegterg      :      2.68s CPU      2.85s WALL (     423 calls)

     Called by sum_band:
     sum_band:bec :      0.00s CPU      0.00s WALL (     423 calls)
     addusdens    :      0.04s CPU      0.04s WALL (       9 calls)

     Called by *egterg:
     h_psi        :      1.97s CPU      2.10s WALL (    1554 calls)
     s_psi        :      0.06s CPU      0.06s WALL (    1554 calls)
     g_psi        :      0.01s CPU      0.01s WALL (    1084 calls)
     cdiaghg      :      0.36s CPU      0.38s WALL (    1460 calls)

     Called by h_psi:
     h_psi:pot    :      1.96s CPU      2.09s WALL (    1554 calls)
     h_psi:calbec :      0.12s CPU      0.12s WALL (    1554 calls)
     vloc_psi     :      1.78s CPU      1.89s WALL (    1554 calls)
     add_vuspsi   :      0.06s CPU      0.06s WALL (    1554 calls)

     General routines
     calbec       :      0.17s CPU      0.18s WALL (    2212 calls)
     fft          :      0.02s CPU      0.02s WALL (     126 calls)
     ffts         :      0.00s CPU      0.00s WALL (       9 calls)
     fftw         :      2.01s CPU      2.13s WALL (   26812 calls)

     Parallel routines
     fft_scatt_xy :      0.16s CPU      0.17s WALL (   26947 calls)
     fft_scatt_yz :      0.80s CPU      0.85s WALL (   26947 calls)

     PWSCF        :     5.78s CPU         6.18s WALL


   This run was terminated on:  11:35:50  26Mar2024            

=------------------------------------------------------------------------------=
   JOB DONE.
=------------------------------------------------------------------------------=
