
     Program PWSCF v.6.3MaX starts on 26Mar2024 at 12: 2:47 

     This program is part of the open-source Quantum ESPRESSO suite
     for quantum simulation of materials; please cite
         "P. Giannozzi et al., J. Phys.:Condens. Matter 21 395502 (2009);
         "P. Giannozzi et al., J. Phys.:Condens. Matter 29 465901 (2017);
          URL http://www.quantum-espresso.org", 
     in publications or presentations arising from this work. More details at
     http://www.quantum-espresso.org/quote

     Parallel version (MPI), running on     5 processors

     MPI processes distributed on     1 nodes
     R & G space division:  proc/nbgrp/npool/nimage =       5
     Waiting for input...
     Reading input from standard input

     Current dimensions of program PWSCF are:
     Max number of different atomic species (ntypx) = 10
     Max number of k-points (npk) =  40000
     Max angular momentum in pseudopotentials (lmaxx) =  3
               file Au.pbesol-n-kjpaw_psl.1.0.0.UPF: wavefunction(s)  6S 5D renormalized

     Subspace diagonalization in iterative solution of the eigenvalue problem:
     a serial algorithm will be used


     Parallelization info
     --------------------
     sticks:   dense  smooth     PW     G-vecs:    dense   smooth      PW
     Min         103     103     32                 1597     1597     290
     Max         104     104     33                 1600     1600     293
     Sum         517     517    163                 7991     7991    1459



     bravais-lattice index     =            2
     lattice parameter (alat)  =       7.7100  a.u.
     unit-cell volume          =     114.5785 (a.u.)^3
     number of atoms/cell      =            1
     number of atomic types    =            1
     number of electrons       =        11.00
     number of Kohn-Sham states=           10
     kinetic-energy cutoff     =      65.0000  Ry
     charge density cutoff     =     260.0000  Ry
     convergence threshold     =      1.0E-08
     mixing beta               =       0.7000
     number of iterations used =            8  plain     mixing
     Exchange-correlation      = SLA PW PSX PSC ( 1  4 10  8 0 0)

     celldm(1)=   7.710000  celldm(2)=   0.000000  celldm(3)=   0.000000
     celldm(4)=   0.000000  celldm(5)=   0.000000  celldm(6)=   0.000000

     crystal axes: (cart. coord. in units of alat)
               a(1) = (  -0.500000   0.000000   0.500000 )  
               a(2) = (   0.000000   0.500000   0.500000 )  
               a(3) = (  -0.500000   0.500000   0.000000 )  

     reciprocal axes: (cart. coord. in units 2 pi/alat)
               b(1) = ( -1.000000 -1.000000  1.000000 )  
               b(2) = (  1.000000  1.000000  1.000000 )  
               b(3) = ( -1.000000  1.000000 -1.000000 )  


     PseudoPot. # 1 for Au read from file:
     /home/lorenzo/pseudos/Au/Au.pbesol-n-kjpaw_psl.1.0.0.UPF
     MD5 check sum: abc371be705c47a6b6a6b4088b452d3e
     Pseudo is Projector augmented-wave + core cor, Zval = 11.0
     Generated using "atomic" code by A. Dal Corso v.6.3
     Shape of augmentation charge: PSQ
     Using radial grid of 1279 points,  6 beta functions with: 
                l(1) =   0
                l(2) =   0
                l(3) =   1
                l(4) =   1
                l(5) =   2
                l(6) =   2
     Q(r) pseudized with 0 coefficients 


     atomic species   valence    mass     pseudopotential
        Au            11.00   196.96600     Au( 1.00)

     48 Sym. Ops., with inversion, found



   Cartesian axes

     site n.     atom                  positions (alat units)
         1           Au  tau(   1) = (   0.0000000   0.0000000   0.0000000  )

     number of k points=    35  gaussian smearing, width (Ry)=  0.0100
                       cart. coord. in units 2pi/alat
        k(    1) = (   0.0000000   0.0000000   0.0000000), wk =   0.0027435
        k(    2) = (  -0.1111111   0.1111111  -0.1111111), wk =   0.0219479
        k(    3) = (  -0.2222222   0.2222222  -0.2222222), wk =   0.0219479
        k(    4) = (  -0.3333333   0.3333333  -0.3333333), wk =   0.0219479
        k(    5) = (  -0.4444444   0.4444444  -0.4444444), wk =   0.0219479
        k(    6) = (   0.0000000   0.2222222   0.0000000), wk =   0.0164609
        k(    7) = (  -0.1111111   0.3333333  -0.1111111), wk =   0.0658436
        k(    8) = (  -0.2222222   0.4444444  -0.2222222), wk =   0.0658436
        k(    9) = (  -0.3333333   0.5555556  -0.3333333), wk =   0.0658436
        k(   10) = (   0.5555556  -0.3333333   0.5555556), wk =   0.0658436
        k(   11) = (   0.4444444  -0.2222222   0.4444444), wk =   0.0658436
        k(   12) = (   0.3333333  -0.1111111   0.3333333), wk =   0.0658436
        k(   13) = (   0.2222222  -0.0000000   0.2222222), wk =   0.0329218
        k(   14) = (   0.0000000   0.4444444   0.0000000), wk =   0.0164609
        k(   15) = (  -0.1111111   0.5555556  -0.1111111), wk =   0.0658436
        k(   16) = (  -0.2222222   0.6666667  -0.2222222), wk =   0.0658436
        k(   17) = (   0.6666667  -0.2222222   0.6666667), wk =   0.0658436
        k(   18) = (   0.5555556  -0.1111111   0.5555556), wk =   0.0658436
        k(   19) = (   0.4444444   0.0000000   0.4444444), wk =   0.0329218
        k(   20) = (   0.0000000   0.6666667   0.0000000), wk =   0.0164609
        k(   21) = (  -0.1111111   0.7777778  -0.1111111), wk =   0.0658436
        k(   22) = (   0.7777778  -0.1111111   0.7777778), wk =   0.0658436
        k(   23) = (   0.6666667  -0.0000000   0.6666667), wk =   0.0329218
        k(   24) = (   0.0000000   0.8888889   0.0000000), wk =   0.0164609
        k(   25) = (   0.8888889   0.0000000   0.8888889), wk =   0.0329218
        k(   26) = (  -0.2222222   0.4444444   0.0000000), wk =   0.0658436
        k(   27) = (  -0.3333333   0.5555556  -0.1111111), wk =   0.1316872
        k(   28) = (   0.5555556  -0.3333333   0.7777778), wk =   0.1316872
        k(   29) = (  -0.2222222   0.6666667   0.0000000), wk =   0.0658436
        k(   30) = (   0.6666667  -0.2222222   0.8888889), wk =   0.1316872
        k(   31) = (   0.5555556  -0.1111111   0.7777778), wk =   0.1316872
        k(   32) = (   0.4444444   0.0000000   0.6666667), wk =   0.0658436
        k(   33) = (   0.7777778  -0.1111111   1.0000000), wk =   0.0658436
        k(   34) = (   0.6666667  -0.0000000   0.8888889), wk =   0.0658436
        k(   35) = (   0.5555556  -0.1111111   1.0000000), wk =   0.0658436

     Dense  grid:     7991 G-vectors     FFT dimensions: (  27,  27,  27)

     Estimated max dynamical RAM per process >       8.63 MB

     Estimated total dynamical RAM >      43.13 MB

     Initial potential from superposition of free atoms

     starting charge   10.99990, renormalised to   11.00000
     Starting wfcs are    9 randomized atomic wfcs +    1 random wfcs
     Checking if some PAW data can be deallocated... 

     total cpu time spent up to now is        1.4 secs

     Self-consistent Calculation

     iteration #  1     ecut=    65.00 Ry     beta= 0.70
     Davidson diagonalization with overlap
     ethr =  1.00E-02,  avg # of iterations =  5.2

     Threshold (ethr) on eigenvalues was too large:
     Diagonalizing with lowered threshold

     Davidson diagonalization with overlap
     ethr =  5.58E-04,  avg # of iterations =  1.7

     total cpu time spent up to now is        2.3 secs

     total energy              =    -764.66230458 Ry
     Harris-Foulkes estimate   =    -764.70385580 Ry
     estimated scf accuracy    <       0.06251461 Ry

     iteration #  2     ecut=    65.00 Ry     beta= 0.70
     Davidson diagonalization with overlap
     ethr =  5.68E-04,  avg # of iterations =  5.1

     total cpu time spent up to now is        3.2 secs

     total energy              =    -736.49836167 Ry
     Harris-Foulkes estimate   =    -767.42111787 Ry
     estimated scf accuracy    <   94511.55871243 Ry

     iteration #  3     ecut=    65.00 Ry     beta= 0.70
     Davidson diagonalization with overlap
     ethr =  5.68E-04,  avg # of iterations =  6.2

     total cpu time spent up to now is        4.0 secs

     total energy              =    -764.67937591 Ry
     Harris-Foulkes estimate   =    -764.69202935 Ry
     estimated scf accuracy    <       0.02407565 Ry

     iteration #  4     ecut=    65.00 Ry     beta= 0.70
     Davidson diagonalization with overlap
     ethr =  2.19E-04,  avg # of iterations =  1.8

     total cpu time spent up to now is        4.4 secs

     total energy              =    -764.68342215 Ry
     Harris-Foulkes estimate   =    -764.68349778 Ry
     estimated scf accuracy    <       0.00368170 Ry

     iteration #  5     ecut=    65.00 Ry     beta= 0.70
     Davidson diagonalization with overlap
     ethr =  3.35E-05,  avg # of iterations =  2.8

     total cpu time spent up to now is        5.0 secs

     total energy              =    -764.68407548 Ry
     Harris-Foulkes estimate   =    -764.68418397 Ry
     estimated scf accuracy    <       0.00308751 Ry

     iteration #  6     ecut=    65.00 Ry     beta= 0.70
     Davidson diagonalization with overlap
     ethr =  2.81E-05,  avg # of iterations =  1.2

     total cpu time spent up to now is        5.4 secs

     total energy              =    -764.68406566 Ry
     Harris-Foulkes estimate   =    -764.68411147 Ry
     estimated scf accuracy    <       0.00291127 Ry

     iteration #  7     ecut=    65.00 Ry     beta= 0.70
     Davidson diagonalization with overlap
     ethr =  2.65E-05,  avg # of iterations =  1.0

     total cpu time spent up to now is        5.9 secs

     total energy              =    -764.68408885 Ry
     Harris-Foulkes estimate   =    -764.68409415 Ry
     estimated scf accuracy    <       0.00292493 Ry

     iteration #  8     ecut=    65.00 Ry     beta= 0.70
     Davidson diagonalization with overlap
     ethr =  2.65E-05,  avg # of iterations =  1.3

     total cpu time spent up to now is        6.3 secs

     total energy              =    -764.68409342 Ry
     Harris-Foulkes estimate   =    -764.68409364 Ry
     estimated scf accuracy    <       0.00293613 Ry

     iteration #  9     ecut=    65.00 Ry     beta= 0.70
     Davidson diagonalization with overlap
     ethr =  2.65E-05,  avg # of iterations =  1.0

     total cpu time spent up to now is        6.7 secs

     total energy              =    -764.68409383 Ry
     Harris-Foulkes estimate   =    -764.68409476 Ry
     estimated scf accuracy    <       0.00293588 Ry

     iteration # 10     ecut=    65.00 Ry     beta= 0.70
     Davidson diagonalization with overlap
     ethr =  2.65E-05,  avg # of iterations =  1.0

     total cpu time spent up to now is        7.2 secs

     total energy              =    -764.68409298 Ry
     Harris-Foulkes estimate   =    -764.68409426 Ry
     estimated scf accuracy    <       0.00293737 Ry

     iteration # 11     ecut=    65.00 Ry     beta= 0.70
     Davidson diagonalization with overlap
     ethr =  2.65E-05,  avg # of iterations =  1.0

     total cpu time spent up to now is        7.6 secs

     total energy              =    -764.68399611 Ry
     Harris-Foulkes estimate   =    -764.68409309 Ry
     estimated scf accuracy    <       0.00292478 Ry

     iteration # 12     ecut=    65.00 Ry     beta= 0.70
     Davidson diagonalization with overlap
     ethr =  2.65E-05,  avg # of iterations =  3.1

     total cpu time spent up to now is        8.2 secs

     total energy              =    -764.68269749 Ry
     Harris-Foulkes estimate   =    -764.68493205 Ry
     estimated scf accuracy    <       0.00334348 Ry

     iteration # 13     ecut=    65.00 Ry     beta= 0.70
     Davidson diagonalization with overlap
     ethr =  2.65E-05,  avg # of iterations =  3.3

     total cpu time spent up to now is        8.9 secs

     total energy              =    -764.68345080 Ry
     Harris-Foulkes estimate   =    -764.68566013 Ry
     estimated scf accuracy    <       0.00767414 Ry

     iteration # 14     ecut=    65.00 Ry     beta= 0.70
     Davidson diagonalization with overlap
     ethr =  2.65E-05,  avg # of iterations =  2.3

     total cpu time spent up to now is        9.4 secs

     total energy              =    -764.68389646 Ry
     Harris-Foulkes estimate   =    -764.68399945 Ry
     estimated scf accuracy    <       0.00059819 Ry

     iteration # 15     ecut=    65.00 Ry     beta= 0.70
     Davidson diagonalization with overlap
     ethr =  5.44E-06,  avg # of iterations =  2.0

     total cpu time spent up to now is        9.8 secs

     total energy              =    -764.68387351 Ry
     Harris-Foulkes estimate   =    -764.68392566 Ry
     estimated scf accuracy    <       0.00026091 Ry

     iteration # 16     ecut=    65.00 Ry     beta= 0.70
     Davidson diagonalization with overlap
     ethr =  2.37E-06,  avg # of iterations =  3.8

     total cpu time spent up to now is       10.6 secs

     total energy              =    -764.68393308 Ry
     Harris-Foulkes estimate   =    -764.68393915 Ry
     estimated scf accuracy    <       0.00016359 Ry

     iteration # 17     ecut=    65.00 Ry     beta= 0.70
     Davidson diagonalization with overlap
     ethr =  1.49E-06,  avg # of iterations =  1.3

     total cpu time spent up to now is       11.1 secs

     total energy              =    -764.68392055 Ry
     Harris-Foulkes estimate   =    -764.68393447 Ry
     estimated scf accuracy    <       0.00007982 Ry

     iteration # 18     ecut=    65.00 Ry     beta= 0.70
     Davidson diagonalization with overlap
     ethr =  7.26E-07,  avg # of iterations =  2.2

     total cpu time spent up to now is       11.6 secs

     total energy              =    -764.68392654 Ry
     Harris-Foulkes estimate   =    -764.68392669 Ry
     estimated scf accuracy    <       0.00000034 Ry

     iteration # 19     ecut=    65.00 Ry     beta= 0.70
     Davidson diagonalization with overlap
     ethr =  3.05E-09,  avg # of iterations =  3.9

     total cpu time spent up to now is       12.2 secs

     total energy              =    -764.68392676 Ry
     Harris-Foulkes estimate   =    -764.68392708 Ry
     estimated scf accuracy    <       0.00000181 Ry

     iteration # 20     ecut=    65.00 Ry     beta= 0.70
     Davidson diagonalization with overlap
     ethr =  3.05E-09,  avg # of iterations =  2.3

     total cpu time spent up to now is       12.8 secs

     total energy              =    -764.68392698 Ry
     Harris-Foulkes estimate   =    -764.68392700 Ry
     estimated scf accuracy    <       0.00000050 Ry

     iteration # 21     ecut=    65.00 Ry     beta= 0.70
     Davidson diagonalization with overlap
     ethr =  3.05E-09,  avg # of iterations =  1.0

     total cpu time spent up to now is       13.3 secs

     total energy              =    -764.68392697 Ry
     Harris-Foulkes estimate   =    -764.68392698 Ry
     estimated scf accuracy    <       0.00000031 Ry

     iteration # 22     ecut=    65.00 Ry     beta= 0.70
     Davidson diagonalization with overlap
     ethr =  2.85E-09,  avg # of iterations =  1.0

     total cpu time spent up to now is       13.8 secs

     total energy              =    -764.68392696 Ry
     Harris-Foulkes estimate   =    -764.68392697 Ry
     estimated scf accuracy    <       0.00000017 Ry

     iteration # 23     ecut=    65.00 Ry     beta= 0.70
     Davidson diagonalization with overlap
     ethr =  1.57E-09,  avg # of iterations =  2.0

     total cpu time spent up to now is       14.3 secs

     End of self-consistent calculation

          k = 0.0000 0.0000 0.0000 (   965 PWs)   bands (ev):

     5.8132  11.0850  11.0850  11.0850  12.6225  12.6225  31.1342  34.9828
    34.9828  34.9828

          k =-0.1111 0.1111-0.1111 (   995 PWs)   bands (ev):

     6.2372  10.9576  11.2226  11.2226  12.5705  12.5705  31.4706  32.5880
    35.3816  35.3816

          k =-0.2222 0.2222-0.2222 (  1001 PWs)   bands (ev):

     7.3291  10.8563  11.3818  11.3818  12.6829  12.6829  28.1800  32.2185
    35.9983  35.9983

          k =-0.3333 0.3333-0.3333 (  1008 PWs)   bands (ev):

     8.2455  11.2400  11.2400  11.7754  13.2420  13.2420  23.7027  31.3145
    34.9109  34.9109

          k =-0.4444 0.4444-0.4444 (  1026 PWs)   bands (ev):

     8.4141  11.0725  11.0725  13.7577  13.7577  14.0612  19.7445  30.5182
    33.5337  33.5337

          k = 0.0000 0.2222 0.0000 (  1002 PWs)   bands (ev):

     6.3808  10.7985  11.3454  11.3454  12.3200  12.7493  31.7745  33.4096
    34.2647  34.2647

          k =-0.1111 0.3333-0.1111 (   994 PWs)   bands (ev):

     7.2778  10.5442  11.5126  11.5987  12.2736  12.9237  29.8742  32.4625
    33.5049  35.2849

          k =-0.2222 0.4444-0.2222 (  1006 PWs)   bands (ev):

     8.3751  10.7594  11.2021  11.5736  13.1654  13.3896  25.3807  31.8368
    32.6780  34.5398

          k =-0.3333 0.5556-0.3333 (  1015 PWs)   bands (ev):

     8.7102  10.9168  11.3828  11.9633  13.8209  14.8465  21.0348  30.8028
    32.1556  32.7878

          k = 0.5556-0.3333 0.5556 (  1011 PWs)   bands (ev):

     8.7295  10.8596  11.2868  12.6130  13.7317  16.2142  18.9957  30.2609
    31.8011  32.7804

          k = 0.4444-0.2222 0.4444 (  1013 PWs)   bands (ev):

     8.7016  11.0186  11.3810  11.7328  13.1091  14.5532  22.4695  30.3484
    32.2034  34.8376

          k = 0.3333-0.1111 0.3333 (  1004 PWs)   bands (ev):

     8.0755  10.6662  11.3497  11.5929  12.3770  13.4885  26.8768  30.9315
    33.8091  36.3972

          k = 0.2222-0.0000 0.2222 (   993 PWs)   bands (ev):

     6.9050  10.7323  11.4136  11.4375  12.2845  12.8366  30.7405  31.5878
    34.2574  37.2083

          k = 0.0000 0.4444 0.0000 (   998 PWs)   bands (ev):

     7.8596  10.1330  11.7860  12.0869  12.0869  13.0807  31.5765  31.5765
    32.1861  33.2931

          k =-0.1111 0.5556-0.1111 (  1013 PWs)   bands (ev):

     8.7510   9.9066  11.4332  12.3101  13.2061  13.4614  27.3384  30.2434
    30.9863  33.2819

          k =-0.2222 0.6667-0.2222 (  1017 PWs)   bands (ev):

     9.1940  10.2599  11.2261  12.1509  13.8856  15.3199  22.7835  28.9376
    29.7823  32.9260

          k = 0.6667-0.2222 0.6667 (  1018 PWs)   bands (ev):

     9.3384  10.4686  11.5109  11.9646  13.7672  18.2602  19.0443  27.2905
    30.5965  32.4737

          k = 0.5556-0.1111 0.5556 (  1011 PWs)   bands (ev):

     9.5327  10.6112  11.2184  11.9088  13.1055  16.3815  21.9683  26.4721
    32.4663  32.6807

          k = 0.4444 0.0000 0.4444 (  1015 PWs)   bands (ev):

     9.2263  10.4571  11.0427  11.9735  12.3449  14.7524  25.4016  27.3969
    33.0719  35.4790

          k = 0.0000 0.6667 0.0000 (  1018 PWs)   bands (ev):

     8.8659   9.4588  12.7314  13.1369  13.1369  13.4773  27.8984  28.3664
    28.3664  32.3100

          k =-0.1111 0.7778-0.1111 (  1019 PWs)   bands (ev):

     9.0002   9.3796  12.5836  13.1405  13.9192  15.3886  24.1757  26.5152
    27.5484  33.3829

          k = 0.7778-0.1111 0.7778 (  1015 PWs)   bands (ev):

     9.2200   9.7947  12.0309  12.8818  13.8777  18.5452  20.8124  24.4480
    28.1948  33.5442

          k = 0.6667-0.0000 0.6667 (  1015 PWs)   bands (ev):

     9.5919  10.3966  11.2728  12.5091  13.3920  18.2287  22.2444  22.8846
    30.1383  33.0822

          k = 0.0000 0.8889 0.0000 (  1006 PWs)   bands (ev):

     8.7125   9.0562  13.7489  14.0245  14.0245  15.8088  22.6857  26.2437
    26.2437  32.6931

          k = 0.8889 0.0000 0.8889 (  1009 PWs)   bands (ev):

     8.8398   9.1759  13.3589  13.5681  14.0732  17.8444  21.2034  24.8500
    26.4932  33.6148

          k =-0.2222 0.4444 0.0000 (  1000 PWs)   bands (ev):

     8.2738  10.2656  11.2874  12.0917  12.3022  13.5199  28.2236  29.9009
    33.2005  34.9142

          k =-0.3333 0.5556-0.1111 (  1013 PWs)   bands (ev):

     9.1728  10.5315  10.8608  12.0205  13.0583  14.7410  24.2440  28.7080
    31.3032  34.9592

          k = 0.5556-0.3333 0.7778 (  1012 PWs)   bands (ev):

     9.2670  10.5541  11.4950  11.8410  13.6506  16.8037  20.2021  28.6789
    29.8395  33.7510

          k =-0.2222 0.6667 0.0000 (  1026 PWs)   bands (ev):

     9.2883   9.7111  11.3820  13.0843  13.1278  14.8182  25.5528  27.2501
    28.9055  35.1499

          k = 0.6667-0.2222 0.8889 (  1022 PWs)   bands (ev):

     9.5320  10.0299  11.1897  12.7188  13.7536  17.1470  22.0602  26.1140
    27.5575  35.1192

          k = 0.5556-0.1111 0.7778 (  1020 PWs)   bands (ev):

     9.8089  10.2504  11.0621  12.3898  13.6727  18.7465  20.4675  24.9061
    28.2041  35.0228

          k = 0.4444 0.0000 0.6667 (  1019 PWs)   bands (ev):

    10.1090  10.3848  10.4091  12.4552  13.1471  16.5083  23.5317  24.8566
    29.7729  35.5279

          k = 0.7778-0.1111 1.0000 (  1017 PWs)   bands (ev):

     9.0915   9.3685  12.4763  13.3933  14.0227  17.5079  22.2306  25.3264
    25.8470  35.0679

          k = 0.6667-0.0000 0.8889 (  1008 PWs)   bands (ev):

     9.4107   9.8326  11.7491  12.8602  14.0153  20.2830  20.2972  23.3919
    26.4877  35.5945

          k = 0.5556-0.1111 1.0000 (  1022 PWs)   bands (ev):

     9.8118  10.2905  10.8287  12.5784  14.0178  19.3314  22.2024  23.0567
    25.8200  38.1934

     the Fermi energy is    15.7440 ev

!    total energy              =    -764.68392698 Ry
     Harris-Foulkes estimate   =    -764.68392697 Ry
     estimated scf accuracy    <          1.8E-09 Ry

     total all-electron energy =    -38013.518389 Ry

     The total energy is the sum of the following terms:

     one-electron contribution =      13.86031978 Ry
     hartree contribution      =       7.57713174 Ry
     xc contribution           =     -31.82170592 Ry
     ewald contribution        =     -71.95438534 Ry
     one-center paw contrib.   =    -682.34525000 Ry
     smearing contrib. (-TS)   =      -0.00003724 Ry

     convergence has been achieved in  23 iterations

     Forces acting on atoms (cartesian axes, Ry/au):

     atom    1 type  1   force =     0.00000000    0.00000000    0.00000000

     Total force =     0.000000     Total SCF correction =     0.000000


     Computing stress (Cartesian axis) and pressure

          total   stress  (Ry/bohr**3)                   (kbar)     P=   11.81
   0.00008030  -0.00000000  -0.00000000         11.81     -0.00     -0.00
  -0.00000000   0.00008030   0.00000000         -0.00     11.81      0.00
  -0.00000000   0.00000000   0.00008030         -0.00      0.00     11.81


     Writing output data file Au.save/

     init_run     :      0.43s CPU      0.46s WALL (       1 calls)
     electrons    :     12.15s CPU     12.90s WALL (       1 calls)
     forces       :      0.04s CPU      0.04s WALL (       1 calls)
     stress       :      0.15s CPU      0.15s WALL (       1 calls)

     Called by init_run:
     wfcinit      :      0.13s CPU      0.14s WALL (       1 calls)
     potinit      :      0.11s CPU      0.12s WALL (       1 calls)
     hinit0       :      0.17s CPU      0.17s WALL (       1 calls)

     Called by electrons:
     c_bands      :      7.91s CPU      8.25s WALL (      24 calls)
     sum_band     :      1.47s CPU      1.54s WALL (      24 calls)
     v_of_rho     :      0.12s CPU      0.13s WALL (      24 calls)
     newd         :      0.20s CPU      0.23s WALL (      24 calls)
     PAW_pot      :      2.51s CPU      2.84s WALL (      24 calls)
     mix_rho      :      0.02s CPU      0.02s WALL (      24 calls)

     Called by c_bands:
     init_us_2    :      0.23s CPU      0.24s WALL (    1785 calls)
     cegterg      :      7.54s CPU      7.87s WALL (     840 calls)

     Called by sum_band:
     sum_band:bec :      0.01s CPU      0.01s WALL (     840 calls)
     addusdens    :      0.18s CPU      0.18s WALL (      24 calls)

     Called by *egterg:
     h_psi        :      5.68s CPU      5.94s WALL (    2887 calls)
     s_psi        :      0.18s CPU      0.19s WALL (    2887 calls)
     g_psi        :      0.02s CPU      0.02s WALL (    2012 calls)
     cdiaghg      :      0.69s CPU      0.72s WALL (    2817 calls)

     Called by h_psi:
     h_psi:pot    :      5.65s CPU      5.91s WALL (    2887 calls)
     h_psi:calbec :      0.30s CPU      0.32s WALL (    2887 calls)
     vloc_psi     :      5.15s CPU      5.38s WALL (    2887 calls)
     add_vuspsi   :      0.18s CPU      0.19s WALL (    2887 calls)

     General routines
     calbec       :      0.41s CPU      0.43s WALL (    3902 calls)
     fft          :      0.07s CPU      0.07s WALL (     291 calls)
     ffts         :      0.01s CPU      0.01s WALL (      24 calls)
     fftw         :      5.77s CPU      6.03s WALL (   51862 calls)

     Parallel routines
     fft_scatt_xy :      0.46s CPU      0.49s WALL (   52177 calls)
     fft_scatt_yz :      1.75s CPU      1.82s WALL (   52177 calls)

     PWSCF        :    13.74s CPU        14.59s WALL


   This run was terminated on:  12: 3: 2  26Mar2024            

=------------------------------------------------------------------------------=
   JOB DONE.
=------------------------------------------------------------------------------=
