
     Program PWSCF v.6.3MaX starts on 26Mar2024 at 11:16:50 

     This program is part of the open-source Quantum ESPRESSO suite
     for quantum simulation of materials; please cite
         "P. Giannozzi et al., J. Phys.:Condens. Matter 21 395502 (2009);
         "P. Giannozzi et al., J. Phys.:Condens. Matter 29 465901 (2017);
          URL http://www.quantum-espresso.org", 
     in publications or presentations arising from this work. More details at
     http://www.quantum-espresso.org/quote

     Parallel version (MPI), running on     5 processors

     MPI processes distributed on     1 nodes
     R & G space division:  proc/nbgrp/npool/nimage =       5
     Waiting for input...
     Reading input from standard input

     Current dimensions of program PWSCF are:
     Max number of different atomic species (ntypx) = 10
     Max number of k-points (npk) =  40000
     Max angular momentum in pseudopotentials (lmaxx) =  3
               file Au.pbe-n-kjpaw_psl.1.0.0.UPF: wavefunction(s)  6S 5D renormalized

     Subspace diagonalization in iterative solution of the eigenvalue problem:
     a serial algorithm will be used


     Parallelization info
     --------------------
     sticks:   dense  smooth     PW     G-vecs:    dense   smooth      PW
     Min          24      24     11                  178      178      45
     Max          25      25     11                  181      181      46
     Sum         121     121     55                  893      893     229



     bravais-lattice index     =            2
     lattice parameter (alat)  =       7.7100  a.u.
     unit-cell volume          =     114.5785 (a.u.)^3
     number of atoms/cell      =            1
     number of atomic types    =            1
     number of electrons       =        11.00
     number of Kohn-Sham states=           10
     kinetic-energy cutoff     =      15.0000  Ry
     charge density cutoff     =      60.0000  Ry
     convergence threshold     =      1.0E-08
     mixing beta               =       0.7000
     number of iterations used =            8  plain     mixing
     Exchange-correlation      = SLA PW PBX PBC ( 1  4  3  4 0 0)

     celldm(1)=   7.710000  celldm(2)=   0.000000  celldm(3)=   0.000000
     celldm(4)=   0.000000  celldm(5)=   0.000000  celldm(6)=   0.000000

     crystal axes: (cart. coord. in units of alat)
               a(1) = (  -0.500000   0.000000   0.500000 )  
               a(2) = (   0.000000   0.500000   0.500000 )  
               a(3) = (  -0.500000   0.500000   0.000000 )  

     reciprocal axes: (cart. coord. in units 2 pi/alat)
               b(1) = ( -1.000000 -1.000000  1.000000 )  
               b(2) = (  1.000000  1.000000  1.000000 )  
               b(3) = ( -1.000000  1.000000 -1.000000 )  


     PseudoPot. # 1 for Au read from file:
     /home/lorenzo/pseudos/Au/Au.pbe-n-kjpaw_psl.1.0.0.UPF
     MD5 check sum: 4db85c736373c707a97ce4c36c2a9d23
     Pseudo is Projector augmented-wave + core cor, Zval = 11.0
     Generated using "atomic" code by A. Dal Corso v.6.3
     Shape of augmentation charge: PSQ
     Using radial grid of 1279 points,  6 beta functions with: 
                l(1) =   0
                l(2) =   0
                l(3) =   1
                l(4) =   1
                l(5) =   2
                l(6) =   2
     Q(r) pseudized with 0 coefficients 


     atomic species   valence    mass     pseudopotential
        Au            11.00   196.96600     Au( 1.00)

     48 Sym. Ops., with inversion, found



   Cartesian axes

     site n.     atom                  positions (alat units)
         1           Au  tau(   1) = (   0.0000000   0.0000000   0.0000000  )

     number of k points=    16  gaussian smearing, width (Ry)=  0.0100
                       cart. coord. in units 2pi/alat
        k(    1) = (   0.0000000   0.0000000   0.0000000), wk =   0.0092593
        k(    2) = (  -0.1666667   0.1666667  -0.1666667), wk =   0.0740741
        k(    3) = (  -0.3333333   0.3333333  -0.3333333), wk =   0.0740741
        k(    4) = (   0.5000000  -0.5000000   0.5000000), wk =   0.0370370
        k(    5) = (   0.0000000   0.3333333   0.0000000), wk =   0.0555556
        k(    6) = (  -0.1666667   0.5000000  -0.1666667), wk =   0.2222222
        k(    7) = (   0.6666667  -0.3333333   0.6666667), wk =   0.2222222
        k(    8) = (   0.5000000  -0.1666667   0.5000000), wk =   0.2222222
        k(    9) = (   0.3333333   0.0000000   0.3333333), wk =   0.1111111
        k(   10) = (   0.0000000   0.6666667   0.0000000), wk =   0.0555556
        k(   11) = (   0.8333333  -0.1666667   0.8333333), wk =   0.2222222
        k(   12) = (   0.6666667  -0.0000000   0.6666667), wk =   0.1111111
        k(   13) = (   0.0000000  -1.0000000   0.0000000), wk =   0.0277778
        k(   14) = (   0.6666667  -0.3333333   1.0000000), wk =   0.2222222
        k(   15) = (   0.5000000  -0.1666667   0.8333333), wk =   0.2222222
        k(   16) = (  -0.3333333  -1.0000000   0.0000000), wk =   0.1111111

     Dense  grid:      893 G-vectors     FFT dimensions: (  15,  15,  15)

     Estimated max dynamical RAM per process >       1.50 MB

     Estimated total dynamical RAM >       7.52 MB

     Check: negative/imaginary core charge=   -0.000006    0.000000

     Initial potential from superposition of free atoms

     starting charge   10.99989, renormalised to   11.00000
     Starting wfcs are    9 randomized atomic wfcs +    1 random wfcs
     Checking if some PAW data can be deallocated... 

     total cpu time spent up to now is        1.4 secs

     Self-consistent Calculation

     iteration #  1     ecut=    15.00 Ry     beta= 0.70
     Davidson diagonalization with overlap
     ethr =  1.00E-02,  avg # of iterations =  5.2

     total cpu time spent up to now is        1.7 secs

     total energy              =    -774.88356102 Ry
     Harris-Foulkes estimate   =    -774.98357164 Ry
     estimated scf accuracy    <       0.12765368 Ry

     iteration #  2     ecut=    15.00 Ry     beta= 0.70
     Davidson diagonalization with overlap
     ethr =  1.16E-03,  avg # of iterations =  2.0

     total cpu time spent up to now is        1.9 secs

     total energy              =    -774.92361265 Ry
     Harris-Foulkes estimate   =    -774.93129428 Ry
     estimated scf accuracy    <       0.01479246 Ry

     iteration #  3     ecut=    15.00 Ry     beta= 0.70
     Davidson diagonalization with overlap
     ethr =  1.34E-04,  avg # of iterations =  1.7

     total cpu time spent up to now is        2.0 secs

     total energy              =    -774.92604673 Ry
     Harris-Foulkes estimate   =    -774.92599949 Ry
     estimated scf accuracy    <       0.00014021 Ry

     iteration #  4     ecut=    15.00 Ry     beta= 0.70
     Davidson diagonalization with overlap
     ethr =  1.27E-06,  avg # of iterations =  3.2

     total cpu time spent up to now is        2.2 secs

     total energy              =    -774.92610715 Ry
     Harris-Foulkes estimate   =    -774.92610853 Ry
     estimated scf accuracy    <       0.00000428 Ry

     iteration #  5     ecut=    15.00 Ry     beta= 0.70
     Davidson diagonalization with overlap
     ethr =  3.89E-08,  avg # of iterations =  1.4

     total cpu time spent up to now is        2.3 secs

     total energy              =    -774.92610731 Ry
     Harris-Foulkes estimate   =    -774.92610757 Ry
     estimated scf accuracy    <       0.00000073 Ry

     iteration #  6     ecut=    15.00 Ry     beta= 0.70
     Davidson diagonalization with overlap
     ethr =  6.63E-09,  avg # of iterations =  2.0

     total cpu time spent up to now is        2.5 secs

     End of self-consistent calculation

          k = 0.0000 0.0000 0.0000 (   113 PWs)   bands (ev):

     6.2379  10.9151  10.9151  10.9151  12.3821  12.3821  31.7309  35.4702
    35.4702  35.4702

          k =-0.1667 0.1667-0.1667 (   116 PWs)   bands (ev):

     7.1385  10.6525  11.1795  11.1795  12.3387  12.3387  31.0208  32.8845
    36.4796  36.4796

          k =-0.3333 0.3333-0.3333 (   111 PWs)   bands (ev):

     8.4090  11.0393  11.0393  11.9389  13.1717  13.1717  24.3147  32.0382
    35.4379  35.4379

          k = 0.5000-0.5000 0.5000 (   108 PWs)   bands (ev):

     8.4201  10.9386  10.9386  13.7465  13.7465  15.2293  19.1833  31.0582
    33.6533  33.6533

          k = 0.0000 0.3333 0.0000 (   113 PWs)   bands (ev):

     7.4602  10.3497  11.4932  11.4932  11.9305  12.6884  33.4687  33.5268
    33.9126  33.9126

          k =-0.1667 0.5000-0.1667 (   115 PWs)   bands (ev):

     8.8271  10.1374  11.0344  11.7085  13.1666  13.3194  26.9489  32.1419
    33.0718  34.4693

          k = 0.6667-0.3333 0.6667 (   115 PWs)   bands (ev):

     9.0055  10.4536  11.4261  11.6812  13.7029  16.7223  20.2989  30.4305
    31.8221  32.9716

          k = 0.5000-0.1667 0.5000 (   115 PWs)   bands (ev):

     9.1442  10.5773  11.4164  11.5015  12.9019  15.6156  22.6081  29.3116
    32.9323  34.7107

          k = 0.3333 0.0000 0.3333 (   111 PWs)   bands (ev):

     8.4282  10.3403  11.1948  11.7163  11.9724  13.5028  28.6263  31.0298
    35.1978  35.8730

          k = 0.0000 0.6667 0.0000 (   113 PWs)   bands (ev):

     8.9223   9.2563  12.8783  13.0734  13.0734  13.2927  28.4209  28.9607
    28.9607  33.6614

          k = 0.8333-0.1667 0.8333 (   108 PWs)   bands (ev):

     9.0050   9.4648  12.3130  12.9156  13.8851  17.2414  22.6714  26.4714
    28.2245  35.2159

          k = 0.6667-0.0000 0.6667 (   116 PWs)   bands (ev):

     9.4284  10.3232  11.1645  12.2411  13.1610  18.4915  22.8987  23.5669
    30.8708  34.4929

          k = 0.0000-1.0000 0.0000 (   116 PWs)   bands (ev):

     8.5898   8.7491  13.5650  13.9882  13.9882  17.1842  21.8265  26.3393
    26.3393  34.6173

          k = 0.6667-0.3333 1.0000 (   110 PWs)   bands (ev):

     9.7844   9.8979  10.6209  12.7188  13.0530  15.8571  24.7720  26.9537
    30.4857  36.8137

          k = 0.5000-0.1667 0.8333 (   112 PWs)   bands (ev):

     9.8922   9.9374  10.9027  12.1769  13.6069  19.4083  20.4571  26.2318
    28.5794  36.4198

          k =-0.3333-1.0000 0.0000 (   110 PWs)   bands (ev):

     9.3256   9.5755  11.6936  12.7658  14.0418  20.4712  21.0014  24.5991
    26.3059  38.5745

     the Fermi energy is    15.8883 ev

!    total energy              =    -774.92610747 Ry
     Harris-Foulkes estimate   =    -774.92610747 Ry
     estimated scf accuracy    <          8.3E-09 Ry

     total all-electron energy =    -38023.772199 Ry

     The total energy is the sum of the following terms:

     one-electron contribution =      14.05894488 Ry
     hartree contribution      =       7.23736723 Ry
     xc contribution           =     -31.92929554 Ry
     ewald contribution        =     -71.95438538 Ry
     one-center paw contrib.   =    -692.33813271 Ry
     smearing contrib. (-TS)   =      -0.00060595 Ry

     convergence has been achieved in   6 iterations

     Forces acting on atoms (cartesian axes, Ry/au):

     atom    1 type  1   force =     0.00000000    0.00000000    0.00000000

     Total force =     0.000000     Total SCF correction =     0.000000


     Computing stress (Cartesian axis) and pressure

          total   stress  (Ry/bohr**3)                   (kbar)     P= -931.30
  -0.00633085  -0.00000000  -0.00000000       -931.30     -0.00     -0.00
  -0.00000000  -0.00633085   0.00000000         -0.00   -931.30      0.00
  -0.00000000   0.00000000  -0.00633085         -0.00      0.00   -931.30


     Writing output data file Au.save/

     init_run     :      0.21s CPU      0.23s WALL (       1 calls)
     electrons    :      0.93s CPU      1.07s WALL (       1 calls)
     forces       :      0.01s CPU      0.01s WALL (       1 calls)
     stress       :      0.02s CPU      0.02s WALL (       1 calls)

     Called by init_run:
     wfcinit      :      0.01s CPU      0.02s WALL (       1 calls)
     potinit      :      0.10s CPU      0.12s WALL (       1 calls)
     hinit0       :      0.08s CPU      0.08s WALL (       1 calls)

     Called by electrons:
     c_bands      :      0.26s CPU      0.31s WALL (       6 calls)
     sum_band     :      0.04s CPU      0.05s WALL (       6 calls)
     v_of_rho     :      0.01s CPU      0.01s WALL (       7 calls)
     newd         :      0.01s CPU      0.01s WALL (       7 calls)
     PAW_pot      :      0.71s CPU      0.81s WALL (       7 calls)
     mix_rho      :      0.00s CPU      0.00s WALL (       6 calls)

     Called by c_bands:
     init_us_2    :      0.01s CPU      0.01s WALL (     240 calls)
     cegterg      :      0.25s CPU      0.30s WALL (      96 calls)

     Called by sum_band:
     sum_band:bec :      0.00s CPU      0.00s WALL (      96 calls)
     addusdens    :      0.01s CPU      0.01s WALL (       6 calls)

     Called by *egterg:
     h_psi        :      0.15s CPU      0.18s WALL (     360 calls)
     s_psi        :      0.00s CPU      0.01s WALL (     360 calls)
     g_psi        :      0.00s CPU      0.00s WALL (     248 calls)
     cdiaghg      :      0.08s CPU      0.09s WALL (     344 calls)

     Called by h_psi:
     h_psi:pot    :      0.15s CPU      0.18s WALL (     360 calls)
     h_psi:calbec :      0.01s CPU      0.01s WALL (     360 calls)
     vloc_psi     :      0.13s CPU      0.16s WALL (     360 calls)
     add_vuspsi   :      0.00s CPU      0.01s WALL (     360 calls)

     General routines
     calbec       :      0.01s CPU      0.02s WALL (     536 calls)
     fft          :      0.00s CPU      0.00s WALL (     103 calls)
     ffts         :      0.00s CPU      0.00s WALL (       6 calls)
     fftw         :      0.14s CPU      0.17s WALL (    6204 calls)

     Parallel routines
     fft_scatt_xy :      0.02s CPU      0.02s WALL (    6313 calls)
     fft_scatt_yz :      0.05s CPU      0.07s WALL (    6313 calls)

     PWSCF        :     2.36s CPU         2.58s WALL


   This run was terminated on:  11:16:52  26Mar2024            

=------------------------------------------------------------------------------=
   JOB DONE.
=------------------------------------------------------------------------------=
