
     Program PWSCF v.6.3MaX starts on 26Mar2024 at 12:20:30 

     This program is part of the open-source Quantum ESPRESSO suite
     for quantum simulation of materials; please cite
         "P. Giannozzi et al., J. Phys.:Condens. Matter 21 395502 (2009);
         "P. Giannozzi et al., J. Phys.:Condens. Matter 29 465901 (2017);
          URL http://www.quantum-espresso.org", 
     in publications or presentations arising from this work. More details at
     http://www.quantum-espresso.org/quote

     Parallel version (MPI), running on     5 processors

     MPI processes distributed on     1 nodes
     R & G space division:  proc/nbgrp/npool/nimage =       5
     Waiting for input...
     Reading input from standard input

     Current dimensions of program PWSCF are:
     Max number of different atomic species (ntypx) = 10
     Max number of k-points (npk) =  40000
     Max angular momentum in pseudopotentials (lmaxx) =  3
               file Au.pbesol-n-kjpaw_psl.1.0.0.UPF: wavefunction(s)  6S 5D renormalized

     Subspace diagonalization in iterative solution of the eigenvalue problem:
     a serial algorithm will be used


     Parallelization info
     --------------------
     sticks:   dense  smooth     PW     G-vecs:    dense   smooth      PW
     Min         129     129     39                 2201     2201     361
     Max         130     130     40                 2204     2204     363
     Sum         649     649    199                11017    11017    1807



     bravais-lattice index     =            2
     lattice parameter (alat)  =       7.7100  a.u.
     unit-cell volume          =     114.5785 (a.u.)^3
     number of atoms/cell      =            1
     number of atomic types    =            1
     number of electrons       =        11.00
     number of Kohn-Sham states=           10
     kinetic-energy cutoff     =      80.0000  Ry
     charge density cutoff     =     320.0000  Ry
     convergence threshold     =      1.0E-08
     mixing beta               =       0.7000
     number of iterations used =            8  plain     mixing
     Exchange-correlation      = SLA PW PSX PSC ( 1  4 10  8 0 0)

     celldm(1)=   7.710000  celldm(2)=   0.000000  celldm(3)=   0.000000
     celldm(4)=   0.000000  celldm(5)=   0.000000  celldm(6)=   0.000000

     crystal axes: (cart. coord. in units of alat)
               a(1) = (  -0.500000   0.000000   0.500000 )  
               a(2) = (   0.000000   0.500000   0.500000 )  
               a(3) = (  -0.500000   0.500000   0.000000 )  

     reciprocal axes: (cart. coord. in units 2 pi/alat)
               b(1) = ( -1.000000 -1.000000  1.000000 )  
               b(2) = (  1.000000  1.000000  1.000000 )  
               b(3) = ( -1.000000  1.000000 -1.000000 )  


     PseudoPot. # 1 for Au read from file:
     /home/lorenzo/pseudos/Au/Au.pbesol-n-kjpaw_psl.1.0.0.UPF
     MD5 check sum: abc371be705c47a6b6a6b4088b452d3e
     Pseudo is Projector augmented-wave + core cor, Zval = 11.0
     Generated using "atomic" code by A. Dal Corso v.6.3
     Shape of augmentation charge: PSQ
     Using radial grid of 1279 points,  6 beta functions with: 
                l(1) =   0
                l(2) =   0
                l(3) =   1
                l(4) =   1
                l(5) =   2
                l(6) =   2
     Q(r) pseudized with 0 coefficients 


     atomic species   valence    mass     pseudopotential
        Au            11.00   196.96600     Au( 1.00)

     48 Sym. Ops., with inversion, found



   Cartesian axes

     site n.     atom                  positions (alat units)
         1           Au  tau(   1) = (   0.0000000   0.0000000   0.0000000  )

     number of k points=     4  gaussian smearing, width (Ry)=  0.0100
                       cart. coord. in units 2pi/alat
        k(    1) = (   0.0000000   0.0000000   0.0000000), wk =   0.0740741
        k(    2) = (  -0.3333333   0.3333333  -0.3333333), wk =   0.5925926
        k(    3) = (   0.0000000   0.6666667   0.0000000), wk =   0.4444444
        k(    4) = (   0.6666667  -0.0000000   0.6666667), wk =   0.8888889

     Dense  grid:    11017 G-vectors     FFT dimensions: (  32,  32,  32)

     Estimated max dynamical RAM per process >      10.21 MB

     Estimated total dynamical RAM >      51.03 MB

     Initial potential from superposition of free atoms

     starting charge   10.99990, renormalised to   11.00000
     Starting wfcs are    9 randomized atomic wfcs +    1 random wfcs
     Checking if some PAW data can be deallocated... 

     total cpu time spent up to now is        1.5 secs

     Self-consistent Calculation

     iteration #  1     ecut=    80.00 Ry     beta= 0.70
     Davidson diagonalization with overlap
     ethr =  1.00E-02,  avg # of iterations =  5.8

     Threshold (ethr) on eigenvalues was too large:
     Diagonalizing with lowered threshold

     Davidson diagonalization with overlap
     ethr =  6.00E-04,  avg # of iterations =  2.5

     total cpu time spent up to now is        1.9 secs

     total energy              =    -764.68776610 Ry
     Harris-Foulkes estimate   =    -764.73422415 Ry
     estimated scf accuracy    <       0.06588050 Ry

     iteration #  2     ecut=    80.00 Ry     beta= 0.70
     Davidson diagonalization with overlap
     ethr =  5.99E-04,  avg # of iterations =  2.8

     negative rho (up, down):  2.327E-03 0.000E+00

     total cpu time spent up to now is        2.1 secs

     total energy              =    -764.70883004 Ry
     Harris-Foulkes estimate   =    -764.71829182 Ry
     estimated scf accuracy    <       0.02018491 Ry

     iteration #  3     ecut=    80.00 Ry     beta= 0.70
     Davidson diagonalization with overlap
     ethr =  1.83E-04,  avg # of iterations =  2.5

     total cpu time spent up to now is        2.3 secs

     total energy              =    -764.71021199 Ry
     Harris-Foulkes estimate   =    -764.71351928 Ry
     estimated scf accuracy    <       0.02066824 Ry

     iteration #  4     ecut=    80.00 Ry     beta= 0.70
     Davidson diagonalization with overlap
     ethr =  1.83E-04,  avg # of iterations =  2.2

     total cpu time spent up to now is        2.5 secs

     total energy              =    -764.71139282 Ry
     Harris-Foulkes estimate   =    -764.71170612 Ry
     estimated scf accuracy    <       0.00171129 Ry

     iteration #  5     ecut=    80.00 Ry     beta= 0.70
     Davidson diagonalization with overlap
     ethr =  1.56E-05,  avg # of iterations =  3.0

     total cpu time spent up to now is        2.7 secs

     total energy              =    -764.71165084 Ry
     Harris-Foulkes estimate   =    -764.71166080 Ry
     estimated scf accuracy    <       0.00005279 Ry

     iteration #  6     ecut=    80.00 Ry     beta= 0.70
     Davidson diagonalization with overlap
     ethr =  4.80E-07,  avg # of iterations =  2.2

     total cpu time spent up to now is        2.9 secs

     total energy              =    -764.71165565 Ry
     Harris-Foulkes estimate   =    -764.71165736 Ry
     estimated scf accuracy    <       0.00000616 Ry

     iteration #  7     ecut=    80.00 Ry     beta= 0.70
     Davidson diagonalization with overlap
     ethr =  5.60E-08,  avg # of iterations =  3.2

     total cpu time spent up to now is        3.1 secs

     total energy              =    -764.71165759 Ry
     Harris-Foulkes estimate   =    -764.71165847 Ry
     estimated scf accuracy    <       0.00000578 Ry

     iteration #  8     ecut=    80.00 Ry     beta= 0.70
     Davidson diagonalization with overlap
     ethr =  5.25E-08,  avg # of iterations =  1.8

     total cpu time spent up to now is        3.3 secs

     total energy              =    -764.71165797 Ry
     Harris-Foulkes estimate   =    -764.71165800 Ry
     estimated scf accuracy    <       0.00000050 Ry

     iteration #  9     ecut=    80.00 Ry     beta= 0.70
     Davidson diagonalization with overlap
     ethr =  4.56E-09,  avg # of iterations =  1.8

     total cpu time spent up to now is        3.5 secs

     total energy              =    -764.71165790 Ry
     Harris-Foulkes estimate   =    -764.71165800 Ry
     estimated scf accuracy    <       0.00000036 Ry

     iteration # 10     ecut=    80.00 Ry     beta= 0.70
     Davidson diagonalization with overlap
     ethr =  3.32E-09,  avg # of iterations =  2.5

     total cpu time spent up to now is        3.7 secs

     total energy              =    -764.71165799 Ry
     Harris-Foulkes estimate   =    -764.71165803 Ry
     estimated scf accuracy    <       0.00000031 Ry

     iteration # 11     ecut=    80.00 Ry     beta= 0.70
     Davidson diagonalization with overlap
     ethr =  2.82E-09,  avg # of iterations =  1.2

     total cpu time spent up to now is        3.8 secs

     total energy              =    -764.71165799 Ry
     Harris-Foulkes estimate   =    -764.71165800 Ry
     estimated scf accuracy    <       0.00000009 Ry

     iteration # 12     ecut=    80.00 Ry     beta= 0.70
     Davidson diagonalization with overlap
     ethr =  8.37E-10,  avg # of iterations =  3.0

     total cpu time spent up to now is        4.0 secs

     total energy              =    -764.71165801 Ry
     Harris-Foulkes estimate   =    -764.71165801 Ry
     estimated scf accuracy    <       0.00000002 Ry

     iteration # 13     ecut=    80.00 Ry     beta= 0.70
     Davidson diagonalization with overlap
     ethr =  1.67E-10,  avg # of iterations =  1.2

     total cpu time spent up to now is        4.2 secs

     total energy              =    -764.71165800 Ry
     Harris-Foulkes estimate   =    -764.71165801 Ry
     estimated scf accuracy    <       0.00000002 Ry

     iteration # 14     ecut=    80.00 Ry     beta= 0.70
     Davidson diagonalization with overlap
     ethr =  1.48E-10,  avg # of iterations =  1.5

     total cpu time spent up to now is        4.4 secs

     End of self-consistent calculation

          k = 0.0000 0.0000 0.0000 (  1411 PWs)   bands (ev):

     5.8068  11.0241  11.0241  11.0241  12.5445  12.5445  31.1459  34.9746
    34.9746  34.9746

          k =-0.3333 0.3333-0.3333 (  1399 PWs)   bands (ev):

     8.2211  11.1749  11.1749  11.7427  13.1663  13.1663  23.6699  31.3179
    34.8888  34.8888

          k = 0.0000 0.6667 0.0000 (  1379 PWs)   bands (ev):

     8.8308   9.4079  12.6979  13.0678  13.0678  13.3953  27.8785  28.3468
    28.3468  32.3044

          k = 0.6667-0.0000 0.6667 (  1382 PWs)   bands (ev):

     9.5419  10.3478  11.2219  12.4345  13.3201  18.1967  22.2113  22.8559
    30.1249  33.0674

     the Fermi energy is    13.4879 ev

!    total energy              =    -764.71165801 Ry
     Harris-Foulkes estimate   =    -764.71165801 Ry
     estimated scf accuracy    <          3.1E-09 Ry

     total all-electron energy =    -38013.546120 Ry

     The total energy is the sum of the following terms:

     one-electron contribution =      13.85945076 Ry
     hartree contribution      =       7.53398478 Ry
     xc contribution           =     -31.80655278 Ry
     ewald contribution        =     -71.95438534 Ry
     one-center paw contrib.   =    -682.34280663 Ry
     smearing contrib. (-TS)   =      -0.00134880 Ry

     convergence has been achieved in  14 iterations

     Forces acting on atoms (cartesian axes, Ry/au):

     atom    1 type  1   force =     0.00000000    0.00000000    0.00000000

     Total force =     0.000000     Total SCF correction =     0.000000


     Computing stress (Cartesian axis) and pressure

          total   stress  (Ry/bohr**3)                   (kbar)     P=  -45.94
  -0.00031233   0.00000000   0.00000000        -45.94      0.00      0.00
   0.00000000  -0.00031233  -0.00000000          0.00    -45.94     -0.00
   0.00000000  -0.00000000  -0.00031233          0.00     -0.00    -45.94


     Writing output data file Au.save/

     init_run     :      0.38s CPU      0.41s WALL (       1 calls)
     electrons    :      2.82s CPU      2.95s WALL (       1 calls)
     forces       :      0.04s CPU      0.04s WALL (       1 calls)
     stress       :      0.11s CPU      0.11s WALL (       1 calls)

     Called by init_run:
     wfcinit      :      0.02s CPU      0.02s WALL (       1 calls)
     potinit      :      0.13s CPU      0.15s WALL (       1 calls)
     hinit0       :      0.19s CPU      0.19s WALL (       1 calls)

     Called by electrons:
     c_bands      :      0.69s CPU      0.76s WALL (      15 calls)
     sum_band     :      0.33s CPU      0.35s WALL (      15 calls)
     v_of_rho     :      0.11s CPU      0.12s WALL (      15 calls)
     newd         :      0.18s CPU      0.18s WALL (      15 calls)
     PAW_pot      :      1.61s CPU      1.66s WALL (      15 calls)
     mix_rho      :      0.01s CPU      0.01s WALL (      15 calls)

     Called by c_bands:
     init_us_2    :      0.02s CPU      0.03s WALL (     132 calls)
     cegterg      :      0.66s CPU      0.72s WALL (      60 calls)

     Called by sum_band:
     sum_band:bec :      0.00s CPU      0.00s WALL (      60 calls)
     addusdens    :      0.17s CPU      0.17s WALL (      15 calls)

     Called by *egterg:
     h_psi        :      0.51s CPU      0.56s WALL (     213 calls)
     s_psi        :      0.02s CPU      0.02s WALL (     213 calls)
     g_psi        :      0.00s CPU      0.00s WALL (     149 calls)
     cdiaghg      :      0.05s CPU      0.05s WALL (     205 calls)

     Called by h_psi:
     h_psi:pot    :      0.51s CPU      0.56s WALL (     213 calls)
     h_psi:calbec :      0.03s CPU      0.04s WALL (     213 calls)
     vloc_psi     :      0.45s CPU      0.50s WALL (     213 calls)
     add_vuspsi   :      0.02s CPU      0.02s WALL (     213 calls)

     General routines
     calbec       :      0.05s CPU      0.05s WALL (     293 calls)
     fft          :      0.06s CPU      0.07s WALL (     192 calls)
     ffts         :      0.00s CPU      0.00s WALL (      15 calls)
     fftw         :      0.51s CPU      0.56s WALL (    3644 calls)

     Parallel routines
     fft_scatt_xy :      0.05s CPU      0.06s WALL (    3851 calls)
     fft_scatt_yz :      0.19s CPU      0.21s WALL (    3851 calls)

     PWSCF        :     4.43s CPU         4.64s WALL


   This run was terminated on:  12:20:35  26Mar2024            

=------------------------------------------------------------------------------=
   JOB DONE.
=------------------------------------------------------------------------------=
