
     Program PWSCF v.6.3MaX starts on 26Mar2024 at 11:10:41 

     This program is part of the open-source Quantum ESPRESSO suite
     for quantum simulation of materials; please cite
         "P. Giannozzi et al., J. Phys.:Condens. Matter 21 395502 (2009);
         "P. Giannozzi et al., J. Phys.:Condens. Matter 29 465901 (2017);
          URL http://www.quantum-espresso.org", 
     in publications or presentations arising from this work. More details at
     http://www.quantum-espresso.org/quote

     Parallel version (MPI), running on     5 processors

     MPI processes distributed on     1 nodes
     R & G space division:  proc/nbgrp/npool/nimage =       5
     Waiting for input...
     Reading input from standard input

     Current dimensions of program PWSCF are:
     Max number of different atomic species (ntypx) = 10
     Max number of k-points (npk) =  40000
     Max angular momentum in pseudopotentials (lmaxx) =  3
               file Au.pbesol-n-kjpaw_psl.1.0.0.UPF: wavefunction(s)  6S 5D renormalized

     Subspace diagonalization in iterative solution of the eigenvalue problem:
     a serial algorithm will be used


     Parallelization info
     --------------------
     sticks:   dense  smooth     PW     G-vecs:    dense   smooth      PW
     Min         164     164     50                 3094     3094     527
     Max         165     165     51                 3095     3095     528
     Sum         823     823    253                15473    15473    2637



     bravais-lattice index     =            2
     lattice parameter (alat)  =       7.7100  a.u.
     unit-cell volume          =     114.5785 (a.u.)^3
     number of atoms/cell      =            1
     number of atomic types    =            1
     number of electrons       =        11.00
     number of Kohn-Sham states=           10
     kinetic-energy cutoff     =     100.0000  Ry
     charge density cutoff     =     400.0000  Ry
     convergence threshold     =      1.0E-08
     mixing beta               =       0.7000
     number of iterations used =            8  plain     mixing
     Exchange-correlation      = SLA PW PSX PSC ( 1  4 10  8 0 0)

     celldm(1)=   7.710000  celldm(2)=   0.000000  celldm(3)=   0.000000
     celldm(4)=   0.000000  celldm(5)=   0.000000  celldm(6)=   0.000000

     crystal axes: (cart. coord. in units of alat)
               a(1) = (  -0.500000   0.000000   0.500000 )  
               a(2) = (   0.000000   0.500000   0.500000 )  
               a(3) = (  -0.500000   0.500000   0.000000 )  

     reciprocal axes: (cart. coord. in units 2 pi/alat)
               b(1) = ( -1.000000 -1.000000  1.000000 )  
               b(2) = (  1.000000  1.000000  1.000000 )  
               b(3) = ( -1.000000  1.000000 -1.000000 )  


     PseudoPot. # 1 for Au read from file:
     /home/lorenzo/pseudos/Au/Au.pbesol-n-kjpaw_psl.1.0.0.UPF
     MD5 check sum: abc371be705c47a6b6a6b4088b452d3e
     Pseudo is Projector augmented-wave + core cor, Zval = 11.0
     Generated using "atomic" code by A. Dal Corso v.6.3
     Shape of augmentation charge: PSQ
     Using radial grid of 1279 points,  6 beta functions with: 
                l(1) =   0
                l(2) =   0
                l(3) =   1
                l(4) =   1
                l(5) =   2
                l(6) =   2
     Q(r) pseudized with 0 coefficients 


     atomic species   valence    mass     pseudopotential
        Au            11.00   196.96600     Au( 1.00)

     48 Sym. Ops., with inversion, found



   Cartesian axes

     site n.     atom                  positions (alat units)
         1           Au  tau(   1) = (   0.0000000   0.0000000   0.0000000  )

     number of k points=    20  gaussian smearing, width (Ry)=  0.0100
                       cart. coord. in units 2pi/alat
        k(    1) = (   0.0000000   0.0000000   0.0000000), wk =   0.0058309
        k(    2) = (  -0.1428571   0.1428571  -0.1428571), wk =   0.0466472
        k(    3) = (  -0.2857143   0.2857143  -0.2857143), wk =   0.0466472
        k(    4) = (  -0.4285714   0.4285714  -0.4285714), wk =   0.0466472
        k(    5) = (   0.0000000   0.2857143   0.0000000), wk =   0.0349854
        k(    6) = (  -0.1428571   0.4285714  -0.1428571), wk =   0.1399417
        k(    7) = (  -0.2857143   0.5714286  -0.2857143), wk =   0.1399417
        k(    8) = (   0.5714286  -0.2857143   0.5714286), wk =   0.1399417
        k(    9) = (   0.4285714  -0.1428571   0.4285714), wk =   0.1399417
        k(   10) = (   0.2857143  -0.0000000   0.2857143), wk =   0.0699708
        k(   11) = (   0.0000000   0.5714286   0.0000000), wk =   0.0349854
        k(   12) = (  -0.1428571   0.7142857  -0.1428571), wk =   0.1399417
        k(   13) = (   0.7142857  -0.1428571   0.7142857), wk =   0.1399417
        k(   14) = (   0.5714286   0.0000000   0.5714286), wk =   0.0699708
        k(   15) = (   0.0000000   0.8571429   0.0000000), wk =   0.0349854
        k(   16) = (   0.8571429  -0.0000000   0.8571429), wk =   0.0699708
        k(   17) = (  -0.2857143   0.5714286   0.0000000), wk =   0.1399417
        k(   18) = (   0.5714286  -0.2857143   0.8571429), wk =   0.2798834
        k(   19) = (   0.7142857  -0.1428571   1.0000000), wk =   0.1399417
        k(   20) = (   0.5714286   0.0000000   0.8571429), wk =   0.1399417

     Dense  grid:    15473 G-vectors     FFT dimensions: (  36,  36,  36)

     Estimated max dynamical RAM per process >      14.81 MB

     Estimated total dynamical RAM >      74.03 MB

     Initial potential from superposition of free atoms

     starting charge   10.99990, renormalised to   11.00000
     Starting wfcs are    9 randomized atomic wfcs +    1 random wfcs
     Checking if some PAW data can be deallocated... 

     total cpu time spent up to now is        1.5 secs

     Self-consistent Calculation

     iteration #  1     ecut=   100.00 Ry     beta= 0.70
     Davidson diagonalization with overlap
     ethr =  1.00E-02,  avg # of iterations =  5.1

     Threshold (ethr) on eigenvalues was too large:
     Diagonalizing with lowered threshold

     Davidson diagonalization with overlap
     ethr =  5.56E-04,  avg # of iterations =  2.0

     total cpu time spent up to now is        2.9 secs

     total energy              =    -764.66230747 Ry
     Harris-Foulkes estimate   =    -764.70598560 Ry
     estimated scf accuracy    <       0.06305826 Ry

     iteration #  2     ecut=   100.00 Ry     beta= 0.70
     Davidson diagonalization with overlap
     ethr =  5.73E-04,  avg # of iterations =  2.7

     total cpu time spent up to now is        3.6 secs

     total energy              =    -764.68160270 Ry
     Harris-Foulkes estimate   =    -764.69350911 Ry
     estimated scf accuracy    <       0.01956858 Ry

     iteration #  3     ecut=   100.00 Ry     beta= 0.70
     Davidson diagonalization with overlap
     ethr =  1.78E-04,  avg # of iterations =  1.9

     negative rho (up, down):  1.627E-03 0.000E+00

     total cpu time spent up to now is        4.2 secs

     total energy              =    -764.68583648 Ry
     Harris-Foulkes estimate   =    -764.68590412 Ry
     estimated scf accuracy    <       0.00038048 Ry

     iteration #  4     ecut=   100.00 Ry     beta= 0.70
     Davidson diagonalization with overlap
     ethr =  3.46E-06,  avg # of iterations =  3.5

     negative rho (up, down):  1.622E-03 0.000E+00

     total cpu time spent up to now is        5.5 secs

     total energy              =    -764.68637354 Ry
     Harris-Foulkes estimate   =    -764.68636858 Ry
     estimated scf accuracy    <       0.00045301 Ry

     iteration #  5     ecut=   100.00 Ry     beta= 0.70
     Davidson diagonalization with overlap
     ethr =  3.46E-06,  avg # of iterations =  1.0

     negative rho (up, down):  4.308E-03 0.000E+00

     total cpu time spent up to now is        6.2 secs

     total energy              =    -764.68609175 Ry
     Harris-Foulkes estimate   =    -764.68637373 Ry
     estimated scf accuracy    <       0.00046451 Ry

     iteration #  6     ecut=   100.00 Ry     beta= 0.70
     Davidson diagonalization with overlap
     ethr =  3.46E-06,  avg # of iterations =  2.1

     negative rho (up, down):  5.742E-03 0.000E+00

     total cpu time spent up to now is        6.7 secs

     total energy              =    -764.68622273 Ry
     Harris-Foulkes estimate   =    -764.68621523 Ry
     estimated scf accuracy    <       0.00002971 Ry

     iteration #  7     ecut=   100.00 Ry     beta= 0.70
     Davidson diagonalization with overlap
     ethr =  2.70E-07,  avg # of iterations =  2.1

     negative rho (up, down):  4.038E-03 0.000E+00

     total cpu time spent up to now is        7.3 secs

     total energy              =    -764.68620488 Ry
     Harris-Foulkes estimate   =    -764.68622566 Ry
     estimated scf accuracy    <       0.00004659 Ry

     iteration #  8     ecut=   100.00 Ry     beta= 0.70
     Davidson diagonalization with overlap
     ethr =  2.70E-07,  avg # of iterations =  1.0

     negative rho (up, down):  4.880E-03 0.000E+00

     total cpu time spent up to now is        7.8 secs

     total energy              =    -764.68620742 Ry
     Harris-Foulkes estimate   =    -764.68620890 Ry
     estimated scf accuracy    <       0.00000674 Ry

     iteration #  9     ecut=   100.00 Ry     beta= 0.70
     Davidson diagonalization with overlap
     ethr =  6.13E-08,  avg # of iterations =  2.2

     negative rho (up, down):  4.810E-03 0.000E+00

     total cpu time spent up to now is        8.4 secs

     total energy              =    -764.68620893 Ry
     Harris-Foulkes estimate   =    -764.68620894 Ry
     estimated scf accuracy    <       0.00000004 Ry

     iteration # 10     ecut=   100.00 Ry     beta= 0.70
     Davidson diagonalization with overlap
     ethr =  3.47E-10,  avg # of iterations =  3.4

     negative rho (up, down):  5.038E-03 0.000E+00

     total cpu time spent up to now is        9.1 secs

     total energy              =    -764.68620897 Ry
     Harris-Foulkes estimate   =    -764.68620897 Ry
     estimated scf accuracy    <       0.00000007 Ry

     iteration # 11     ecut=   100.00 Ry     beta= 0.70
     Davidson diagonalization with overlap
     ethr =  3.47E-10,  avg # of iterations =  2.3

     negative rho (up, down):  4.993E-03 0.000E+00

     total cpu time spent up to now is        9.9 secs

     total energy              =    -764.68620897 Ry
     Harris-Foulkes estimate   =    -764.68620898 Ry
     estimated scf accuracy    <       0.00000002 Ry

     iteration # 12     ecut=   100.00 Ry     beta= 0.70
     Davidson diagonalization with overlap
     ethr =  2.06E-10,  avg # of iterations =  1.9

     negative rho (up, down):  5.022E-03 0.000E+00

     total cpu time spent up to now is       10.9 secs

     End of self-consistent calculation

          k = 0.0000 0.0000 0.0000 (  1917 PWs)   bands (ev):

     5.8139  11.0891  11.0891  11.0891  12.6286  12.6286  31.1343  34.9833
    34.9833  34.9833

          k =-0.1429 0.1429-0.1429 (  1934 PWs)   bands (ev):

     6.5012  10.9020  11.2939  11.2939  12.5674  12.5674  30.9859  32.1297
    35.5985  35.5985

          k =-0.2857 0.2857-0.2857 (  1934 PWs)   bands (ev):

     7.9549  11.1751  11.3289  11.3289  12.9759  12.9759  25.5729  31.7589
    35.5388  35.5388

          k =-0.4286 0.4286-0.4286 (  1931 PWs)   bands (ev):

     8.4078  11.0925  11.0925  13.7140  13.7140  13.7263  20.1805  30.5852
    33.6540  33.6540

          k = 0.0000 0.2857 0.0000 (  1944 PWs)   bands (ev):

     6.7369  10.6342  11.5168  11.5168  12.1568  12.8347  32.0996  32.9897
    33.6202  33.6202

          k =-0.1429 0.4286-0.1429 (  1942 PWs)   bands (ev):

     8.0501  10.3561  11.3811  11.7898  12.6636  13.2036  27.8609  32.2744
    32.4074  34.4645

          k =-0.2857 0.5714-0.2857 (  1933 PWs)   bands (ev):

     8.8594  10.8631  11.3555  11.5938  13.8118  14.7157  22.0652  30.8637
    31.5207  32.6497

          k = 0.5714-0.2857 0.5714 (  1932 PWs)   bands (ev):

     8.9156  10.7609  11.4399  12.2467  13.6739  16.6966  19.1244  29.5437
    31.7386  32.5251

          k = 0.4286-0.1429 0.4286 (  1941 PWs)   bands (ev):

     8.8258  10.8966  11.2127  11.5894  12.7435  14.4727  24.0252  29.4606
    32.6461  35.7069

          k = 0.2857-0.0000 0.2857 (  1929 PWs)   bands (ev):

     7.5405  10.5925  11.4272  11.6587  12.1474  13.1747  29.1674  30.6931
    34.6835  35.5367

          k = 0.0000 0.5714 0.0000 (  1948 PWs)   bands (ev):

     8.6498   9.7280  11.9784  12.6737  12.6737  13.3210  29.6359  29.6359
    30.5798  32.3630

          k =-0.1429 0.7143-0.1429 (  1932 PWs)   bands (ev):

     9.1304   9.6387  11.8965  12.7498  13.8743  15.0107  24.3637  27.7692
    28.4409  33.3416

          k = 0.7143-0.1429 0.7143 (  1924 PWs)   bands (ev):

     9.4075  10.2125  11.5258  12.4570  13.7584  18.9178  19.7097  25.2863
    29.4681  33.0560

          k = 0.5714 0.0000 0.5714 (  1933 PWs)   bands (ev):

     9.8115  10.7115  10.7591  12.1681  12.9631  16.5919  23.4324  24.3447
    32.4407  32.7530

          k = 0.0000 0.8571 0.0000 (  1932 PWs)   bands (ev):

     8.7527   9.0889  13.7376  13.9358  13.9358  15.3575  23.3643  26.4295
    26.4295  32.8803

          k = 0.8571-0.0000 0.8571 (  1928 PWs)   bands (ev):

     8.9421   9.2996  13.0167  13.4502  14.0123  18.3690  21.0112  24.4153
    26.8567  33.8523

          k =-0.2857 0.5714 0.0000 (  1931 PWs)   bands (ev):

     9.2825  10.0649  10.9333  12.5982  12.6710  14.5597  25.8998  27.6468
    31.0731  36.0400

          k = 0.5714-0.2857 0.8571 (  1943 PWs)   bands (ev):

     9.6737  10.3513  10.9915  12.2583  13.5847  17.1137  21.2125  26.8183
    28.9499  34.8547

          k = 0.7143-0.1429 1.0000 (  1938 PWs)   bands (ev):

     9.3549   9.5977  11.8346  13.1746  13.9309  17.6532  22.5461  24.9168
    26.1790  36.3342

          k = 0.5714 0.0000 0.8571 (  1921 PWs)   bands (ev):

     9.7538  10.2230  11.0634  12.5629  13.9235  19.5681  21.6290  22.8464
    26.7728  36.2826

     the Fermi energy is    15.3376 ev

!    total energy              =    -764.68620897 Ry
     Harris-Foulkes estimate   =    -764.68620897 Ry
     estimated scf accuracy    <          4.9E-09 Ry

     total all-electron energy =    -38013.520671 Ry

     The total energy is the sum of the following terms:

     one-electron contribution =      13.85543810 Ry
     hartree contribution      =       7.58340721 Ry
     xc contribution           =     -31.82827254 Ry
     ewald contribution        =     -71.95438534 Ry
     one-center paw contrib.   =    -682.34229857 Ry
     smearing contrib. (-TS)   =      -0.00009783 Ry

     convergence has been achieved in  12 iterations

     negative rho (up, down):  5.022E-03 0.000E+00

     Forces acting on atoms (cartesian axes, Ry/au):

     atom    1 type  1   force =     0.00000000    0.00000000    0.00000000

     Total force =     0.000000     Total SCF correction =     0.000000


     Computing stress (Cartesian axis) and pressure


     negative rho (up, down):  5.022E-03 0.000E+00
          total   stress  (Ry/bohr**3)                   (kbar)     P=    9.19
   0.00006246  -0.00000000  -0.00000000          9.19     -0.00     -0.00
  -0.00000000   0.00006246   0.00000000         -0.00      9.19      0.00
  -0.00000000   0.00000000   0.00006246         -0.00      0.00      9.19


     Writing output data file Au.save/

     init_run     :      0.55s CPU      0.59s WALL (       1 calls)
     electrons    :      8.90s CPU      9.35s WALL (       1 calls)
     forces       :      0.08s CPU      0.08s WALL (       1 calls)
     stress       :      0.28s CPU      0.28s WALL (       1 calls)

     Called by init_run:
     wfcinit      :      0.13s CPU      0.14s WALL (       1 calls)
     potinit      :      0.15s CPU      0.17s WALL (       1 calls)
     hinit0       :      0.23s CPU      0.23s WALL (       1 calls)

     Called by electrons:
     c_bands      :      5.66s CPU      6.00s WALL (      13 calls)
     sum_band     :      1.33s CPU      1.39s WALL (      13 calls)
     v_of_rho     :      0.17s CPU      0.17s WALL (      13 calls)
     newd         :      0.25s CPU      0.25s WALL (      13 calls)
     PAW_pot      :      1.60s CPU      1.67s WALL (      13 calls)
     mix_rho      :      0.02s CPU      0.02s WALL (      13 calls)

     Called by c_bands:
     init_us_2    :      0.15s CPU      0.16s WALL (     580 calls)
     cegterg      :      5.41s CPU      5.73s WALL (     260 calls)

     Called by sum_band:
     sum_band:bec :      0.00s CPU      0.00s WALL (     260 calls)
     addusdens    :      0.22s CPU      0.22s WALL (      13 calls)

     Called by *egterg:
     h_psi        :      4.33s CPU      4.63s WALL (     904 calls)
     s_psi        :      0.11s CPU      0.11s WALL (     904 calls)
     g_psi        :      0.01s CPU      0.01s WALL (     624 calls)
     cdiaghg      :      0.26s CPU      0.27s WALL (     864 calls)

     Called by h_psi:
     h_psi:pot    :      4.31s CPU      4.61s WALL (     904 calls)
     h_psi:calbec :      0.26s CPU      0.28s WALL (     904 calls)
     vloc_psi     :      3.93s CPU      4.21s WALL (     904 calls)
     add_vuspsi   :      0.11s CPU      0.12s WALL (     904 calls)

     General routines
     calbec       :      0.41s CPU      0.43s WALL (    1264 calls)
     fft          :      0.12s CPU      0.12s WALL (     170 calls)
     ffts         :      0.00s CPU      0.00s WALL (      13 calls)
     fftw         :      4.50s CPU      4.80s WALL (   15990 calls)

     Parallel routines
     fft_scatt_xy :      0.30s CPU      0.32s WALL (   16173 calls)
     fft_scatt_yz :      1.93s CPU      2.04s WALL (   16173 calls)

     PWSCF        :    10.78s CPU        11.35s WALL


   This run was terminated on:  11:10:52  26Mar2024            

=------------------------------------------------------------------------------=
   JOB DONE.
=------------------------------------------------------------------------------=
