
     Program PWSCF v.6.3MaX starts on 26Mar2024 at 11:41:19 

     This program is part of the open-source Quantum ESPRESSO suite
     for quantum simulation of materials; please cite
         "P. Giannozzi et al., J. Phys.:Condens. Matter 21 395502 (2009);
         "P. Giannozzi et al., J. Phys.:Condens. Matter 29 465901 (2017);
          URL http://www.quantum-espresso.org", 
     in publications or presentations arising from this work. More details at
     http://www.quantum-espresso.org/quote

     Parallel version (MPI), running on     5 processors

     MPI processes distributed on     1 nodes
     R & G space division:  proc/nbgrp/npool/nimage =       5
     Waiting for input...
     Reading input from standard input

     Current dimensions of program PWSCF are:
     Max number of different atomic species (ntypx) = 10
     Max number of k-points (npk) =  40000
     Max angular momentum in pseudopotentials (lmaxx) =  3

     Subspace diagonalization in iterative solution of the eigenvalue problem:
     a serial algorithm will be used


     Parallelization info
     --------------------
     sticks:   dense  smooth     PW     G-vecs:    dense   smooth      PW
     Min          84      84     27                 1115     1115     207
     Max          85      85     28                 1117     1117     208
     Sum         421     421    139                 5577     5577    1037



     bravais-lattice index     =            2
     lattice parameter (alat)  =       7.7100  a.u.
     unit-cell volume          =     114.5785 (a.u.)^3
     number of atoms/cell      =            1
     number of atomic types    =            1
     number of electrons       =        11.00
     number of Kohn-Sham states=           10
     kinetic-energy cutoff     =      50.0000  Ry
     charge density cutoff     =     200.0000  Ry
     convergence threshold     =      1.0E-08
     mixing beta               =       0.7000
     number of iterations used =            8  plain     mixing
     Exchange-correlation      = PBESOL ( 1  4 10  8 0 0)

     celldm(1)=   7.710000  celldm(2)=   0.000000  celldm(3)=   0.000000
     celldm(4)=   0.000000  celldm(5)=   0.000000  celldm(6)=   0.000000

     crystal axes: (cart. coord. in units of alat)
               a(1) = (  -0.500000   0.000000   0.500000 )  
               a(2) = (   0.000000   0.500000   0.500000 )  
               a(3) = (  -0.500000   0.500000   0.000000 )  

     reciprocal axes: (cart. coord. in units 2 pi/alat)
               b(1) = ( -1.000000 -1.000000  1.000000 )  
               b(2) = (  1.000000  1.000000  1.000000 )  
               b(3) = ( -1.000000  1.000000 -1.000000 )  


     PseudoPot. # 1 for Au read from file:
     /home/lorenzo/pseudos/Au/Au.pbesol-n-rrkjus_psl.1.0.0.UPF
     MD5 check sum: 09626e9411213730b9a56fcc59c03ca8
     Pseudo is Ultrasoft + core correction, Zval = 11.0
     Generated using "atomic" code by A. Dal Corso v.6.3
     Using radial grid of 1279 points,  6 beta functions with: 
                l(1) =   0
                l(2) =   0
                l(3) =   1
                l(4) =   1
                l(5) =   2
                l(6) =   2
     Q(r) pseudized with 0 coefficients 


     atomic species   valence    mass     pseudopotential
        Au            11.00   196.96600     Au( 1.00)

     48 Sym. Ops., with inversion, found



   Cartesian axes

     site n.     atom                  positions (alat units)
         1           Au  tau(   1) = (   0.0000000   0.0000000   0.0000000  )

     number of k points=    56  gaussian smearing, width (Ry)=  0.0100
                       cart. coord. in units 2pi/alat
        k(    1) = (   0.0000000   0.0000000   0.0000000), wk =   0.0015026
        k(    2) = (  -0.0909091   0.0909091  -0.0909091), wk =   0.0120210
        k(    3) = (  -0.1818182   0.1818182  -0.1818182), wk =   0.0120210
        k(    4) = (  -0.2727273   0.2727273  -0.2727273), wk =   0.0120210
        k(    5) = (  -0.3636364   0.3636364  -0.3636364), wk =   0.0120210
        k(    6) = (  -0.4545455   0.4545455  -0.4545455), wk =   0.0120210
        k(    7) = (   0.0000000   0.1818182   0.0000000), wk =   0.0090158
        k(    8) = (  -0.0909091   0.2727273  -0.0909091), wk =   0.0360631
        k(    9) = (  -0.1818182   0.3636364  -0.1818182), wk =   0.0360631
        k(   10) = (  -0.2727273   0.4545455  -0.2727273), wk =   0.0360631
        k(   11) = (  -0.3636364   0.5454545  -0.3636364), wk =   0.0360631
        k(   12) = (   0.5454545  -0.3636364   0.5454545), wk =   0.0360631
        k(   13) = (   0.4545455  -0.2727273   0.4545455), wk =   0.0360631
        k(   14) = (   0.3636364  -0.1818182   0.3636364), wk =   0.0360631
        k(   15) = (   0.2727273  -0.0909091   0.2727273), wk =   0.0360631
        k(   16) = (   0.1818182  -0.0000000   0.1818182), wk =   0.0180316
        k(   17) = (   0.0000000   0.3636364   0.0000000), wk =   0.0090158
        k(   18) = (  -0.0909091   0.4545455  -0.0909091), wk =   0.0360631
        k(   19) = (  -0.1818182   0.5454545  -0.1818182), wk =   0.0360631
        k(   20) = (  -0.2727273   0.6363636  -0.2727273), wk =   0.0360631
        k(   21) = (   0.6363636  -0.2727273   0.6363636), wk =   0.0360631
        k(   22) = (   0.5454545  -0.1818182   0.5454545), wk =   0.0360631
        k(   23) = (   0.4545455  -0.0909091   0.4545455), wk =   0.0360631
        k(   24) = (   0.3636364   0.0000000   0.3636364), wk =   0.0180316
        k(   25) = (   0.0000000   0.5454545   0.0000000), wk =   0.0090158
        k(   26) = (  -0.0909091   0.6363636  -0.0909091), wk =   0.0360631
        k(   27) = (  -0.1818182   0.7272727  -0.1818182), wk =   0.0360631
        k(   28) = (   0.7272727  -0.1818182   0.7272727), wk =   0.0360631
        k(   29) = (   0.6363636  -0.0909091   0.6363636), wk =   0.0360631
        k(   30) = (   0.5454545   0.0000000   0.5454545), wk =   0.0180316
        k(   31) = (   0.0000000   0.7272727   0.0000000), wk =   0.0090158
        k(   32) = (  -0.0909091   0.8181818  -0.0909091), wk =   0.0360631
        k(   33) = (   0.8181818  -0.0909091   0.8181818), wk =   0.0360631
        k(   34) = (   0.7272727   0.0000000   0.7272727), wk =   0.0180316
        k(   35) = (   0.0000000   0.9090909   0.0000000), wk =   0.0090158
        k(   36) = (   0.9090909  -0.0000000   0.9090909), wk =   0.0180316
        k(   37) = (  -0.1818182   0.3636364   0.0000000), wk =   0.0360631
        k(   38) = (  -0.2727273   0.4545455  -0.0909091), wk =   0.0721262
        k(   39) = (  -0.3636364   0.5454545  -0.1818182), wk =   0.0721262
        k(   40) = (   0.5454545  -0.3636364   0.7272727), wk =   0.0721262
        k(   41) = (  -0.1818182   0.5454545   0.0000000), wk =   0.0360631
        k(   42) = (  -0.2727273   0.6363636  -0.0909091), wk =   0.0721262
        k(   43) = (   0.6363636  -0.2727273   0.8181818), wk =   0.0721262
        k(   44) = (   0.5454545  -0.1818182   0.7272727), wk =   0.0721262
        k(   45) = (   0.4545455  -0.0909091   0.6363636), wk =   0.0721262
        k(   46) = (   0.3636364   0.0000000   0.5454545), wk =   0.0360631
        k(   47) = (  -0.1818182   0.7272727   0.0000000), wk =   0.0360631
        k(   48) = (   0.7272727  -0.1818182   0.9090909), wk =   0.0721262
        k(   49) = (   0.6363636  -0.0909091   0.8181818), wk =   0.0721262
        k(   50) = (   0.5454545   0.0000000   0.7272727), wk =   0.0360631
        k(   51) = (   0.8181818  -0.0909091   1.0000000), wk =   0.0360631
        k(   52) = (   0.7272727   0.0000000   0.9090909), wk =   0.0360631
        k(   53) = (   0.6363636  -0.2727273   1.0000000), wk =   0.0360631
        k(   54) = (   0.5454545  -0.1818182   0.9090909), wk =   0.0721262
        k(   55) = (   0.6363636  -0.0909091   1.0000000), wk =   0.0360631
        k(   56) = (   0.5454545   0.0000000   0.9090909), wk =   0.0360631

     Dense  grid:     5577 G-vectors     FFT dimensions: (  25,  25,  25)

     Estimated max dynamical RAM per process >       6.72 MB

     Estimated total dynamical RAM >      33.59 MB

     Initial potential from superposition of free atoms

     starting charge   10.99990, renormalised to   11.00000
     Starting wfcs are    9 randomized atomic wfcs +    1 random wfcs

     total cpu time spent up to now is        1.2 secs

     Self-consistent Calculation

     iteration #  1     ecut=    50.00 Ry     beta= 0.70
     Davidson diagonalization with overlap
     ethr =  1.00E-02,  avg # of iterations =  5.1

     Threshold (ethr) on eigenvalues was too large:
     Diagonalizing with lowered threshold

     Davidson diagonalization with overlap
     ethr =  5.66E-04,  avg # of iterations =  1.5

     total cpu time spent up to now is        2.3 secs

     total energy              =     -85.19534623 Ry
     Harris-Foulkes estimate   =     -85.22919881 Ry
     estimated scf accuracy    <       0.06346381 Ry

     iteration #  2     ecut=    50.00 Ry     beta= 0.70
     Davidson diagonalization with overlap
     ethr =  5.77E-04,  avg # of iterations =  4.4

     total cpu time spent up to now is        3.1 secs

     total energy              =     -36.73473813 Ry
     Harris-Foulkes estimate   =    -198.94372340 Ry
     estimated scf accuracy    <  179787.90362399 Ry

     iteration #  3     ecut=    50.00 Ry     beta= 0.70
     Davidson diagonalization with overlap
     ethr =  5.77E-04,  avg # of iterations =  7.7

     total cpu time spent up to now is        4.0 secs

     total energy              =     -85.20533589 Ry
     Harris-Foulkes estimate   =     -85.21579645 Ry
     estimated scf accuracy    <       0.02329740 Ry

     iteration #  4     ecut=    50.00 Ry     beta= 0.70
     Davidson diagonalization with overlap
     ethr =  2.12E-04,  avg # of iterations =  1.6

     total cpu time spent up to now is        4.4 secs

     total energy              =     -85.20858276 Ry
     Harris-Foulkes estimate   =     -85.20871999 Ry
     estimated scf accuracy    <       0.00582975 Ry

     iteration #  5     ecut=    50.00 Ry     beta= 0.70
     Davidson diagonalization with overlap
     ethr =  5.30E-05,  avg # of iterations =  1.9

     total cpu time spent up to now is        4.8 secs

     total energy              =     -85.20903011 Ry
     Harris-Foulkes estimate   =     -85.20905370 Ry
     estimated scf accuracy    <       0.00395820 Ry

     iteration #  6     ecut=    50.00 Ry     beta= 0.70
     Davidson diagonalization with overlap
     ethr =  3.60E-05,  avg # of iterations =  1.0

     total cpu time spent up to now is        5.2 secs

     total energy              =     -85.20910138 Ry
     Harris-Foulkes estimate   =     -85.20911206 Ry
     estimated scf accuracy    <       0.00387776 Ry

     iteration #  7     ecut=    50.00 Ry     beta= 0.70
     Davidson diagonalization with overlap
     ethr =  3.53E-05,  avg # of iterations =  1.0

     total cpu time spent up to now is        5.6 secs

     total energy              =     -85.20913184 Ry
     Harris-Foulkes estimate   =     -85.20913136 Ry
     estimated scf accuracy    <       0.00394463 Ry

     iteration #  8     ecut=    50.00 Ry     beta= 0.70
     Davidson diagonalization with overlap
     ethr =  3.53E-05,  avg # of iterations =  1.0

     total cpu time spent up to now is        6.0 secs

     total energy              =     -85.20913991 Ry
     Harris-Foulkes estimate   =     -85.20914366 Ry
     estimated scf accuracy    <       0.00396839 Ry

     iteration #  9     ecut=    50.00 Ry     beta= 0.70
     Davidson diagonalization with overlap
     ethr =  3.53E-05,  avg # of iterations =  1.0

     total cpu time spent up to now is        6.4 secs

     total energy              =     -85.20913701 Ry
     Harris-Foulkes estimate   =     -85.20914333 Ry
     estimated scf accuracy    <       0.00396468 Ry

     iteration # 10     ecut=    50.00 Ry     beta= 0.70
     Davidson diagonalization with overlap
     ethr =  3.53E-05,  avg # of iterations =  1.0

     total cpu time spent up to now is        6.8 secs

     total energy              =     -85.20913603 Ry
     Harris-Foulkes estimate   =     -85.20913923 Ry
     estimated scf accuracy    <       0.00392333 Ry

     iteration # 11     ecut=    50.00 Ry     beta= 0.70
     Davidson diagonalization with overlap
     ethr =  3.53E-05,  avg # of iterations =  1.0

     total cpu time spent up to now is        7.1 secs

     total energy              =     -85.20958950 Ry
     Harris-Foulkes estimate   =     -85.20913711 Ry
     estimated scf accuracy    <       0.00390153 Ry

     iteration # 12     ecut=    50.00 Ry     beta= 0.70
     Davidson diagonalization with overlap
     ethr =  3.53E-05,  avg # of iterations =  3.3

     total cpu time spent up to now is        7.8 secs

     total energy              =     -85.21073234 Ry
     Harris-Foulkes estimate   =     -85.21133797 Ry
     estimated scf accuracy    <       0.00756009 Ry

     iteration # 13     ecut=    50.00 Ry     beta= 0.70
     Davidson diagonalization with overlap
     ethr =  3.53E-05,  avg # of iterations =  1.0

     total cpu time spent up to now is        8.2 secs

     total energy              =     -85.20808390 Ry
     Harris-Foulkes estimate   =     -85.21075702 Ry
     estimated scf accuracy    <       0.00564325 Ry

     iteration # 14     ecut=    50.00 Ry     beta= 0.70
     Davidson diagonalization with overlap
     ethr =  3.53E-05,  avg # of iterations =  2.2

     total cpu time spent up to now is        8.6 secs

     total energy              =     -85.20886696 Ry
     Harris-Foulkes estimate   =     -85.20888211 Ry
     estimated scf accuracy    <       0.00019175 Ry

     iteration # 15     ecut=    50.00 Ry     beta= 0.70
     Davidson diagonalization with overlap
     ethr =  1.74E-06,  avg # of iterations =  2.9

     total cpu time spent up to now is        9.1 secs

     total energy              =     -85.20888523 Ry
     Harris-Foulkes estimate   =     -85.20890851 Ry
     estimated scf accuracy    <       0.00010908 Ry

     iteration # 16     ecut=    50.00 Ry     beta= 0.70
     Davidson diagonalization with overlap
     ethr =  9.92E-07,  avg # of iterations =  1.8

     total cpu time spent up to now is        9.5 secs

     total energy              =     -85.20888985 Ry
     Harris-Foulkes estimate   =     -85.20889211 Ry
     estimated scf accuracy    <       0.00001913 Ry

     iteration # 17     ecut=    50.00 Ry     beta= 0.70
     Davidson diagonalization with overlap
     ethr =  1.74E-07,  avg # of iterations =  2.2

     total cpu time spent up to now is        9.9 secs

     total energy              =     -85.20889157 Ry
     Harris-Foulkes estimate   =     -85.20889334 Ry
     estimated scf accuracy    <       0.00001633 Ry

     iteration # 18     ecut=    50.00 Ry     beta= 0.70
     Davidson diagonalization with overlap
     ethr =  1.48E-07,  avg # of iterations =  1.4

     total cpu time spent up to now is       10.3 secs

     total energy              =     -85.20889224 Ry
     Harris-Foulkes estimate   =     -85.20889234 Ry
     estimated scf accuracy    <       0.00000318 Ry

     iteration # 19     ecut=    50.00 Ry     beta= 0.70
     Davidson diagonalization with overlap
     ethr =  2.90E-08,  avg # of iterations =  1.4

     total cpu time spent up to now is       10.7 secs

     total energy              =     -85.20889167 Ry
     Harris-Foulkes estimate   =     -85.20889237 Ry
     estimated scf accuracy    <       0.00000206 Ry

     iteration # 20     ecut=    50.00 Ry     beta= 0.70
     Davidson diagonalization with overlap
     ethr =  1.87E-08,  avg # of iterations =  2.8

     total cpu time spent up to now is       11.3 secs

     total energy              =     -85.20889210 Ry
     Harris-Foulkes estimate   =     -85.20889229 Ry
     estimated scf accuracy    <       0.00000195 Ry

     iteration # 21     ecut=    50.00 Ry     beta= 0.70
     Davidson diagonalization with overlap
     ethr =  1.77E-08,  avg # of iterations =  1.2

     total cpu time spent up to now is       11.9 secs

     total energy              =     -85.20889208 Ry
     Harris-Foulkes estimate   =     -85.20889216 Ry
     estimated scf accuracy    <       0.00000040 Ry

     iteration # 22     ecut=    50.00 Ry     beta= 0.70
     Davidson diagonalization with overlap
     ethr =  3.63E-09,  avg # of iterations =  2.7

     total cpu time spent up to now is       12.4 secs

     total energy              =     -85.20889213 Ry
     Harris-Foulkes estimate   =     -85.20889217 Ry
     estimated scf accuracy    <       0.00000027 Ry

     iteration # 23     ecut=    50.00 Ry     beta= 0.70
     Davidson diagonalization with overlap
     ethr =  2.42E-09,  avg # of iterations =  1.6

     total cpu time spent up to now is       12.8 secs

     End of self-consistent calculation

          k = 0.0000 0.0000 0.0000 (   701 PWs)   bands (ev):

     5.8352  11.1275  11.1275  11.1275  12.6703  12.6703  31.1412  35.0009
    35.0009  35.0009

          k =-0.0909 0.0909-0.0909 (   685 PWs)   bands (ev):

     6.1217  11.0369  11.2244  11.2244  12.6303  12.6303  31.4249  33.1859
    35.2778  35.2778

          k =-0.1818 0.1818-0.1818 (   673 PWs)   bands (ev):

     6.9102  10.8859  11.3993  11.3993  12.6354  12.6354  29.7590  32.2293
    35.8837  35.8837

          k =-0.2727 0.2727-0.2727 (   682 PWs)   bands (ev):

     7.8700  11.1031  11.3868  11.3868  12.9495  12.9495  26.1862  31.9175
    35.7846  35.7846

          k =-0.3636 0.3636-0.3636 (   676 PWs)   bands (ev):

     8.3697  11.2268  11.2268  12.3529  13.4631  13.4631  22.5517  31.0458
    34.4783  34.4783

          k =-0.4545 0.4545-0.4545 (   682 PWs)   bands (ev):

     8.4457  11.1065  11.1065  13.8349  13.8349  14.2816  19.5245  30.4942
    33.4947  33.4947

          k = 0.0000 0.1818 0.0000 (   681 PWs)   bands (ev):

     6.2182  10.9307  11.3030  11.3030  12.4610  12.7564  31.5801  33.7732
    34.5576  34.5576

          k =-0.0909 0.2727-0.0909 (   683 PWs)   bands (ev):

     6.8481  10.7279  11.4934  11.5087  12.3175  12.8498  31.0274  32.2920
    34.1383  35.3823

          k =-0.1818 0.3636-0.1818 (   682 PWs)   bands (ev):

     7.8063  10.6765  11.4313  11.5895  12.6550  13.1211  27.5599  32.2639
    33.6340  35.8469

          k =-0.2727 0.4545-0.2727 (   685 PWs)   bands (ev):

     8.5002  11.1680  11.3117  11.4699  13.5335  13.5668  23.8538  31.4524
    32.9383  34.4526

          k =-0.3636 0.5455-0.3636 (   690 PWs)   bands (ev):

     8.6514  10.9926  11.3172  12.4290  13.8790  14.9342  20.4580  30.7416
    32.5433  32.9426

          k = 0.5455-0.3636 0.5455 (   687 PWs)   bands (ev):

     8.6603  10.9591  11.2518  12.9050  13.8167  15.9234  18.9843  30.4720
    32.0999  32.9813

          k = 0.4545-0.2727 0.4545 (   679 PWs)   bands (ev):

     8.6473  11.0710  11.3164  12.2445  13.3752  14.6401  21.5517  30.6615
    32.2240  34.4219

          k = 0.3636-0.1818 0.3636 (   676 PWs)   bands (ev):

     8.3539  11.0250  11.3507  11.4835  12.7658  13.7313  25.0928  31.1813
    33.2280  36.7129

          k = 0.2727-0.0909 0.2727 (   677 PWs)   bands (ev):

     7.4785  10.7143  11.4631  11.5743  12.3470  13.1000  28.7136  31.6804
    34.4278  36.3966

          k = 0.1818-0.0000 0.1818 (   680 PWs)   bands (ev):

     6.5817  10.8700  11.3670  11.3950  12.4249  12.7702  31.7028  31.7363
    34.3410  36.4693

          k = 0.0000 0.3636 0.0000 (   681 PWs)   bands (ev):

     7.2834  10.4350  11.8126  11.8126  11.9865  12.9926  32.5192  32.7063
    32.7609  32.7609

          k =-0.0909 0.4545-0.0909 (   681 PWs)   bands (ev):

     8.0919  10.1996  11.5445  12.0515  12.5383  13.2267  29.1987  31.6747
    32.5600  33.8010

          k =-0.1818 0.5455-0.1818 (   684 PWs)   bands (ev):

     8.8675  10.3058  11.1820  12.0157  13.6417  13.7113  25.3827  30.9157
    31.2325  33.2286

          k =-0.2727 0.6364-0.2727 (   680 PWs)   bands (ev):

     9.1105  10.6801  11.2804  11.8549  13.9324  15.4696  21.7709  29.7915
    30.7216  32.5671

          k = 0.6364-0.2727 0.6364 (   687 PWs)   bands (ev):

     9.1723  10.6423  11.7264  11.8407  13.8353  17.6088  18.9549  28.6429
    31.3712  32.1026

          k = 0.5455-0.1818 0.5455 (   688 PWs)   bands (ev):

     9.2499  10.7304  11.6835  11.7067  13.3489  16.2848  21.0007  28.0414
    32.1320  32.9217

          k = 0.4545-0.0909 0.4545 (   680 PWs)   bands (ev):

     9.1748  10.7368  11.1064  11.8201  12.6708  14.9009  24.2950  28.1687
    32.7670  35.1518

          k = 0.3636 0.0000 0.3636 (   676 PWs)   bands (ev):

     8.4229  10.5084  11.3266  12.0176  12.0588  13.8789  27.2875  29.2883
    34.0104  35.7740

          k = 0.0000 0.5455 0.0000 (   681 PWs)   bands (ev):

     8.5476   9.8451  11.9069  12.5914  12.5914  13.3141  30.0954  30.0954
    31.1529  32.3656

          k =-0.0909 0.6364-0.0909 (   684 PWs)   bands (ev):

     8.9907   9.6709  11.8933  12.7619  13.6536  13.6986  26.8610  29.0426
    29.2208  33.1660

          k =-0.1818 0.7273-0.1818 (   688 PWs)   bands (ev):

     9.2300   9.8635  11.7052  12.6232  13.9771  15.6828  23.2419  27.5341
    28.7403  33.3222

          k = 0.7273-0.1818 0.7273 (   694 PWs)   bands (ev):

     9.3939  10.2302  11.5534  12.4388  13.8953  18.2074  20.1841  26.0068
    29.3745  33.0696

          k = 0.6364-0.0909 0.6364 (   689 PWs)   bands (ev):

     9.6580  10.5131  11.2623  12.2888  13.4322  17.8418  21.1550  24.8634
    30.8876  32.8231

          k = 0.5455 0.0000 0.5455 (   684 PWs)   bands (ev):

     9.8252  10.6980  10.7991  12.1432  12.8833  16.2253  23.7070  25.0537
    32.7373  32.9692

          k = 0.0000 0.7273 0.0000 (   684 PWs)   bands (ev):

     8.8957   9.3504  13.4750  13.4750  13.4944  13.6230  26.3653  27.6564
    27.6564  32.4395

          k =-0.0909 0.8182-0.0909 (   685 PWs)   bands (ev):

     8.9386   9.2895  13.0829  13.4180  14.0064  15.6829  23.7734  26.1483
    27.0803  33.3143

          k = 0.8182-0.0909 0.8182 (   688 PWs)   bands (ev):

     9.1175   9.5686  12.5100  13.1962  14.0031  18.2688  21.3161  24.3774
    27.5392  33.7566

          k = 0.7273 0.0000 0.7273 (   694 PWs)   bands (ev):

     9.4092  10.0928  11.7741  12.8438  13.6838  19.3209  20.9666  23.0498
    28.9335  33.4427

          k = 0.0000 0.9091 0.0000 (   684 PWs)   bands (ev):

     8.7298   9.0743  13.8134  14.1230  14.1230  16.1012  22.3751  26.1702
    26.1702  32.7512

          k = 0.9091-0.0000 0.9091 (   694 PWs)   bands (ev):

     8.8197   9.1518  13.6198  13.6886  14.1566  17.5623  21.3461  25.1826
    26.3400  33.4694

          k =-0.1818 0.3636 0.0000 (   678 PWs)   bands (ev):

     7.5919  10.4907  11.5077  11.8190  12.2346  13.1507  29.7373  31.1395
    34.2528  34.6372

          k =-0.2727 0.4545-0.0909 (   684 PWs)   bands (ev):

     8.5393  10.4596  11.2236  11.9066  12.6440  13.8232  26.5317  30.1652
    32.8564  35.2773

          k =-0.3636 0.5455-0.1818 (   679 PWs)   bands (ev):

     9.0102  10.9157  11.1173  11.7600  13.3513  14.8757  22.9260  29.7238
    31.4498  34.3250

          k = 0.5455-0.3636 0.7273 (   687 PWs)   bands (ev):

     9.0468  10.7317  11.5877  11.9904  13.7550  16.5687  19.7331  29.7954
    30.4312  33.2753

          k =-0.1818 0.5455 0.0000 (   682 PWs)   bands (ev):

     8.8228   9.9774  11.3303  12.5855  12.7370  13.8030  27.6953  29.1227
    31.2692  35.0112

          k =-0.2727 0.6364-0.0909 (   680 PWs)   bands (ev):

     9.3689  10.1071  11.0584  12.5072  13.4317  15.0228  24.4282  28.1104
    29.6789  34.6701

          k = 0.6364-0.2727 0.8182 (   685 PWs)   bands (ev):

     9.4942  10.3992  11.1509  12.2920  13.8019  16.9674  21.1250  27.6739
    28.7242  34.1672

          k = 0.5455-0.1818 0.7273 (   689 PWs)   bands (ev):

     9.6210  10.3879  11.3778  12.1276  13.6926  18.3792  19.5468  26.7820
    29.2842  34.0884

          k = 0.4545-0.0909 0.6364 (   682 PWs)   bands (ev):

     9.7479  10.5285  10.8656  12.2222  13.2458  16.3663  22.5417  26.3358
    30.4548  34.7759

          k = 0.3636 0.0000 0.5455 (   680 PWs)   bands (ev):

     9.4566  10.3224  10.8668  12.3481  12.6238  14.9462  25.2753  27.1968
    31.6978  36.1912

          k =-0.1818 0.7273 0.0000 (   685 PWs)   bands (ev):

     9.1776   9.5351  12.0072  13.3997  13.4690  15.1006  25.1535  26.9450
    27.7745  34.3676

          k = 0.7273-0.1818 0.9091 (   682 PWs)   bands (ev):

     9.3526   9.7405  11.7764  13.0733  13.9142  17.1894  22.4809  25.5862
    27.0827  34.9119

          k = 0.6364-0.0909 0.8182 (   694 PWs)   bands (ev):

     9.5776  10.1436  11.4326  12.6958  13.8545  19.4161  20.4216  24.1361
    27.7658  34.8070

          k = 0.5455 0.0000 0.7273 (   685 PWs)   bands (ev):

     9.9184  10.4423  10.8927  12.4822  13.4928  17.9248  22.9368  23.0695
    29.1005  34.7883

          k = 0.8182-0.0909 1.0000 (   684 PWs)   bands (ev):

     8.9882   9.2857  12.9370  13.5715  14.1223  17.4055  22.0597  25.5529
    25.8444  34.4134

          k = 0.7273 0.0000 0.9091 (   692 PWs)   bands (ev):

     9.2393   9.6067  12.2817  13.1589  14.1162  19.4632  20.7027  23.9530
    26.3895  35.1505

          k = 0.6364-0.2727 1.0000 (   682 PWs)   bands (ev):

     9.8920  10.0728  10.7957  12.8557  13.4612  16.6145  23.6108  25.2149
    28.2444  36.6480

          k = 0.5455-0.1818 0.9091 (   688 PWs)   bands (ev):

    10.0006  10.2341  10.8372  12.5644  13.8271  18.5775  21.3368  24.7449
    27.1037  36.4044

          k = 0.6364-0.0909 1.0000 (   694 PWs)   bands (ev):

     9.6014   9.9138  11.4645  12.8700  14.1202  19.1364  21.8234  23.9276
    25.5946  37.6741

          k = 0.5455 0.0000 0.9091 (   692 PWs)   bands (ev):

     9.8185  10.3516  10.9361  12.5626  14.1167  20.0538  21.7549  22.7062
    25.8149  37.5513

     the Fermi energy is    15.8263 ev

!    total energy              =     -85.20889218 Ry
     Harris-Foulkes estimate   =     -85.20889215 Ry
     estimated scf accuracy    <          7.1E-09 Ry

     The total energy is the sum of the following terms:

     one-electron contribution =      11.01523908 Ry
     hartree contribution      =       7.53575047 Ry
     xc contribution           =     -31.80536773 Ry
     ewald contribution        =     -71.95438538 Ry
     smearing contrib. (-TS)   =      -0.00012861 Ry

     convergence has been achieved in  23 iterations

     Forces acting on atoms (cartesian axes, Ry/au):

     atom    1 type  1   force =     0.00000000    0.00000000    0.00000000

     Total force =     0.000000     Total SCF correction =     0.000000


     Computing stress (Cartesian axis) and pressure

          total   stress  (Ry/bohr**3)                   (kbar)     P=   12.61
   0.00008575   0.00000000  -0.00000000         12.61      0.00     -0.00
   0.00000000   0.00008575   0.00000000          0.00     12.61      0.00
  -0.00000000   0.00000000   0.00008575         -0.00      0.00     12.61


     Writing output data file Au.save/

     init_run     :      0.31s CPU      0.33s WALL (       1 calls)
     electrons    :     10.97s CPU     11.57s WALL (       1 calls)
     forces       :      0.04s CPU      0.04s WALL (       1 calls)
     stress       :      0.13s CPU      0.14s WALL (       1 calls)

     Called by init_run:
     wfcinit      :      0.15s CPU      0.16s WALL (       1 calls)
     potinit      :      0.01s CPU      0.01s WALL (       1 calls)
     hinit0       :      0.15s CPU      0.15s WALL (       1 calls)

     Called by electrons:
     c_bands      :      9.01s CPU      9.51s WALL (      24 calls)
     sum_band     :      1.72s CPU      1.80s WALL (      24 calls)
     v_of_rho     :      0.08s CPU      0.09s WALL (      24 calls)
     newd         :      0.14s CPU      0.14s WALL (      24 calls)
     mix_rho      :      0.02s CPU      0.02s WALL (      24 calls)

     Called by c_bands:
     init_us_2    :      0.25s CPU      0.26s WALL (    2856 calls)
     cegterg      :      8.59s CPU      9.08s WALL (    1344 calls)

     Called by sum_band:
     sum_band:bec :      0.01s CPU      0.01s WALL (    1344 calls)
     addusdens    :      0.13s CPU      0.13s WALL (      24 calls)

     Called by *egterg:
     h_psi        :      6.50s CPU      6.87s WALL (    4344 calls)
     s_psi        :      0.18s CPU      0.20s WALL (    4344 calls)
     g_psi        :      0.02s CPU      0.02s WALL (    2944 calls)
     cdiaghg      :      0.94s CPU      0.99s WALL (    4232 calls)

     Called by h_psi:
     h_psi:pot    :      6.46s CPU      6.84s WALL (    4344 calls)
     h_psi:calbec :      0.31s CPU      0.32s WALL (    4344 calls)
     vloc_psi     :      5.94s CPU      6.29s WALL (    4344 calls)
     add_vuspsi   :      0.19s CPU      0.20s WALL (    4344 calls)

     General routines
     calbec       :      0.43s CPU      0.45s WALL (    5968 calls)
     fft          :      0.06s CPU      0.06s WALL (     291 calls)
     ffts         :      0.00s CPU      0.00s WALL (      24 calls)
     fftw         :      6.79s CPU      7.18s WALL (   78632 calls)

     Parallel routines
     fft_scatt_xy :      0.52s CPU      0.55s WALL (   78947 calls)
     fft_scatt_yz :      2.11s CPU      2.21s WALL (   78947 calls)

     PWSCF        :    12.36s CPU        13.05s WALL


   This run was terminated on:  11:41:32  26Mar2024            

=------------------------------------------------------------------------------=
   JOB DONE.
=------------------------------------------------------------------------------=
