
     Program PWSCF v.6.3MaX starts on 26Mar2024 at 12:28:49 

     This program is part of the open-source Quantum ESPRESSO suite
     for quantum simulation of materials; please cite
         "P. Giannozzi et al., J. Phys.:Condens. Matter 21 395502 (2009);
         "P. Giannozzi et al., J. Phys.:Condens. Matter 29 465901 (2017);
          URL http://www.quantum-espresso.org", 
     in publications or presentations arising from this work. More details at
     http://www.quantum-espresso.org/quote

     Parallel version (MPI), running on     5 processors

     MPI processes distributed on     1 nodes
     R & G space division:  proc/nbgrp/npool/nimage =       5
     Waiting for input...
     Reading input from standard input

     Current dimensions of program PWSCF are:
     Max number of different atomic species (ntypx) = 10
     Max number of k-points (npk) =  40000
     Max angular momentum in pseudopotentials (lmaxx) =  3
               file Au.pbe-n-kjpaw_psl.1.0.0.UPF: wavefunction(s)  6S 5D renormalized

     Subspace diagonalization in iterative solution of the eigenvalue problem:
     a serial algorithm will be used


     Parallelization info
     --------------------
     sticks:   dense  smooth     PW     G-vecs:    dense   smooth      PW
     Min         137     137     42                 2407     2407     397
     Max         137     137     43                 2409     2409     398
     Sum         685     685    211                12039    12039    1989



     bravais-lattice index     =            2
     lattice parameter (alat)  =       7.7100  a.u.
     unit-cell volume          =     114.5785 (a.u.)^3
     number of atoms/cell      =            1
     number of atomic types    =            1
     number of electrons       =        11.00
     number of Kohn-Sham states=           10
     kinetic-energy cutoff     =      85.0000  Ry
     charge density cutoff     =     340.0000  Ry
     convergence threshold     =      1.0E-08
     mixing beta               =       0.7000
     number of iterations used =            8  plain     mixing
     Exchange-correlation      = SLA PW PBX PBC ( 1  4  3  4 0 0)

     celldm(1)=   7.710000  celldm(2)=   0.000000  celldm(3)=   0.000000
     celldm(4)=   0.000000  celldm(5)=   0.000000  celldm(6)=   0.000000

     crystal axes: (cart. coord. in units of alat)
               a(1) = (  -0.500000   0.000000   0.500000 )  
               a(2) = (   0.000000   0.500000   0.500000 )  
               a(3) = (  -0.500000   0.500000   0.000000 )  

     reciprocal axes: (cart. coord. in units 2 pi/alat)
               b(1) = ( -1.000000 -1.000000  1.000000 )  
               b(2) = (  1.000000  1.000000  1.000000 )  
               b(3) = ( -1.000000  1.000000 -1.000000 )  


     PseudoPot. # 1 for Au read from file:
     /home/lorenzo/pseudos/Au/Au.pbe-n-kjpaw_psl.1.0.0.UPF
     MD5 check sum: 4db85c736373c707a97ce4c36c2a9d23
     Pseudo is Projector augmented-wave + core cor, Zval = 11.0
     Generated using "atomic" code by A. Dal Corso v.6.3
     Shape of augmentation charge: PSQ
     Using radial grid of 1279 points,  6 beta functions with: 
                l(1) =   0
                l(2) =   0
                l(3) =   1
                l(4) =   1
                l(5) =   2
                l(6) =   2
     Q(r) pseudized with 0 coefficients 


     atomic species   valence    mass     pseudopotential
        Au            11.00   196.96600     Au( 1.00)

     48 Sym. Ops., with inversion, found



   Cartesian axes

     site n.     atom                  positions (alat units)
         1           Au  tau(   1) = (   0.0000000   0.0000000   0.0000000  )

     number of k points=     8  gaussian smearing, width (Ry)=  0.0100
                       cart. coord. in units 2pi/alat
        k(    1) = (   0.0000000   0.0000000   0.0000000), wk =   0.0312500
        k(    2) = (  -0.2500000   0.2500000  -0.2500000), wk =   0.2500000
        k(    3) = (   0.5000000  -0.5000000   0.5000000), wk =   0.1250000
        k(    4) = (   0.0000000   0.5000000   0.0000000), wk =   0.1875000
        k(    5) = (   0.7500000  -0.2500000   0.7500000), wk =   0.7500000
        k(    6) = (   0.5000000   0.0000000   0.5000000), wk =   0.3750000
        k(    7) = (   0.0000000  -1.0000000   0.0000000), wk =   0.0937500
        k(    8) = (  -0.5000000  -1.0000000   0.0000000), wk =   0.1875000

     Dense  grid:    12039 G-vectors     FFT dimensions: (  32,  32,  32)

     Estimated max dynamical RAM per process >      11.20 MB

     Estimated total dynamical RAM >      55.98 MB

     Initial potential from superposition of free atoms

     starting charge   10.99989, renormalised to   11.00000
     Starting wfcs are    9 randomized atomic wfcs +    1 random wfcs
     Checking if some PAW data can be deallocated... 

     total cpu time spent up to now is        2.0 secs

     Self-consistent Calculation

     iteration #  1     ecut=    85.00 Ry     beta= 0.70
     Davidson diagonalization with overlap
     ethr =  1.00E-02,  avg # of iterations =  6.4

     Threshold (ethr) on eigenvalues was too large:
     Diagonalizing with lowered threshold

     Davidson diagonalization with overlap
     ethr =  4.68E-04,  avg # of iterations =  2.6

     total cpu time spent up to now is        2.4 secs

     total energy              =    -775.10271669 Ry
     Harris-Foulkes estimate   =    -775.13794448 Ry
     estimated scf accuracy    <       0.05192771 Ry

     iteration #  2     ecut=    85.00 Ry     beta= 0.70
     Davidson diagonalization with overlap
     ethr =  4.72E-04,  avg # of iterations =  2.9

     total cpu time spent up to now is        2.7 secs

     total energy              =    -775.11835983 Ry
     Harris-Foulkes estimate   =    -775.12728468 Ry
     estimated scf accuracy    <       0.01451355 Ry

     iteration #  3     ecut=    85.00 Ry     beta= 0.70
     Davidson diagonalization with overlap
     ethr =  1.32E-04,  avg # of iterations =  2.0

     total cpu time spent up to now is        2.9 secs

     total energy              =    -775.12146898 Ry
     Harris-Foulkes estimate   =    -775.12149543 Ry
     estimated scf accuracy    <       0.00022831 Ry

     iteration #  4     ecut=    85.00 Ry     beta= 0.70
     Davidson diagonalization with overlap
     ethr =  2.08E-06,  avg # of iterations =  3.6

     total cpu time spent up to now is        3.2 secs

     total energy              =    -775.12172423 Ry
     Harris-Foulkes estimate   =    -775.12181912 Ry
     estimated scf accuracy    <       0.00020889 Ry

     iteration #  5     ecut=    85.00 Ry     beta= 0.70
     Davidson diagonalization with overlap
     ethr =  1.90E-06,  avg # of iterations =  1.0

     total cpu time spent up to now is        3.4 secs

     total energy              =    -775.12172977 Ry
     Harris-Foulkes estimate   =    -775.12174168 Ry
     estimated scf accuracy    <       0.00002683 Ry

     iteration #  6     ecut=    85.00 Ry     beta= 0.70
     Davidson diagonalization with overlap
     ethr =  2.44E-07,  avg # of iterations =  2.4

     total cpu time spent up to now is        3.6 secs

     total energy              =    -775.12173594 Ry
     Harris-Foulkes estimate   =    -775.12173687 Ry
     estimated scf accuracy    <       0.00000122 Ry

     iteration #  7     ecut=    85.00 Ry     beta= 0.70
     Davidson diagonalization with overlap
     ethr =  1.11E-08,  avg # of iterations =  3.4

     total cpu time spent up to now is        3.8 secs

     total energy              =    -775.12173661 Ry
     Harris-Foulkes estimate   =    -775.12173666 Ry
     estimated scf accuracy    <       0.00000013 Ry

     iteration #  8     ecut=    85.00 Ry     beta= 0.70
     Davidson diagonalization with overlap
     ethr =  1.20E-09,  avg # of iterations =  2.1

     total cpu time spent up to now is        4.0 secs

     total energy              =    -775.12173662 Ry
     Harris-Foulkes estimate   =    -775.12173663 Ry
     estimated scf accuracy    <       0.00000002 Ry

     iteration #  9     ecut=    85.00 Ry     beta= 0.70
     Davidson diagonalization with overlap
     ethr =  1.41E-10,  avg # of iterations =  2.2

     total cpu time spent up to now is        4.3 secs

     End of self-consistent calculation

          k = 0.0000 0.0000 0.0000 (  1459 PWs)   bands (ev):

     6.0713  11.2636  11.2636  11.2636  12.7926  12.7926  31.3849  35.2446
    35.2446  35.2446

          k =-0.2500 0.2500-0.2500 (  1507 PWs)   bands (ev):

     7.8749  11.1311  11.5468  11.5468  12.9615  12.9615  27.2736  32.3097
    36.1410  36.1410

          k = 0.5000-0.5000 0.5000 (  1502 PWs)   bands (ev):

     8.6240  11.2275  11.2275  13.9991  13.9991  14.9988  19.0617  30.6703
    33.5935  33.5935

          k = 0.0000 0.5000 0.0000 (  1491 PWs)   bands (ev):

     8.5023  10.1360  11.9656  12.5061  12.5061  13.3501  30.9527  30.9527
    32.3144  33.1188

          k = 0.7500-0.2500 0.7500 (  1515 PWs)   bands (ev):

     9.4901  10.4047  11.6147  12.4568  14.0887  17.0104  21.4541  27.5932
    29.6781  33.1675

          k = 0.5000 0.0000 0.5000 (  1522 PWs)   bands (ev):

     9.8523  10.7248  11.0694  12.1920  12.7842  15.6925  24.6127  26.2577
    33.0598  34.4404

          k = 0.0000-1.0000 0.0000 (  1524 PWs)   bands (ev):

     8.8756   9.1899  13.9562  14.3220  14.3220  17.0052  21.7728  26.2056
    26.2056  33.2023

          k =-0.5000-1.0000 0.0000 (  1540 PWs)   bands (ev):

     9.9838  10.7931  10.7931  12.6482  14.3240  20.7758  22.3220  22.3220
    25.4343  39.4426

     the Fermi energy is    16.8379 ev

!    total energy              =    -775.12173663 Ry
     Harris-Foulkes estimate   =    -775.12173663 Ry
     estimated scf accuracy    <          9.5E-10 Ry

     total all-electron energy =    -38023.967828 Ry

     The total energy is the sum of the following terms:

     one-electron contribution =      13.84985036 Ry
     hartree contribution      =       7.62932523 Ry
     xc contribution           =     -32.12110544 Ry
     ewald contribution        =     -71.95438534 Ry
     one-center paw contrib.   =    -692.52493864 Ry
     smearing contrib. (-TS)   =      -0.00048280 Ry

     convergence has been achieved in   9 iterations

     Forces acting on atoms (cartesian axes, Ry/au):

     atom    1 type  1   force =     0.00000000    0.00000000    0.00000000

     Total force =     0.000000     Total SCF correction =     0.000000


     Computing stress (Cartesian axis) and pressure

          total   stress  (Ry/bohr**3)                   (kbar)     P=  127.93
   0.00086966   0.00000000   0.00000000        127.93      0.00      0.00
   0.00000000   0.00086966  -0.00000000          0.00    127.93     -0.00
   0.00000000  -0.00000000   0.00086966          0.00     -0.00    127.93


     Writing output data file Au.save/

     init_run     :      0.37s CPU      0.39s WALL (       1 calls)
     electrons    :      2.16s CPU      2.27s WALL (       1 calls)
     forces       :      0.04s CPU      0.04s WALL (       1 calls)
     stress       :      0.13s CPU      0.13s WALL (       1 calls)

     Called by init_run:
     wfcinit      :      0.03s CPU      0.03s WALL (       1 calls)
     potinit      :      0.12s CPU      0.13s WALL (       1 calls)
     hinit0       :      0.19s CPU      0.19s WALL (       1 calls)

     Called by electrons:
     c_bands      :      0.84s CPU      0.91s WALL (      10 calls)
     sum_band     :      0.27s CPU      0.28s WALL (      10 calls)
     v_of_rho     :      0.06s CPU      0.06s WALL (      10 calls)
     newd         :      0.11s CPU      0.12s WALL (      10 calls)
     PAW_pot      :      0.99s CPU      1.02s WALL (      10 calls)
     mix_rho      :      0.01s CPU      0.01s WALL (      10 calls)

     Called by c_bands:
     init_us_2    :      0.03s CPU      0.03s WALL (     184 calls)
     cegterg      :      0.79s CPU      0.86s WALL (      80 calls)

     Called by sum_band:
     sum_band:bec :      0.00s CPU      0.00s WALL (      80 calls)
     addusdens    :      0.11s CPU      0.12s WALL (      10 calls)

     Called by *egterg:
     h_psi        :      0.60s CPU      0.66s WALL (     317 calls)
     s_psi        :      0.02s CPU      0.03s WALL (     317 calls)
     g_psi        :      0.00s CPU      0.00s WALL (     229 calls)
     cdiaghg      :      0.07s CPU      0.07s WALL (     301 calls)

     Called by h_psi:
     h_psi:pot    :      0.60s CPU      0.66s WALL (     317 calls)
     h_psi:calbec :      0.03s CPU      0.04s WALL (     317 calls)
     vloc_psi     :      0.54s CPU      0.59s WALL (     317 calls)
     add_vuspsi   :      0.02s CPU      0.03s WALL (     317 calls)

     General routines
     calbec       :      0.05s CPU      0.05s WALL (     437 calls)
     fft          :      0.03s CPU      0.03s WALL (     137 calls)
     ffts         :      0.00s CPU      0.00s WALL (      10 calls)
     fftw         :      0.59s CPU      0.65s WALL (    5172 calls)

     Parallel routines
     fft_scatt_xy :      0.06s CPU      0.07s WALL (    5319 calls)
     fft_scatt_yz :      0.19s CPU      0.21s WALL (    5319 calls)

     PWSCF        :     4.30s CPU         4.48s WALL


   This run was terminated on:  12:28:53  26Mar2024            

=------------------------------------------------------------------------------=
   JOB DONE.
=------------------------------------------------------------------------------=
