
     Program PWSCF v.6.3MaX starts on 26Mar2024 at 11:53:21 

     This program is part of the open-source Quantum ESPRESSO suite
     for quantum simulation of materials; please cite
         "P. Giannozzi et al., J. Phys.:Condens. Matter 21 395502 (2009);
         "P. Giannozzi et al., J. Phys.:Condens. Matter 29 465901 (2017);
          URL http://www.quantum-espresso.org", 
     in publications or presentations arising from this work. More details at
     http://www.quantum-espresso.org/quote

     Parallel version (MPI), running on     5 processors

     MPI processes distributed on     1 nodes
     R & G space division:  proc/nbgrp/npool/nimage =       5
     Waiting for input...
     Reading input from standard input

     Current dimensions of program PWSCF are:
     Max number of different atomic species (ntypx) = 10
     Max number of k-points (npk) =  40000
     Max angular momentum in pseudopotentials (lmaxx) =  3

     Subspace diagonalization in iterative solution of the eigenvalue problem:
     a serial algorithm will be used


     Parallelization info
     --------------------
     sticks:   dense  smooth     PW     G-vecs:    dense   smooth      PW
     Min          99      99     24                 1446     1446     178
     Max         100     100     25                 1449     1449     181
     Sum         499     499    121                 7239     7239     893



     bravais-lattice index     =            2
     lattice parameter (alat)  =       7.7100  a.u.
     unit-cell volume          =     114.5785 (a.u.)^3
     number of atoms/cell      =            1
     number of atomic types    =            1
     number of electrons       =        11.00
     number of Kohn-Sham states=           10
     kinetic-energy cutoff     =      60.0000  Ry
     charge density cutoff     =     240.0000  Ry
     convergence threshold     =      1.0E-08
     mixing beta               =       0.7000
     number of iterations used =            8  plain     mixing
     Exchange-correlation      = PBESOL ( 1  4 10  8 0 0)

     celldm(1)=   7.710000  celldm(2)=   0.000000  celldm(3)=   0.000000
     celldm(4)=   0.000000  celldm(5)=   0.000000  celldm(6)=   0.000000

     crystal axes: (cart. coord. in units of alat)
               a(1) = (  -0.500000   0.000000   0.500000 )  
               a(2) = (   0.000000   0.500000   0.500000 )  
               a(3) = (  -0.500000   0.500000   0.000000 )  

     reciprocal axes: (cart. coord. in units 2 pi/alat)
               b(1) = ( -1.000000 -1.000000  1.000000 )  
               b(2) = (  1.000000  1.000000  1.000000 )  
               b(3) = ( -1.000000  1.000000 -1.000000 )  


     PseudoPot. # 1 for Au read from file:
     /home/lorenzo/pseudos/Au/Au.pbesol-n-rrkjus_psl.1.0.0.UPF
     MD5 check sum: 09626e9411213730b9a56fcc59c03ca8
     Pseudo is Ultrasoft + core correction, Zval = 11.0
     Generated using "atomic" code by A. Dal Corso v.6.3
     Using radial grid of 1279 points,  6 beta functions with: 
                l(1) =   0
                l(2) =   0
                l(3) =   1
                l(4) =   1
                l(5) =   2
                l(6) =   2
     Q(r) pseudized with 0 coefficients 


     atomic species   valence    mass     pseudopotential
        Au            11.00   196.96600     Au( 1.00)

     48 Sym. Ops., with inversion, found



   Cartesian axes

     site n.     atom                  positions (alat units)
         1           Au  tau(   1) = (   0.0000000   0.0000000   0.0000000  )

     number of k points=     1  gaussian smearing, width (Ry)=  0.0100
                       cart. coord. in units 2pi/alat
        k(    1) = (   0.0000000   0.0000000   0.0000000), wk =   2.0000000

     Dense  grid:     7239 G-vectors     FFT dimensions: (  27,  27,  27)

     Estimated max dynamical RAM per process >       6.95 MB

     Estimated total dynamical RAM >      34.74 MB

     Initial potential from superposition of free atoms

     starting charge   10.99990, renormalised to   11.00000
     Starting wfcs are    9 randomized atomic wfcs +    1 random wfcs

     total cpu time spent up to now is        1.0 secs

     Self-consistent Calculation

     iteration #  1     ecut=    60.00 Ry     beta= 0.70
     Davidson diagonalization with overlap
     ethr =  1.00E-02,  avg # of iterations =  9.0

     Threshold (ethr) on eigenvalues was too large:
     Diagonalizing with lowered threshold

     Davidson diagonalization with overlap
     ethr =  9.78E-04,  avg # of iterations =  6.0

     negative rho (up, down):  7.921E-03 0.000E+00

     total cpu time spent up to now is        1.1 secs

     total energy              =     -86.03114224 Ry
     Harris-Foulkes estimate   =     -86.04489676 Ry
     estimated scf accuracy    <       0.10763138 Ry

     iteration #  2     ecut=    60.00 Ry     beta= 0.70
     Davidson diagonalization with overlap
     ethr =  9.78E-04,  avg # of iterations =  5.0

     total cpu time spent up to now is        1.1 secs

     total energy              =     -33.98336122 Ry
     Harris-Foulkes estimate   =    -369.70867444 Ry
     estimated scf accuracy    <  208219.75281970 Ry

     iteration #  3     ecut=    60.00 Ry     beta= 0.70
     Davidson diagonalization with overlap
     ethr =  9.78E-04,  avg # of iterations =  4.0

     total cpu time spent up to now is        1.2 secs

     total energy              =     -86.00557674 Ry
     Harris-Foulkes estimate   =     -86.00934143 Ry
     estimated scf accuracy    <       0.01626416 Ry

     iteration #  4     ecut=    60.00 Ry     beta= 0.70
     Davidson diagonalization with overlap
     ethr =  1.48E-04,  avg # of iterations =  1.0

     total cpu time spent up to now is        1.2 secs

     total energy              =     -86.00666794 Ry
     Harris-Foulkes estimate   =     -86.00671426 Ry
     estimated scf accuracy    <       0.00762961 Ry

     iteration #  5     ecut=    60.00 Ry     beta= 0.70
     Davidson diagonalization with overlap
     ethr =  6.94E-05,  avg # of iterations =  1.0

     total cpu time spent up to now is        1.2 secs

     total energy              =     -86.00673067 Ry
     Harris-Foulkes estimate   =     -86.00673843 Ry
     estimated scf accuracy    <       0.00611160 Ry

     iteration #  6     ecut=    60.00 Ry     beta= 0.70
     Davidson diagonalization with overlap
     ethr =  5.56E-05,  avg # of iterations =  1.0

     total cpu time spent up to now is        1.2 secs

     total energy              =     -86.00673482 Ry
     Harris-Foulkes estimate   =     -86.00675062 Ry
     estimated scf accuracy    <       0.00555505 Ry

     iteration #  7     ecut=    60.00 Ry     beta= 0.70
     Davidson diagonalization with overlap
     ethr =  5.05E-05,  avg # of iterations = 14.0

     total cpu time spent up to now is        1.3 secs

     total energy              =     -86.00671895 Ry
     Harris-Foulkes estimate   =     -86.00674819 Ry
     estimated scf accuracy    <       0.00481704 Ry

     iteration #  8     ecut=    60.00 Ry     beta= 0.70
     Davidson diagonalization with overlap
     ethr =  4.38E-05,  avg # of iterations =  1.0

     total cpu time spent up to now is        1.3 secs

     total energy              =     -86.00671999 Ry
     Harris-Foulkes estimate   =     -86.00672144 Ry
     estimated scf accuracy    <       0.00476761 Ry

     iteration #  9     ecut=    60.00 Ry     beta= 0.70
     Davidson diagonalization with overlap
     ethr =  4.33E-05,  avg # of iterations =  1.0

     total cpu time spent up to now is        1.3 secs

     total energy              =     -86.00672087 Ry
     Harris-Foulkes estimate   =     -86.00672041 Ry
     estimated scf accuracy    <       0.00472823 Ry

     iteration # 10     ecut=    60.00 Ry     beta= 0.70
     Davidson diagonalization with overlap
     ethr =  4.30E-05,  avg # of iterations =  1.0

     total cpu time spent up to now is        1.4 secs

     total energy              =     -86.00671941 Ry
     Harris-Foulkes estimate   =     -86.00672108 Ry
     estimated scf accuracy    <       0.00468531 Ry

     iteration # 11     ecut=    60.00 Ry     beta= 0.70
     Davidson diagonalization with overlap
     ethr =  4.26E-05,  avg # of iterations =  1.0

     total cpu time spent up to now is        1.4 secs

     total energy              =     -86.00617934 Ry
     Harris-Foulkes estimate   =     -86.00671951 Ry
     estimated scf accuracy    <       0.00466348 Ry

     iteration # 12     ecut=    60.00 Ry     beta= 0.70
     Davidson diagonalization with overlap
     ethr =  4.24E-05,  avg # of iterations =  1.0

     total cpu time spent up to now is        1.4 secs

     total energy              =     -86.00608093 Ry
     Harris-Foulkes estimate   =     -86.00621974 Ry
     estimated scf accuracy    <       0.00356599 Ry

     iteration # 13     ecut=    60.00 Ry     beta= 0.70
     Davidson diagonalization with overlap
     ethr =  3.24E-05,  avg # of iterations =  1.0

     total cpu time spent up to now is        1.5 secs

     total energy              =     -86.00611148 Ry
     Harris-Foulkes estimate   =     -86.00609563 Ry
     estimated scf accuracy    <       0.00327337 Ry

     iteration # 14     ecut=    60.00 Ry     beta= 0.70
     Davidson diagonalization with overlap
     ethr =  2.98E-05,  avg # of iterations =  1.0

     total cpu time spent up to now is        1.5 secs

     total energy              =     -86.00669956 Ry
     Harris-Foulkes estimate   =     -86.00611634 Ry
     estimated scf accuracy    <       0.00316940 Ry

     iteration # 15     ecut=    60.00 Ry     beta= 0.70
     Davidson diagonalization with overlap
     ethr =  2.88E-05,  avg # of iterations =  1.0

     total cpu time spent up to now is        1.5 secs

     total energy              =     -86.00605369 Ry
     Harris-Foulkes estimate   =     -86.00676511 Ry
     estimated scf accuracy    <       0.00481985 Ry

     iteration # 16     ecut=    60.00 Ry     beta= 0.70
     Davidson diagonalization with overlap
     ethr =  2.88E-05,  avg # of iterations =  1.0

     total cpu time spent up to now is        1.6 secs

     total energy              =     -86.00391251 Ry
     Harris-Foulkes estimate   =     -86.00612865 Ry
     estimated scf accuracy    <       0.00361213 Ry

     iteration # 17     ecut=    60.00 Ry     beta= 0.70
     Davidson diagonalization with overlap
     ethr =  2.88E-05,  avg # of iterations =  3.0

     total cpu time spent up to now is        1.6 secs

     total energy              =     -86.00507951 Ry
     Harris-Foulkes estimate   =     -86.00485116 Ry
     estimated scf accuracy    <       0.00068370 Ry

     iteration # 18     ecut=    60.00 Ry     beta= 0.70
     Davidson diagonalization with overlap
     ethr =  6.22E-06,  avg # of iterations =  2.0

     total cpu time spent up to now is        1.6 secs

     total energy              =     -86.00443078 Ry
     Harris-Foulkes estimate   =     -86.00513771 Ry
     estimated scf accuracy    <       0.00092533 Ry

     iteration # 19     ecut=    60.00 Ry     beta= 0.70
     Davidson diagonalization with overlap
     ethr =  6.22E-06,  avg # of iterations =  6.0

     total cpu time spent up to now is        1.6 secs

     total energy              =     -86.00491925 Ry
     Harris-Foulkes estimate   =     -86.00489665 Ry
     estimated scf accuracy    <       0.00130171 Ry

     iteration # 20     ecut=    60.00 Ry     beta= 0.70
     Davidson diagonalization with overlap
     ethr =  6.22E-06,  avg # of iterations =  3.0

     total cpu time spent up to now is        1.7 secs

     total energy              =     -86.00519261 Ry
     Harris-Foulkes estimate   =     -86.00501053 Ry
     estimated scf accuracy    <       0.00395128 Ry

     iteration # 21     ecut=    60.00 Ry     beta= 0.70
     Davidson diagonalization with overlap
     ethr =  6.22E-06,  avg # of iterations =  2.0

     total cpu time spent up to now is        1.7 secs

     total energy              =     -86.00566198 Ry
     Harris-Foulkes estimate   =     -86.00527510 Ry
     estimated scf accuracy    <       0.01087156 Ry

     iteration # 22     ecut=    60.00 Ry     beta= 0.70
     Davidson diagonalization with overlap
     ethr =  6.22E-06,  avg # of iterations =  3.0

     total cpu time spent up to now is        1.7 secs

     total energy              =     -86.00553566 Ry
     Harris-Foulkes estimate   =     -86.00615027 Ry
     estimated scf accuracy    <       0.09629471 Ry

     iteration # 23     ecut=    60.00 Ry     beta= 0.70
     Davidson diagonalization with overlap
     ethr =  6.22E-06,  avg # of iterations =  2.0

     total cpu time spent up to now is        1.8 secs

     total energy              =     -86.00211350 Ry
     Harris-Foulkes estimate   =     -86.00572535 Ry
     estimated scf accuracy    <       0.03511151 Ry

     iteration # 24     ecut=    60.00 Ry     beta= 0.70
     Davidson diagonalization with overlap
     ethr =  6.22E-06,  avg # of iterations =  3.0

     total cpu time spent up to now is        1.8 secs

     total energy              =     -86.00477358 Ry
     Harris-Foulkes estimate   =     -86.00478774 Ry
     estimated scf accuracy    <       0.00045883 Ry

     iteration # 25     ecut=    60.00 Ry     beta= 0.70
     Davidson diagonalization with overlap
     ethr =  4.17E-06,  avg # of iterations =  3.0

     total cpu time spent up to now is        1.8 secs

     total energy              =     -86.00491644 Ry
     Harris-Foulkes estimate   =     -86.00479049 Ry
     estimated scf accuracy    <       0.00036129 Ry

     iteration # 26     ecut=    60.00 Ry     beta= 0.70
     Davidson diagonalization with overlap
     ethr =  3.28E-06,  avg # of iterations =  3.0

     total cpu time spent up to now is        1.9 secs

     total energy              =     -86.00545152 Ry
     Harris-Foulkes estimate   =     -86.00499757 Ry
     estimated scf accuracy    <       0.00062802 Ry

     iteration # 27     ecut=    60.00 Ry     beta= 0.70
     Davidson diagonalization with overlap
     ethr =  3.28E-06,  avg # of iterations =  4.0

     total cpu time spent up to now is        1.9 secs

     total energy              =     -86.00646859 Ry
     Harris-Foulkes estimate   =     -86.00563079 Ry
     estimated scf accuracy    <       0.00173687 Ry

     iteration # 28     ecut=    60.00 Ry     beta= 0.70
     Davidson diagonalization with overlap
     ethr =  3.28E-06,  avg # of iterations =  3.0

     total cpu time spent up to now is        1.9 secs

     total energy              =     -86.00299610 Ry
     Harris-Foulkes estimate   =     -86.00670880 Ry
     estimated scf accuracy    <       0.00465871 Ry

     iteration # 29     ecut=    60.00 Ry     beta= 0.70
     Davidson diagonalization with overlap
     ethr =  3.28E-06,  avg # of iterations =  4.0

     total cpu time spent up to now is        2.0 secs

     total energy              =     -86.00331676 Ry
     Harris-Foulkes estimate   =     -86.00474576 Ry
     estimated scf accuracy    <       0.00033753 Ry

     iteration # 30     ecut=    60.00 Ry     beta= 0.70
     Davidson diagonalization with overlap
     ethr =  3.07E-06,  avg # of iterations =  4.0

     total cpu time spent up to now is        2.0 secs

     total energy              =     -41.85282789 Ry
     Harris-Foulkes estimate   =    -115.38614715 Ry
     estimated scf accuracy    <  168139.58822102 Ry

     iteration # 31     ecut=    60.00 Ry     beta= 0.70
     Davidson diagonalization with overlap
     ethr =  3.07E-06,  avg # of iterations = 16.0

     total cpu time spent up to now is        2.1 secs

     total energy              =     -85.97646128 Ry
     Harris-Foulkes estimate   =     -86.00779563 Ry
     estimated scf accuracy    <       0.00990562 Ry

     iteration # 32     ecut=    60.00 Ry     beta= 0.70
     Davidson diagonalization with overlap
     ethr =  3.07E-06,  avg # of iterations =  6.0

     total cpu time spent up to now is        2.1 secs

     total energy              =      92.00332770 Ry
     Harris-Foulkes estimate   =    -162.65429408 Ry
     estimated scf accuracy    <  193186.96205743 Ry

     iteration # 33     ecut=    60.00 Ry     beta= 0.70
     Davidson diagonalization with overlap
     ethr =  3.07E-06,  avg # of iterations =  6.0

     negative rho (up, down):  2.814E-01 0.000E+00

     total cpu time spent up to now is        2.1 secs

     total energy              =    1113.16991121 Ry
     Harris-Foulkes estimate   =    -183.06478975 Ry
     estimated scf accuracy    <  202906.96363600 Ry

     iteration # 34     ecut=    60.00 Ry     beta= 0.70
     Davidson diagonalization with overlap
     ethr =  3.07E-06,  avg # of iterations =  5.0

     negative rho (up, down):  2.020E-01 0.000E+00

     total cpu time spent up to now is        2.2 secs

     total energy              =    1010.94437864 Ry
     Harris-Foulkes estimate   =   -1213.44293651 Ry
     estimated scf accuracy    <  211380.56051135 Ry

     iteration # 35     ecut=    60.00 Ry     beta= 0.70
     Davidson diagonalization with overlap
     ethr =  3.07E-06,  avg # of iterations =  7.0

     total cpu time spent up to now is        2.2 secs

     total energy              =      25.75624242 Ry
     Harris-Foulkes estimate   =   -1081.68173698 Ry
     estimated scf accuracy    <  211664.54835041 Ry

     iteration # 36     ecut=    60.00 Ry     beta= 0.70
     Davidson diagonalization with overlap
     ethr =  3.07E-06,  avg # of iterations =  7.0

     total cpu time spent up to now is        2.3 secs

     total energy              =     -58.94222993 Ry
     Harris-Foulkes estimate   =    -106.98632275 Ry
     estimated scf accuracy    <  157002.69381979 Ry

     iteration # 37     ecut=    60.00 Ry     beta= 0.70
     Davidson diagonalization with overlap
     ethr =  3.07E-06,  avg # of iterations =  4.0

     total cpu time spent up to now is        2.3 secs

     total energy              =     -86.00654604 Ry
     Harris-Foulkes estimate   =     -86.00551263 Ry
     estimated scf accuracy    <       0.00131776 Ry

     iteration # 38     ecut=    60.00 Ry     beta= 0.70
     Davidson diagonalization with overlap
     ethr =  3.07E-06,  avg # of iterations =  3.0

     total cpu time spent up to now is        2.3 secs

     total energy              =     -86.00717434 Ry
     Harris-Foulkes estimate   =     -86.00706388 Ry
     estimated scf accuracy    <       0.00582292 Ry

     iteration # 39     ecut=    60.00 Ry     beta= 0.70
     Davidson diagonalization with overlap
     ethr =  3.07E-06,  avg # of iterations =  2.0

     total cpu time spent up to now is        2.4 secs

     total energy              =     -86.00705070 Ry
     Harris-Foulkes estimate   =     -86.00717630 Ry
     estimated scf accuracy    <       0.00619969 Ry

     iteration # 40     ecut=    60.00 Ry     beta= 0.70
     Davidson diagonalization with overlap
     ethr =  3.07E-06,  avg # of iterations = 15.0

     total cpu time spent up to now is        2.4 secs

     total energy              =     -86.00718773 Ry
     Harris-Foulkes estimate   =     -86.00705238 Ry
     estimated scf accuracy    <       0.00590462 Ry

     iteration # 41     ecut=    60.00 Ry     beta= 0.70
     Davidson diagonalization with overlap
     ethr =  3.07E-06,  avg # of iterations =  1.0

     total cpu time spent up to now is        2.4 secs

     total energy              =     -86.00731397 Ry
     Harris-Foulkes estimate   =     -86.00718974 Ry
     estimated scf accuracy    <       0.00620352 Ry

     iteration # 42     ecut=    60.00 Ry     beta= 0.70
     Davidson diagonalization with overlap
     ethr =  3.07E-06,  avg # of iterations =  1.0

     total cpu time spent up to now is        2.5 secs

     total energy              =     -86.00727991 Ry
     Harris-Foulkes estimate   =     -86.00731836 Ry
     estimated scf accuracy    <       0.00678034 Ry

     iteration # 43     ecut=    60.00 Ry     beta= 0.70
     Davidson diagonalization with overlap
     ethr =  3.07E-06,  avg # of iterations =  1.0

     total cpu time spent up to now is        2.5 secs

     total energy              =     -86.00726045 Ry
     Harris-Foulkes estimate   =     -86.00728049 Ry
     estimated scf accuracy    <       0.00679389 Ry

     iteration # 44     ecut=    60.00 Ry     beta= 0.70
     Davidson diagonalization with overlap
     ethr =  3.07E-06,  avg # of iterations =  1.0

     total cpu time spent up to now is        2.5 secs

     total energy              =     -86.00729514 Ry
     Harris-Foulkes estimate   =     -86.00726065 Ry
     estimated scf accuracy    <       0.00672643 Ry

     iteration # 45     ecut=    60.00 Ry     beta= 0.70
     Davidson diagonalization with overlap
     ethr =  3.07E-06,  avg # of iterations =  1.0

     total cpu time spent up to now is        2.6 secs

     total energy              =     -86.00021254 Ry
     Harris-Foulkes estimate   =     -86.00729530 Ry
     estimated scf accuracy    <       0.00677073 Ry

     iteration # 46     ecut=    60.00 Ry     beta= 0.70
     Davidson diagonalization with overlap
     ethr =  3.07E-06,  avg # of iterations =  7.0

     total cpu time spent up to now is        2.6 secs

     total energy              =     -86.00644810 Ry
     Harris-Foulkes estimate   =     -86.00507837 Ry
     estimated scf accuracy    <       0.01909885 Ry

     iteration # 47     ecut=    60.00 Ry     beta= 0.70
     Davidson diagonalization with overlap
     ethr =  3.07E-06,  avg # of iterations =  3.0

     total cpu time spent up to now is        2.6 secs

     total energy              =     -85.67328574 Ry
     Harris-Foulkes estimate   =     -86.01188992 Ry
     estimated scf accuracy    <      11.26574865 Ry

     iteration # 48     ecut=    60.00 Ry     beta= 0.70
     Davidson diagonalization with overlap
     ethr =  3.07E-06,  avg # of iterations =  4.0

     total cpu time spent up to now is        2.7 secs

     total energy              =     -86.00773779 Ry
     Harris-Foulkes estimate   =     -86.00839382 Ry
     estimated scf accuracy    <       0.01407616 Ry

     iteration # 49     ecut=    60.00 Ry     beta= 0.70
     Davidson diagonalization with overlap
     ethr =  3.07E-06,  avg # of iterations =  3.0

     total cpu time spent up to now is        2.7 secs

     total energy              =     -86.00776316 Ry
     Harris-Foulkes estimate   =     -86.00779065 Ry
     estimated scf accuracy    <       0.00998814 Ry

     iteration # 50     ecut=    60.00 Ry     beta= 0.70
     Davidson diagonalization with overlap
     ethr =  3.07E-06,  avg # of iterations =  1.0

     total cpu time spent up to now is        2.8 secs

     total energy              =     -86.00680788 Ry
     Harris-Foulkes estimate   =     -86.00776367 Ry
     estimated scf accuracy    <       0.00995736 Ry

     iteration # 51     ecut=    60.00 Ry     beta= 0.70
     Davidson diagonalization with overlap
     ethr =  3.07E-06,  avg # of iterations = 19.0

     total cpu time spent up to now is        2.8 secs

     total energy              =     -86.00720260 Ry
     Harris-Foulkes estimate   =     -86.00693514 Ry
     estimated scf accuracy    <       0.00571761 Ry

     iteration # 52     ecut=    60.00 Ry     beta= 0.70
     Davidson diagonalization with overlap
     ethr =  3.07E-06,  avg # of iterations =  1.0

     total cpu time spent up to now is        2.9 secs

     total energy              =     -86.00691781 Ry
     Harris-Foulkes estimate   =     -86.00721168 Ry
     estimated scf accuracy    <       0.00629970 Ry

     iteration # 53     ecut=    60.00 Ry     beta= 0.70
     Davidson diagonalization with overlap
     ethr =  3.07E-06,  avg # of iterations =  1.0

     total cpu time spent up to now is        2.9 secs

     total energy              =     -86.00569606 Ry
     Harris-Foulkes estimate   =     -86.00692419 Ry
     estimated scf accuracy    <       0.00601867 Ry

     iteration # 54     ecut=    60.00 Ry     beta= 0.70
     Davidson diagonalization with overlap
     ethr =  3.07E-06,  avg # of iterations =  3.0

     total cpu time spent up to now is        2.9 secs

     total energy              =     -86.00568679 Ry
     Harris-Foulkes estimate   =     -86.00594650 Ry
     estimated scf accuracy    <       0.00267989 Ry

     iteration # 55     ecut=    60.00 Ry     beta= 0.70
     Davidson diagonalization with overlap
     ethr =  3.07E-06,  avg # of iterations =  2.0

     total cpu time spent up to now is        2.9 secs

     total energy              =     -86.00588168 Ry
     Harris-Foulkes estimate   =     -86.00570137 Ry
     estimated scf accuracy    <       0.00218673 Ry

     iteration # 56     ecut=    60.00 Ry     beta= 0.70
     Davidson diagonalization with overlap
     ethr =  3.07E-06,  avg # of iterations =  1.0

     total cpu time spent up to now is        3.0 secs

     total energy              =     -86.00321290 Ry
     Harris-Foulkes estimate   =     -86.00588813 Ry
     estimated scf accuracy    <       0.00236857 Ry

     iteration # 57     ecut=    60.00 Ry     beta= 0.70
     Davidson diagonalization with overlap
     ethr =  3.07E-06,  avg # of iterations =  7.0

     total cpu time spent up to now is        3.0 secs

     total energy              =     -86.00393032 Ry
     Harris-Foulkes estimate   =     -86.00456728 Ry
     estimated scf accuracy    <       0.00088877 Ry

     iteration # 58     ecut=    60.00 Ry     beta= 0.70
     Davidson diagonalization with overlap
     ethr =  3.07E-06,  avg # of iterations =  4.0

     total cpu time spent up to now is        3.1 secs

     total energy              =     -86.00525658 Ry
     Harris-Foulkes estimate   =     -86.00508572 Ry
     estimated scf accuracy    <       0.00108735 Ry

     iteration # 59     ecut=    60.00 Ry     beta= 0.70
     Davidson diagonalization with overlap
     ethr =  3.07E-06,  avg # of iterations =  3.0

     total cpu time spent up to now is        3.1 secs

     total energy              =     -86.00484103 Ry
     Harris-Foulkes estimate   =     -86.00526730 Ry
     estimated scf accuracy    <       0.00135994 Ry

     iteration # 60     ecut=    60.00 Ry     beta= 0.70
     Davidson diagonalization with overlap
     ethr =  3.07E-06,  avg # of iterations =  3.0

     total cpu time spent up to now is        3.1 secs

     total energy              =     -86.00490375 Ry
     Harris-Foulkes estimate   =     -86.00489838 Ry
     estimated scf accuracy    <       0.00073119 Ry

     iteration # 61     ecut=    60.00 Ry     beta= 0.70
     Davidson diagonalization with overlap
     ethr =  3.07E-06,  avg # of iterations =  1.0

     total cpu time spent up to now is        3.1 secs

     total energy              =     -86.00433124 Ry
     Harris-Foulkes estimate   =     -86.00490429 Ry
     estimated scf accuracy    <       0.00076876 Ry

     iteration # 62     ecut=    60.00 Ry     beta= 0.70
     Davidson diagonalization with overlap
     ethr =  3.07E-06,  avg # of iterations =  4.0

     total cpu time spent up to now is        3.2 secs

     total energy              =     -86.00442840 Ry
     Harris-Foulkes estimate   =     -86.00452916 Ry
     estimated scf accuracy    <       0.00009015 Ry

     iteration # 63     ecut=    60.00 Ry     beta= 0.70
     Davidson diagonalization with overlap
     ethr =  8.20E-07,  avg # of iterations =  3.0

     total cpu time spent up to now is        3.2 secs

     total energy              =     -85.98523647 Ry
     Harris-Foulkes estimate   =     -86.00559295 Ry
     estimated scf accuracy    <       0.09653598 Ry

     iteration # 64     ecut=    60.00 Ry     beta= 0.70
     Davidson diagonalization with overlap
     ethr =  8.20E-07,  avg # of iterations =  4.0

     total cpu time spent up to now is        3.2 secs

     total energy              =     -86.00721015 Ry
     Harris-Foulkes estimate   =     -86.00631487 Ry
     estimated scf accuracy    <       0.00350790 Ry

     iteration # 65     ecut=    60.00 Ry     beta= 0.70
     Davidson diagonalization with overlap
     ethr =  8.20E-07,  avg # of iterations =  4.0

     total cpu time spent up to now is        3.3 secs

     total energy              =     -86.00937248 Ry
     Harris-Foulkes estimate   =     -86.00741496 Ry
     estimated scf accuracy    <       0.00795760 Ry

     iteration # 66     ecut=    60.00 Ry     beta= 0.70
     Davidson diagonalization with overlap
     c_bands:  1 eigenvalues not converged
     ethr =  8.20E-07,  avg # of iterations = 20.0

     total cpu time spent up to now is        3.3 secs

     total energy              =     -86.00487157 Ry
     Harris-Foulkes estimate   =     -86.01034690 Ry
     estimated scf accuracy    <       0.04079651 Ry

     iteration # 67     ecut=    60.00 Ry     beta= 0.70
     Davidson diagonalization with overlap
     ethr =  8.20E-07,  avg # of iterations =  3.0

     total cpu time spent up to now is        3.4 secs

     total energy              =     -86.00305671 Ry
     Harris-Foulkes estimate   =     -86.00697288 Ry
     estimated scf accuracy    <       0.00591024 Ry

     iteration # 68     ecut=    60.00 Ry     beta= 0.70
     Davidson diagonalization with overlap
     ethr =  8.20E-07,  avg # of iterations =  9.0

     total cpu time spent up to now is        3.4 secs

     total energy              =     -86.00509366 Ry
     Harris-Foulkes estimate   =     -86.00474384 Ry
     estimated scf accuracy    <       0.00044670 Ry

     iteration # 69     ecut=    60.00 Ry     beta= 0.70
     Davidson diagonalization with overlap
     ethr =  8.20E-07,  avg # of iterations =  4.0

     total cpu time spent up to now is        3.5 secs

     total energy              =     -86.00492833 Ry
     Harris-Foulkes estimate   =     -86.00520953 Ry
     estimated scf accuracy    <       0.00123338 Ry

     iteration # 70     ecut=    60.00 Ry     beta= 0.70
     Davidson diagonalization with overlap
     ethr =  8.20E-07,  avg # of iterations =  4.0

     total cpu time spent up to now is        3.5 secs

     total energy              =     -86.00512040 Ry
     Harris-Foulkes estimate   =     -86.00495339 Ry
     estimated scf accuracy    <       0.00083907 Ry

     iteration # 71     ecut=    60.00 Ry     beta= 0.70
     Davidson diagonalization with overlap
     ethr =  8.20E-07,  avg # of iterations =  3.0

     total cpu time spent up to now is        3.6 secs

     total energy              =     -86.00508645 Ry
     Harris-Foulkes estimate   =     -86.00513316 Ry
     estimated scf accuracy    <       0.00111699 Ry

     iteration # 72     ecut=    60.00 Ry     beta= 0.70
     Davidson diagonalization with overlap
     ethr =  8.20E-07,  avg # of iterations =  2.0

     total cpu time spent up to now is        3.6 secs

     total energy              =     -86.00469560 Ry
     Harris-Foulkes estimate   =     -86.00508705 Ry
     estimated scf accuracy    <       0.00107098 Ry

     iteration # 73     ecut=    60.00 Ry     beta= 0.70
     Davidson diagonalization with overlap
     ethr =  8.20E-07,  avg # of iterations =  4.0

     total cpu time spent up to now is        3.7 secs

     total energy              =     -86.00473869 Ry
     Harris-Foulkes estimate   =     -86.00475422 Ry
     estimated scf accuracy    <       0.00052387 Ry

     iteration # 74     ecut=    60.00 Ry     beta= 0.70
     Davidson diagonalization with overlap
     ethr =  8.20E-07,  avg # of iterations =  2.0

     total cpu time spent up to now is        3.7 secs

     total energy              =     -86.00481648 Ry
     Harris-Foulkes estimate   =     -86.00473893 Ry
     estimated scf accuracy    <       0.00049678 Ry

     iteration # 75     ecut=    60.00 Ry     beta= 0.70
     Davidson diagonalization with overlap
     ethr =  8.20E-07,  avg # of iterations =  3.0

     total cpu time spent up to now is        3.7 secs

     total energy              =     -86.00435165 Ry
     Harris-Foulkes estimate   =     -86.00482134 Ry
     estimated scf accuracy    <       0.00063259 Ry

     iteration # 76     ecut=    60.00 Ry     beta= 0.70
     Davidson diagonalization with overlap
     ethr =  8.20E-07,  avg # of iterations =  3.0

     total cpu time spent up to now is        3.8 secs

     total energy              =     -86.00441763 Ry
     Harris-Foulkes estimate   =     -86.00452472 Ry
     estimated scf accuracy    <       0.00010076 Ry

     iteration # 77     ecut=    60.00 Ry     beta= 0.70
     Davidson diagonalization with overlap
     ethr =  8.20E-07,  avg # of iterations =  4.0

     total cpu time spent up to now is        3.8 secs

     total energy              =     -66.91224308 Ry
     Harris-Foulkes estimate   =     -86.74884666 Ry
     estimated scf accuracy    <   93299.10264166 Ry

     iteration # 78     ecut=    60.00 Ry     beta= 0.70
     Davidson diagonalization with overlap
     ethr =  8.20E-07,  avg # of iterations =  4.0

     total cpu time spent up to now is        3.9 secs

     total energy              =     -86.00524170 Ry
     Harris-Foulkes estimate   =     -86.00546885 Ry
     estimated scf accuracy    <       0.00161322 Ry

     iteration # 79     ecut=    60.00 Ry     beta= 0.70
     Davidson diagonalization with overlap
     ethr =  8.20E-07,  avg # of iterations =  3.0

     total cpu time spent up to now is        3.9 secs

     total energy              =     -86.00576322 Ry
     Harris-Foulkes estimate   =     -86.00525534 Ry
     estimated scf accuracy    <       0.00126695 Ry

     iteration # 80     ecut=    60.00 Ry     beta= 0.70
     Davidson diagonalization with overlap
     ethr =  8.20E-07,  avg # of iterations =  4.0

     total cpu time spent up to now is        4.0 secs

     total energy              =     -86.00643420 Ry
     Harris-Foulkes estimate   =     -86.00585307 Ry
     estimated scf accuracy    <       0.00237516 Ry

     iteration # 81     ecut=    60.00 Ry     beta= 0.70
     Davidson diagonalization with overlap
     ethr =  8.20E-07,  avg # of iterations =  4.0

     total cpu time spent up to now is        4.0 secs

     total energy              =     -86.00281720 Ry
     Harris-Foulkes estimate   =     -86.00652371 Ry
     estimated scf accuracy    <       0.00416305 Ry

     iteration # 82     ecut=    60.00 Ry     beta= 0.70
     Davidson diagonalization with overlap
     ethr =  8.20E-07,  avg # of iterations =  5.0

     total cpu time spent up to now is        4.1 secs

     total energy              =     -86.00472756 Ry
     Harris-Foulkes estimate   =     -86.00451773 Ry
     estimated scf accuracy    <       0.00009284 Ry

     iteration # 83     ecut=    60.00 Ry     beta= 0.70
     Davidson diagonalization with overlap
     ethr =  8.20E-07,  avg # of iterations =  3.0

     total cpu time spent up to now is        4.1 secs

     total energy              =     -86.00517155 Ry
     Harris-Foulkes estimate   =     -86.00489351 Ry
     estimated scf accuracy    <       0.00070275 Ry

     iteration # 84     ecut=    60.00 Ry     beta= 0.70
     Davidson diagonalization with overlap
     ethr =  8.20E-07,  avg # of iterations =  4.0

     total cpu time spent up to now is        4.2 secs

     total energy              =     -86.00511454 Ry
     Harris-Foulkes estimate   =     -86.00520459 Ry
     estimated scf accuracy    <       0.00110755 Ry

     iteration # 85     ecut=    60.00 Ry     beta= 0.70
     Davidson diagonalization with overlap
     ethr =  8.20E-07,  avg # of iterations =  3.0

     total cpu time spent up to now is        4.2 secs

     total energy              =     -86.00511929 Ry
     Harris-Foulkes estimate   =     -86.00511648 Ry
     estimated scf accuracy    <       0.00103004 Ry

     iteration # 86     ecut=    60.00 Ry     beta= 0.70
     Davidson diagonalization with overlap
     ethr =  8.20E-07,  avg # of iterations =  1.0

     total cpu time spent up to now is        4.2 secs

     total energy              =     -86.00370213 Ry
     Harris-Foulkes estimate   =     -86.00512009 Ry
     estimated scf accuracy    <       0.00099288 Ry

     iteration # 87     ecut=    60.00 Ry     beta= 0.70
     Davidson diagonalization with overlap
     ethr =  8.20E-07,  avg # of iterations =  4.0

     total cpu time spent up to now is        4.3 secs

     total energy              =     -86.01956686 Ry
     Harris-Foulkes estimate   =     -86.00502951 Ry
     estimated scf accuracy    <       0.02065865 Ry

     iteration # 88     ecut=    60.00 Ry     beta= 0.70
     Davidson diagonalization with overlap
     ethr =  8.20E-07,  avg # of iterations =  4.0

     total cpu time spent up to now is        4.3 secs

     total energy              =     -54.83399858 Ry
     Harris-Foulkes estimate   =    -129.18689422 Ry
     estimated scf accuracy    <  179668.69090876 Ry

     iteration # 89     ecut=    60.00 Ry     beta= 0.70
     Davidson diagonalization with overlap
     ethr =  8.20E-07,  avg # of iterations =  4.0

     total cpu time spent up to now is        4.3 secs

     total energy              =     -86.01536006 Ry
     Harris-Foulkes estimate   =     -86.00548659 Ry
     estimated scf accuracy    <       0.00157730 Ry

     iteration # 90     ecut=    60.00 Ry     beta= 0.70
     Davidson diagonalization with overlap
     ethr =  8.20E-07,  avg # of iterations =  5.0

     negative rho (up, down):  1.410E+02 0.000E+00

     total cpu time spent up to now is        4.4 secs

     total energy              =  -32192.40158552 Ry
     Harris-Foulkes estimate   =    -240.36358914 Ry
     estimated scf accuracy    <  207030.57563214 Ry

     iteration # 91     ecut=    60.00 Ry     beta= 0.70
     Davidson diagonalization with overlap
     c_bands:  4 eigenvalues not converged
     ethr =  8.20E-07,  avg # of iterations = 20.0

     negative rho (up, down):  1.170E+03 0.000E+00

     total cpu time spent up to now is        4.5 secs

     total energy              =  186669.35602370 Ry
     Harris-Foulkes estimate   =  -32562.29032866 Ry
     estimated scf accuracy    <  247582.20414387 Ry

     iteration # 92     ecut=    60.00 Ry     beta= 0.70
     Davidson diagonalization with overlap

 %%%%%%%%%%%%%%%%%%%%%%%%%%%%%%%%%%%%%%%%%%%%%%%%%%%%%%%%%%%%%%%%%%%%%%%%%%%%%%
     Error in routine c_bands (1):
     too many bands are not converged
 %%%%%%%%%%%%%%%%%%%%%%%%%%%%%%%%%%%%%%%%%%%%%%%%%%%%%%%%%%%%%%%%%%%%%%%%%%%%%%

     stopping ...
