
     Program PWSCF v.6.3MaX starts on 26Mar2024 at 11:26:27 

     This program is part of the open-source Quantum ESPRESSO suite
     for quantum simulation of materials; please cite
         "P. Giannozzi et al., J. Phys.:Condens. Matter 21 395502 (2009);
         "P. Giannozzi et al., J. Phys.:Condens. Matter 29 465901 (2017);
          URL http://www.quantum-espresso.org", 
     in publications or presentations arising from this work. More details at
     http://www.quantum-espresso.org/quote

     Parallel version (MPI), running on     5 processors

     MPI processes distributed on     1 nodes
     R & G space division:  proc/nbgrp/npool/nimage =       5
     Waiting for input...
     Reading input from standard input

     Current dimensions of program PWSCF are:
     Max number of different atomic species (ntypx) = 10
     Max number of k-points (npk) =  40000
     Max angular momentum in pseudopotentials (lmaxx) =  3

     Subspace diagonalization in iterative solution of the eigenvalue problem:
     a serial algorithm will be used


     Parallelization info
     --------------------
     sticks:   dense  smooth     PW     G-vecs:    dense   smooth      PW
     Min          50      50     17                  527      527     106
     Max          51      51     17                  528      528     107
     Sum         253     253     85                 2637     2637     531



     bravais-lattice index     =            2
     lattice parameter (alat)  =       7.7100  a.u.
     unit-cell volume          =     114.5785 (a.u.)^3
     number of atoms/cell      =            1
     number of atomic types    =            1
     number of electrons       =        11.00
     number of Kohn-Sham states=           10
     kinetic-energy cutoff     =      30.0000  Ry
     charge density cutoff     =     120.0000  Ry
     convergence threshold     =      1.0E-08
     mixing beta               =       0.7000
     number of iterations used =            8  plain     mixing
     Exchange-correlation      = PBE ( 1  4  3  4 0 0)

     celldm(1)=   7.710000  celldm(2)=   0.000000  celldm(3)=   0.000000
     celldm(4)=   0.000000  celldm(5)=   0.000000  celldm(6)=   0.000000

     crystal axes: (cart. coord. in units of alat)
               a(1) = (  -0.500000   0.000000   0.500000 )  
               a(2) = (   0.000000   0.500000   0.500000 )  
               a(3) = (  -0.500000   0.500000   0.000000 )  

     reciprocal axes: (cart. coord. in units 2 pi/alat)
               b(1) = ( -1.000000 -1.000000  1.000000 )  
               b(2) = (  1.000000  1.000000  1.000000 )  
               b(3) = ( -1.000000  1.000000 -1.000000 )  


     PseudoPot. # 1 for Au read from file:
     /home/lorenzo/pseudos/Au/Au.pbe-n-rrkjus_psl.1.0.0.UPF
     MD5 check sum: d7e77ba19504afed2c9b41c931dde4f0
     Pseudo is Ultrasoft + core correction, Zval = 11.0
     Generated using "atomic" code by A. Dal Corso v.6.3
     Using radial grid of 1279 points,  6 beta functions with: 
                l(1) =   0
                l(2) =   0
                l(3) =   1
                l(4) =   1
                l(5) =   2
                l(6) =   2
     Q(r) pseudized with 0 coefficients 


     atomic species   valence    mass     pseudopotential
        Au            11.00   196.96600     Au( 1.00)

     48 Sym. Ops., with inversion, found



   Cartesian axes

     site n.     atom                  positions (alat units)
         1           Au  tau(   1) = (   0.0000000   0.0000000   0.0000000  )

     number of k points=    29  gaussian smearing, width (Ry)=  0.0100
                       cart. coord. in units 2pi/alat
        k(    1) = (   0.0000000   0.0000000   0.0000000), wk =   0.0039062
        k(    2) = (  -0.1250000   0.1250000  -0.1250000), wk =   0.0312500
        k(    3) = (  -0.2500000   0.2500000  -0.2500000), wk =   0.0312500
        k(    4) = (  -0.3750000   0.3750000  -0.3750000), wk =   0.0312500
        k(    5) = (   0.5000000  -0.5000000   0.5000000), wk =   0.0156250
        k(    6) = (   0.0000000   0.2500000   0.0000000), wk =   0.0234375
        k(    7) = (  -0.1250000   0.3750000  -0.1250000), wk =   0.0937500
        k(    8) = (  -0.2500000   0.5000000  -0.2500000), wk =   0.0937500
        k(    9) = (   0.6250000  -0.3750000   0.6250000), wk =   0.0937500
        k(   10) = (   0.5000000  -0.2500000   0.5000000), wk =   0.0937500
        k(   11) = (   0.3750000  -0.1250000   0.3750000), wk =   0.0937500
        k(   12) = (   0.2500000   0.0000000   0.2500000), wk =   0.0468750
        k(   13) = (   0.0000000   0.5000000   0.0000000), wk =   0.0234375
        k(   14) = (  -0.1250000   0.6250000  -0.1250000), wk =   0.0937500
        k(   15) = (   0.7500000  -0.2500000   0.7500000), wk =   0.0937500
        k(   16) = (   0.6250000  -0.1250000   0.6250000), wk =   0.0937500
        k(   17) = (   0.5000000   0.0000000   0.5000000), wk =   0.0468750
        k(   18) = (   0.0000000   0.7500000   0.0000000), wk =   0.0234375
        k(   19) = (   0.8750000  -0.1250000   0.8750000), wk =   0.0937500
        k(   20) = (   0.7500000   0.0000000   0.7500000), wk =   0.0468750
        k(   21) = (   0.0000000  -1.0000000   0.0000000), wk =   0.0117188
        k(   22) = (  -0.2500000   0.5000000   0.0000000), wk =   0.0937500
        k(   23) = (   0.6250000  -0.3750000   0.8750000), wk =   0.1875000
        k(   24) = (   0.5000000  -0.2500000   0.7500000), wk =   0.0937500
        k(   25) = (   0.7500000  -0.2500000   1.0000000), wk =   0.0937500
        k(   26) = (   0.6250000  -0.1250000   0.8750000), wk =   0.1875000
        k(   27) = (   0.5000000   0.0000000   0.7500000), wk =   0.0937500
        k(   28) = (  -0.2500000  -1.0000000   0.0000000), wk =   0.0468750
        k(   29) = (  -0.5000000  -1.0000000   0.0000000), wk =   0.0234375

     Dense  grid:     2637 G-vectors     FFT dimensions: (  20,  20,  20)

     Estimated max dynamical RAM per process >       3.33 MB

     Estimated total dynamical RAM >      16.67 MB

     Initial potential from superposition of free atoms

     starting charge   10.99989, renormalised to   11.00000
     Starting wfcs are    9 randomized atomic wfcs +    1 random wfcs

     total cpu time spent up to now is        1.0 secs

     Self-consistent Calculation

     iteration #  1     ecut=    30.00 Ry     beta= 0.70
     Davidson diagonalization with overlap
     ethr =  1.00E-02,  avg # of iterations =  5.2

     Threshold (ethr) on eigenvalues was too large:
     Diagonalizing with lowered threshold

     Davidson diagonalization with overlap
     ethr =  4.54E-04,  avg # of iterations =  1.7

     total cpu time spent up to now is        1.3 secs

     total energy              =     -85.36556736 Ry
     Harris-Foulkes estimate   =     -85.39670429 Ry
     estimated scf accuracy    <       0.04996305 Ry

     iteration #  2     ecut=    30.00 Ry     beta= 0.70
     Davidson diagonalization with overlap
     ethr =  4.54E-04,  avg # of iterations =  2.4

     total cpu time spent up to now is        1.5 secs

     total energy              =     -85.37853892 Ry
     Harris-Foulkes estimate   =     -85.38498435 Ry
     estimated scf accuracy    <       0.01022269 Ry

     iteration #  3     ecut=    30.00 Ry     beta= 0.70
     Davidson diagonalization with overlap
     ethr =  9.29E-05,  avg # of iterations =  2.3

     total cpu time spent up to now is        1.6 secs

     total energy              =     -85.38099906 Ry
     Harris-Foulkes estimate   =     -85.38104812 Ry
     estimated scf accuracy    <       0.00017658 Ry

     iteration #  4     ecut=    30.00 Ry     beta= 0.70
     Davidson diagonalization with overlap
     ethr =  1.61E-06,  avg # of iterations =  3.6

     total cpu time spent up to now is        1.8 secs

     total energy              =     -85.38110591 Ry
     Harris-Foulkes estimate   =     -85.38114407 Ry
     estimated scf accuracy    <       0.00007124 Ry

     iteration #  5     ecut=    30.00 Ry     beta= 0.70
     Davidson diagonalization with overlap
     ethr =  6.48E-07,  avg # of iterations =  1.1

     total cpu time spent up to now is        1.9 secs

     total energy              =     -85.38111209 Ry
     Harris-Foulkes estimate   =     -85.38111414 Ry
     estimated scf accuracy    <       0.00000346 Ry

     iteration #  6     ecut=    30.00 Ry     beta= 0.70
     Davidson diagonalization with overlap
     ethr =  3.14E-08,  avg # of iterations =  3.1

     total cpu time spent up to now is        2.1 secs

     total energy              =     -85.38111498 Ry
     Harris-Foulkes estimate   =     -85.38111530 Ry
     estimated scf accuracy    <       0.00000071 Ry

     iteration #  7     ecut=    30.00 Ry     beta= 0.70
     Davidson diagonalization with overlap
     ethr =  6.41E-09,  avg # of iterations =  1.1

     total cpu time spent up to now is        2.2 secs

     total energy              =     -85.38111502 Ry
     Harris-Foulkes estimate   =     -85.38111505 Ry
     estimated scf accuracy    <       0.00000005 Ry

     iteration #  8     ecut=    30.00 Ry     beta= 0.70
     Davidson diagonalization with overlap
     ethr =  4.22E-10,  avg # of iterations =  3.1

     total cpu time spent up to now is        2.4 secs

     total energy              =     -85.38111505 Ry
     Harris-Foulkes estimate   =     -85.38111506 Ry
     estimated scf accuracy    <       0.00000002 Ry

     iteration #  9     ecut=    30.00 Ry     beta= 0.70
     Davidson diagonalization with overlap
     ethr =  1.70E-10,  avg # of iterations =  1.0

     total cpu time spent up to now is        2.5 secs

     End of self-consistent calculation

          k = 0.0000 0.0000 0.0000 (   331 PWs)   bands (ev):

     6.0992  11.3353  11.3353  11.3353  12.8644  12.8644  31.3943  35.2624
    35.2624  35.2624

          k =-0.1250 0.1250-0.1250 (   320 PWs)   bands (ev):

     6.6321  11.1833  11.5028  11.5028  12.8069  12.8069  31.6428  32.5555
    35.7617  35.7617

          k =-0.2500 0.2500-0.2500 (   311 PWs)   bands (ev):

     7.9084  11.1953  11.6185  11.6185  13.0357  13.0357  27.3252  32.3308
    36.2004  36.2004

          k =-0.3750 0.3750-0.3750 (   320 PWs)   bands (ev):

     8.6298  11.4126  11.4126  12.8313  13.7177  13.7177  22.3411  31.2055
    34.5680  34.5680

          k = 0.5000-0.5000 0.5000 (   332 PWs)   bands (ev):

     8.6770  11.2949  11.2949  14.0797  14.0797  15.0298  19.1265  30.6831
    33.6298  33.6298

          k = 0.0000 0.2500 0.0000 (   323 PWs)   bands (ev):

     6.8135  10.9793  11.6649  11.6649  12.4914  13.0237  32.1670  33.5067
    34.2902  34.2902

          k =-0.1250 0.3750-0.1250 (   318 PWs)   bands (ev):

     7.8984  10.7050  11.7301  11.9347  12.6338  13.2756  29.2966  32.7594
    33.2699  35.3979

          k =-0.2500 0.5000-0.2500 (   317 PWs)   bands (ev):

     8.9227  11.2225  11.3211  11.8270  13.8452  13.9903  24.1754  31.7581
    32.3773  33.9281

          k = 0.6250-0.3750 0.6250 (   321 PWs)   bands (ev):

     9.0581  11.0624  11.6297  12.5194  14.1047  16.3504  19.7088  30.6490
    32.3091  32.3648

          k = 0.5000-0.2500 0.5000 (   318 PWs)   bands (ev):

     9.0829  11.1428  11.6233  12.3851  13.6236  15.6495  21.1109  30.1754
    32.1222  34.0675

          k = 0.3750-0.1250 0.3750 (   315 PWs)   bands (ev):

     8.7341  11.0009  11.5197  11.8414  12.7560  14.1236  25.8930  30.5739
    33.5183  37.2245

          k = 0.2500 0.0000 0.2500 (   317 PWs)   bands (ev):

     7.4573  10.9201  11.6831  11.7774  12.4631  13.2018  30.3427  31.5465
    34.6444  36.7188

          k = 0.0000 0.5000 0.0000 (   311 PWs)   bands (ev):

     8.5363  10.2037  12.0266  12.5827  12.5827  13.4241  31.0079  31.0079
    32.3624  33.1699

          k =-0.1250 0.6250-0.1250 (   320 PWs)   bands (ev):

     9.2942  10.0227  11.8158  12.7547  13.9036  14.1413  26.3059  29.6539
    29.9157  33.5094

          k = 0.7500-0.2500 0.7500 (   315 PWs)   bands (ev):

     9.5488  10.4653  11.6783  12.5285  14.1701  17.0713  21.5006  27.6552
    29.7254  33.2215

          k = 0.6250-0.1250 0.6250 (   315 PWs)   bands (ev):

     9.8261  10.7410  11.5759  12.3447  13.6664  17.9501  20.9156  25.9993
    31.5249  32.9188

          k = 0.5000 0.0000 0.5000 (   315 PWs)   bands (ev):

     9.9012  10.7919  11.1283  12.2603  12.8625  15.7621  24.6583  26.3258
    33.0925  34.5133

          k = 0.0000 0.7500 0.0000 (   322 PWs)   bands (ev):

     9.1152   9.5169  13.7734  13.7734  13.8485  14.0556  26.1058  27.6615
    27.6615  32.8957

          k = 0.8750-0.1250 0.8750 (   320 PWs)   bands (ev):

     9.2013   9.5445  13.2018  13.5976  14.2658  17.1736  22.7168  25.5449
    27.2745  33.9898

          k = 0.7500 0.0000 0.7500 (   327 PWs)   bands (ev):

     9.5477  10.1703  12.1894  13.1550  13.9575  19.9441  20.7218  23.4913
    28.8169  33.8197

          k = 0.0000-1.0000 0.0000 (   326 PWs)   bands (ev):

     8.9308   9.2531  14.0324  14.4072  14.4072  17.0382  21.8315  26.2386
    26.2386  33.2795

          k =-0.2500 0.5000 0.0000 (   315 PWs)   bands (ev):

     9.0291  10.4137  11.3755  12.5844  12.6692  14.1625  27.4776  29.1948
    32.6052  35.6768

          k = 0.6250-0.3750 0.8750 (   319 PWs)   bands (ev):

     9.7008  10.8361  11.0390  12.3835  13.5843  15.9098  23.0998  28.0875
    30.6037  35.0419

          k = 0.5000-0.2500 0.7500 (   314 PWs)   bands (ev):

     9.7066  10.6552  11.7641  12.1768  13.9420  18.6824  19.1340  28.3380
    29.3738  34.2774

          k = 0.7500-0.2500 1.0000 (   321 PWs)   bands (ev):

     9.6205   9.8746  11.8482  13.4649  13.7640  16.1755  24.4738  26.3879
    27.8730  35.8473

          k = 0.6250-0.1250 0.8750 (   320 PWs)   bands (ev):

     9.8664  10.3118  11.5238  12.9384  14.1272  19.1983  21.2405  24.8466
    27.2308  35.9355

          k = 0.5000 0.0000 0.7500 (   315 PWs)   bands (ev):

    10.3123  10.6059  10.8861  12.7279  13.7667  18.1093  23.2284  23.6291
    28.7617  35.9868

          k =-0.2500-1.0000 0.0000 (   320 PWs)   bands (ev):

     9.3878   9.6605  12.7458  13.4840  14.4082  19.1891  21.2775  25.1002
    25.7731  36.0866

          k =-0.5000-1.0000 0.0000 (   308 PWs)   bands (ev):

    10.0416  10.8602  10.8602  12.7157  14.4091  20.8208  22.3768  22.3768
    25.5025  39.5156

     the Fermi energy is    16.0042 ev

!    total energy              =     -85.38111505 Ry
     Harris-Foulkes estimate   =     -85.38111505 Ry
     estimated scf accuracy    <          2.1E-09 Ry

     The total energy is the sum of the following terms:

     one-electron contribution =      11.08029017 Ry
     hartree contribution      =       7.60520371 Ry
     xc contribution           =     -32.11183639 Ry
     ewald contribution        =     -71.95438537 Ry
     smearing contrib. (-TS)   =      -0.00038718 Ry

     convergence has been achieved in   9 iterations

     Forces acting on atoms (cartesian axes, Ry/au):

     atom    1 type  1   force =     0.00000000    0.00000000    0.00000000

     Total force =     0.000000     Total SCF correction =     0.000000


     Computing stress (Cartesian axis) and pressure

          total   stress  (Ry/bohr**3)                   (kbar)     P=   99.86
   0.00067885   0.00000000   0.00000000         99.86      0.00      0.00
   0.00000000   0.00067885  -0.00000000          0.00     99.86     -0.00
   0.00000000  -0.00000000   0.00067885          0.00     -0.00     99.86


     Writing output data file Au.save/

     init_run     :      0.16s CPU      0.17s WALL (       1 calls)
     electrons    :      1.42s CPU      1.55s WALL (       1 calls)
     forces       :      0.02s CPU      0.02s WALL (       1 calls)
     stress       :      0.05s CPU      0.05s WALL (       1 calls)

     Called by init_run:
     wfcinit      :      0.04s CPU      0.05s WALL (       1 calls)
     potinit      :      0.00s CPU      0.00s WALL (       1 calls)
     hinit0       :      0.11s CPU      0.11s WALL (       1 calls)

     Called by electrons:
     c_bands      :      1.18s CPU      1.28s WALL (      10 calls)
     sum_band     :      0.20s CPU      0.22s WALL (      10 calls)
     v_of_rho     :      0.02s CPU      0.02s WALL (      10 calls)
     newd         :      0.02s CPU      0.03s WALL (      10 calls)
     mix_rho      :      0.00s CPU      0.00s WALL (      10 calls)

     Called by c_bands:
     init_us_2    :      0.03s CPU      0.03s WALL (     667 calls)
     cegterg      :      1.13s CPU      1.23s WALL (     290 calls)

     Called by sum_band:
     sum_band:bec :      0.00s CPU      0.00s WALL (     290 calls)
     addusdens    :      0.02s CPU      0.03s WALL (      10 calls)

     Called by *egterg:
     h_psi        :      0.79s CPU      0.87s WALL (    1034 calls)
     s_psi        :      0.02s CPU      0.03s WALL (    1034 calls)
     g_psi        :      0.00s CPU      0.00s WALL (     715 calls)
     cdiaghg      :      0.21s CPU      0.22s WALL (     976 calls)

     Called by h_psi:
     h_psi:pot    :      0.79s CPU      0.86s WALL (    1034 calls)
     h_psi:calbec :      0.04s CPU      0.04s WALL (    1034 calls)
     vloc_psi     :      0.72s CPU      0.79s WALL (    1034 calls)
     add_vuspsi   :      0.02s CPU      0.03s WALL (    1034 calls)

     General routines
     calbec       :      0.06s CPU      0.06s WALL (    1469 calls)
     fft          :      0.01s CPU      0.01s WALL (     137 calls)
     ffts         :      0.00s CPU      0.00s WALL (      10 calls)
     fftw         :      0.79s CPU      0.87s WALL (   18496 calls)

     Parallel routines
     fft_scatt_xy :      0.07s CPU      0.08s WALL (   18643 calls)
     fft_scatt_yz :      0.28s CPU      0.30s WALL (   18643 calls)

     PWSCF        :     2.47s CPU         2.66s WALL


   This run was terminated on:  11:26:29  26Mar2024            

=------------------------------------------------------------------------------=
   JOB DONE.
=------------------------------------------------------------------------------=
