
     Program PWSCF v.6.3MaX starts on 26Mar2024 at 12:14:16 

     This program is part of the open-source Quantum ESPRESSO suite
     for quantum simulation of materials; please cite
         "P. Giannozzi et al., J. Phys.:Condens. Matter 21 395502 (2009);
         "P. Giannozzi et al., J. Phys.:Condens. Matter 29 465901 (2017);
          URL http://www.quantum-espresso.org", 
     in publications or presentations arising from this work. More details at
     http://www.quantum-espresso.org/quote

     Parallel version (MPI), running on     5 processors

     MPI processes distributed on     1 nodes
     R & G space division:  proc/nbgrp/npool/nimage =       5
     Waiting for input...
     Reading input from standard input

     Current dimensions of program PWSCF are:
     Max number of different atomic species (ntypx) = 10
     Max number of k-points (npk) =  40000
     Max angular momentum in pseudopotentials (lmaxx) =  3
               file Au.pbe-n-kjpaw_psl.1.0.0.UPF: wavefunction(s)  6S 5D renormalized

     Subspace diagonalization in iterative solution of the eigenvalue problem:
     a serial algorithm will be used


     Parallelization info
     --------------------
     sticks:   dense  smooth     PW     G-vecs:    dense   smooth      PW
     Min         122     122     39                 1997     1997     351
     Max         123     123     40                 1997     1997     352
     Sum         613     613    199                 9985     9985    1759



     bravais-lattice index     =            2
     lattice parameter (alat)  =       7.7100  a.u.
     unit-cell volume          =     114.5785 (a.u.)^3
     number of atoms/cell      =            1
     number of atomic types    =            1
     number of electrons       =        11.00
     number of Kohn-Sham states=           10
     kinetic-energy cutoff     =      75.0000  Ry
     charge density cutoff     =     300.0000  Ry
     convergence threshold     =      1.0E-08
     mixing beta               =       0.7000
     number of iterations used =            8  plain     mixing
     Exchange-correlation      = SLA PW PBX PBC ( 1  4  3  4 0 0)

     celldm(1)=   7.710000  celldm(2)=   0.000000  celldm(3)=   0.000000
     celldm(4)=   0.000000  celldm(5)=   0.000000  celldm(6)=   0.000000

     crystal axes: (cart. coord. in units of alat)
               a(1) = (  -0.500000   0.000000   0.500000 )  
               a(2) = (   0.000000   0.500000   0.500000 )  
               a(3) = (  -0.500000   0.500000   0.000000 )  

     reciprocal axes: (cart. coord. in units 2 pi/alat)
               b(1) = ( -1.000000 -1.000000  1.000000 )  
               b(2) = (  1.000000  1.000000  1.000000 )  
               b(3) = ( -1.000000  1.000000 -1.000000 )  


     PseudoPot. # 1 for Au read from file:
     /home/lorenzo/pseudos/Au/Au.pbe-n-kjpaw_psl.1.0.0.UPF
     MD5 check sum: 4db85c736373c707a97ce4c36c2a9d23
     Pseudo is Projector augmented-wave + core cor, Zval = 11.0
     Generated using "atomic" code by A. Dal Corso v.6.3
     Shape of augmentation charge: PSQ
     Using radial grid of 1279 points,  6 beta functions with: 
                l(1) =   0
                l(2) =   0
                l(3) =   1
                l(4) =   1
                l(5) =   2
                l(6) =   2
     Q(r) pseudized with 0 coefficients 


     atomic species   valence    mass     pseudopotential
        Au            11.00   196.96600     Au( 1.00)

     48 Sym. Ops., with inversion, found



   Cartesian axes

     site n.     atom                  positions (alat units)
         1           Au  tau(   1) = (   0.0000000   0.0000000   0.0000000  )

     number of k points=    10  gaussian smearing, width (Ry)=  0.0100
                       cart. coord. in units 2pi/alat
        k(    1) = (   0.0000000   0.0000000   0.0000000), wk =   0.0160000
        k(    2) = (  -0.2000000   0.2000000  -0.2000000), wk =   0.1280000
        k(    3) = (  -0.4000000   0.4000000  -0.4000000), wk =   0.1280000
        k(    4) = (   0.0000000   0.4000000   0.0000000), wk =   0.0960000
        k(    5) = (  -0.2000000   0.6000000  -0.2000000), wk =   0.3840000
        k(    6) = (   0.6000000  -0.2000000   0.6000000), wk =   0.3840000
        k(    7) = (   0.4000000   0.0000000   0.4000000), wk =   0.1920000
        k(    8) = (   0.0000000   0.8000000   0.0000000), wk =   0.0960000
        k(    9) = (   0.8000000   0.0000000   0.8000000), wk =   0.1920000
        k(   10) = (   0.6000000  -0.2000000   1.0000000), wk =   0.3840000

     Dense  grid:     9985 G-vectors     FFT dimensions: (  32,  32,  32)

     Estimated max dynamical RAM per process >       9.64 MB

     Estimated total dynamical RAM >      48.22 MB

     Initial potential from superposition of free atoms

     starting charge   10.99989, renormalised to   11.00000
     Starting wfcs are    9 randomized atomic wfcs +    1 random wfcs
     Checking if some PAW data can be deallocated... 

     total cpu time spent up to now is        1.3 secs

     Self-consistent Calculation

     iteration #  1     ecut=    75.00 Ry     beta= 0.70
     Davidson diagonalization with overlap
     ethr =  1.00E-02,  avg # of iterations =  5.1

     Threshold (ethr) on eigenvalues was too large:
     Diagonalizing with lowered threshold

     Davidson diagonalization with overlap
     ethr =  4.65E-04,  avg # of iterations =  2.1

     total cpu time spent up to now is        1.7 secs

     total energy              =    -775.12531879 Ry
     Harris-Foulkes estimate   =    -775.16110960 Ry
     estimated scf accuracy    <       0.05282996 Ry

     iteration #  2     ecut=    75.00 Ry     beta= 0.70
     Davidson diagonalization with overlap
     ethr =  4.80E-04,  avg # of iterations =  2.8

     total cpu time spent up to now is        1.9 secs

     total energy              =    -775.14141144 Ry
     Harris-Foulkes estimate   =    -775.15124114 Ry
     estimated scf accuracy    <       0.01628738 Ry

     iteration #  3     ecut=    75.00 Ry     beta= 0.70
     Davidson diagonalization with overlap
     ethr =  1.48E-04,  avg # of iterations =  2.0

     total cpu time spent up to now is        2.2 secs

     total energy              =    -775.14495807 Ry
     Harris-Foulkes estimate   =    -775.14500133 Ry
     estimated scf accuracy    <       0.00024646 Ry

     iteration #  4     ecut=    75.00 Ry     beta= 0.70
     Davidson diagonalization with overlap
     ethr =  2.24E-06,  avg # of iterations =  4.2

     total cpu time spent up to now is        2.5 secs

     total energy              =    -775.14520726 Ry
     Harris-Foulkes estimate   =    -775.14533017 Ry
     estimated scf accuracy    <       0.00026178 Ry

     iteration #  5     ecut=    75.00 Ry     beta= 0.70
     Davidson diagonalization with overlap
     ethr =  2.24E-06,  avg # of iterations =  1.0

     total cpu time spent up to now is        2.8 secs

     total energy              =    -775.14521984 Ry
     Harris-Foulkes estimate   =    -775.14523285 Ry
     estimated scf accuracy    <       0.00002507 Ry

     iteration #  6     ecut=    75.00 Ry     beta= 0.70
     Davidson diagonalization with overlap
     ethr =  2.28E-07,  avg # of iterations =  2.7

     total cpu time spent up to now is        3.1 secs

     total energy              =    -775.14523056 Ry
     Harris-Foulkes estimate   =    -775.14523049 Ry
     estimated scf accuracy    <       0.00000013 Ry

     iteration #  7     ecut=    75.00 Ry     beta= 0.70
     Davidson diagonalization with overlap
     ethr =  1.21E-09,  avg # of iterations =  4.5

     total cpu time spent up to now is        3.4 secs

     total energy              =    -775.14523069 Ry
     Harris-Foulkes estimate   =    -775.14523101 Ry
     estimated scf accuracy    <       0.00000082 Ry

     iteration #  8     ecut=    75.00 Ry     beta= 0.70
     Davidson diagonalization with overlap
     ethr =  1.21E-09,  avg # of iterations =  2.6

     total cpu time spent up to now is        3.7 secs

     total energy              =    -775.14523068 Ry
     Harris-Foulkes estimate   =    -775.14523075 Ry
     estimated scf accuracy    <       0.00000013 Ry

     iteration #  9     ecut=    75.00 Ry     beta= 0.70
     Davidson diagonalization with overlap
     ethr =  1.14E-09,  avg # of iterations =  1.3

     total cpu time spent up to now is        3.9 secs

     End of self-consistent calculation

          k = 0.0000 0.0000 0.0000 (  1243 PWs)   bands (ev):

     6.0752  11.2846  11.2846  11.2846  12.8098  12.8098  31.3893  35.2423
    35.2423  35.2423

          k =-0.2000 0.2000-0.2000 (  1266 PWs)   bands (ev):

     7.3440  11.0442  11.5721  11.5721  12.8098  12.8098  29.2536  32.4772
    36.1863  36.1863

          k =-0.4000 0.4000-0.4000 (  1251 PWs)   bands (ev):

     8.6213  11.3216  11.3216  13.3393  13.7813  13.7813  21.3796  31.0099
    34.2131  34.2131

          k = 0.0000 0.4000 0.0000 (  1279 PWs)   bands (ev):

     7.7888  10.4811  12.0531  12.1032  12.1032  13.1905  32.4305  32.4305
    32.6737  33.1280

          k =-0.2000 0.6000-0.2000 (  1266 PWs)   bands (ev):

     9.2844  10.4893  11.3320  12.2451  13.9363  14.5419  24.3958  30.5667
    30.5795  33.1819

          k = 0.6000-0.2000 0.6000 (  1259 PWs)   bands (ev):

     9.5188  10.7765  11.8877  11.9644  13.7229  17.5719  19.9653  27.8310
    32.1116  32.4397

          k = 0.4000 0.0000 0.4000 (  1259 PWs)   bands (ev):

     9.0430  10.6530  11.3835  12.1724  12.3316  14.4143  26.6467  28.5970
    33.7889  36.6169

          k = 0.0000 0.8000 0.0000 (  1258 PWs)   bands (ev):

     9.0240   9.3781  13.8542  13.9227  13.9227  14.7518  24.8549  27.1391
    27.1391  32.9576

          k = 0.8000 0.0000 0.8000 (  1248 PWs)   bands (ev):

     9.3306   9.8110  12.6181  13.3560  14.0553  19.6761  20.6428  23.8919
    27.9181  33.9967

          k = 0.6000-0.2000 1.0000 (  1243 PWs)   bands (ev):

    10.0756  10.3239  11.0266  12.9365  13.9087  18.0046  23.1121  24.3515
    27.3684  37.4566

     the Fermi energy is    14.7789 ev

!    total energy              =    -775.14523070 Ry
     Harris-Foulkes estimate   =    -775.14523070 Ry
     estimated scf accuracy    <          3.5E-09 Ry

     total all-electron energy =    -38023.991322 Ry

     The total energy is the sum of the following terms:

     one-electron contribution =      13.81505740 Ry
     hartree contribution      =       7.64411228 Ry
     xc contribution           =     -32.12547073 Ry
     ewald contribution        =     -71.95438534 Ry
     one-center paw contrib.   =    -692.52423152 Ry
     smearing contrib. (-TS)   =      -0.00031279 Ry

     convergence has been achieved in   9 iterations

     Forces acting on atoms (cartesian axes, Ry/au):

     atom    1 type  1   force =     0.00000000    0.00000000    0.00000000

     Total force =     0.000000     Total SCF correction =     0.000000


     Computing stress (Cartesian axis) and pressure

          total   stress  (Ry/bohr**3)                   (kbar)     P=   95.21
   0.00064723  -0.00000000  -0.00000000         95.21     -0.00     -0.00
  -0.00000000   0.00064723   0.00000000         -0.00     95.21      0.00
  -0.00000000   0.00000000   0.00064723         -0.00      0.00     95.21


     Writing output data file Au.save/

     init_run     :      0.35s CPU      0.38s WALL (       1 calls)
     electrons    :      2.43s CPU      2.66s WALL (       1 calls)
     forces       :      0.04s CPU      0.04s WALL (       1 calls)
     stress       :      0.12s CPU      0.12s WALL (       1 calls)

     Called by init_run:
     wfcinit      :      0.03s CPU      0.04s WALL (       1 calls)
     potinit      :      0.11s CPU      0.12s WALL (       1 calls)
     hinit0       :      0.18s CPU      0.19s WALL (       1 calls)

     Called by electrons:
     c_bands      :      1.07s CPU      1.14s WALL (      10 calls)
     sum_band     :      0.29s CPU      0.31s WALL (      10 calls)
     v_of_rho     :      0.06s CPU      0.06s WALL (      10 calls)
     newd         :      0.09s CPU      0.11s WALL (      10 calls)
     PAW_pot      :      1.00s CPU      1.15s WALL (      10 calls)
     mix_rho      :      0.01s CPU      0.01s WALL (      10 calls)

     Called by c_bands:
     init_us_2    :      0.04s CPU      0.04s WALL (     230 calls)
     cegterg      :      1.02s CPU      1.09s WALL (     100 calls)

     Called by sum_band:
     sum_band:bec :      0.00s CPU      0.00s WALL (     100 calls)
     addusdens    :      0.09s CPU      0.09s WALL (      10 calls)

     Called by *egterg:
     h_psi        :      0.79s CPU      0.85s WALL (     393 calls)
     s_psi        :      0.03s CPU      0.03s WALL (     393 calls)
     g_psi        :      0.00s CPU      0.00s WALL (     283 calls)
     cdiaghg      :      0.09s CPU      0.09s WALL (     373 calls)

     Called by h_psi:
     h_psi:pot    :      0.79s CPU      0.84s WALL (     393 calls)
     h_psi:calbec :      0.04s CPU      0.04s WALL (     393 calls)
     vloc_psi     :      0.72s CPU      0.77s WALL (     393 calls)
     add_vuspsi   :      0.03s CPU      0.03s WALL (     393 calls)

     General routines
     calbec       :      0.06s CPU      0.06s WALL (     543 calls)
     fft          :      0.03s CPU      0.03s WALL (     137 calls)
     ffts         :      0.00s CPU      0.00s WALL (      10 calls)
     fftw         :      0.80s CPU      0.85s WALL (    6598 calls)

     Parallel routines
     fft_scatt_xy :      0.08s CPU      0.08s WALL (    6745 calls)
     fft_scatt_yz :      0.27s CPU      0.29s WALL (    6745 calls)

     PWSCF        :     3.85s CPU         4.15s WALL


   This run was terminated on:  12:14:20  26Mar2024            

=------------------------------------------------------------------------------=
   JOB DONE.
=------------------------------------------------------------------------------=
