
     Program PWSCF v.6.3MaX starts on 26Mar2024 at 12: 6:40 

     This program is part of the open-source Quantum ESPRESSO suite
     for quantum simulation of materials; please cite
         "P. Giannozzi et al., J. Phys.:Condens. Matter 21 395502 (2009);
         "P. Giannozzi et al., J. Phys.:Condens. Matter 29 465901 (2017);
          URL http://www.quantum-espresso.org", 
     in publications or presentations arising from this work. More details at
     http://www.quantum-espresso.org/quote

     Parallel version (MPI), running on     5 processors

     MPI processes distributed on     1 nodes
     R & G space division:  proc/nbgrp/npool/nimage =       5
     Waiting for input...
     Reading input from standard input

     Current dimensions of program PWSCF are:
     Max number of different atomic species (ntypx) = 10
     Max number of k-points (npk) =  40000
     Max angular momentum in pseudopotentials (lmaxx) =  3

     Subspace diagonalization in iterative solution of the eigenvalue problem:
     a serial algorithm will be used


     Parallelization info
     --------------------
     sticks:   dense  smooth     PW     G-vecs:    dense   smooth      PW
     Min         116     116     32                 1836     1836     290
     Max         117     117     33                 1838     1838     293
     Sum         583     583    163                 9185     9185    1459



     bravais-lattice index     =            2
     lattice parameter (alat)  =       7.7100  a.u.
     unit-cell volume          =     114.5785 (a.u.)^3
     number of atoms/cell      =            1
     number of atomic types    =            1
     number of electrons       =        11.00
     number of Kohn-Sham states=           10
     kinetic-energy cutoff     =      70.0000  Ry
     charge density cutoff     =     280.0000  Ry
     convergence threshold     =      1.0E-08
     mixing beta               =       0.7000
     number of iterations used =            8  plain     mixing
     Exchange-correlation      = PBESOL ( 1  4 10  8 0 0)

     celldm(1)=   7.710000  celldm(2)=   0.000000  celldm(3)=   0.000000
     celldm(4)=   0.000000  celldm(5)=   0.000000  celldm(6)=   0.000000

     crystal axes: (cart. coord. in units of alat)
               a(1) = (  -0.500000   0.000000   0.500000 )  
               a(2) = (   0.000000   0.500000   0.500000 )  
               a(3) = (  -0.500000   0.500000   0.000000 )  

     reciprocal axes: (cart. coord. in units 2 pi/alat)
               b(1) = ( -1.000000 -1.000000  1.000000 )  
               b(2) = (  1.000000  1.000000  1.000000 )  
               b(3) = ( -1.000000  1.000000 -1.000000 )  


     PseudoPot. # 1 for Au read from file:
     /home/lorenzo/pseudos/Au/Au.pbesol-n-rrkjus_psl.1.0.0.UPF
     MD5 check sum: 09626e9411213730b9a56fcc59c03ca8
     Pseudo is Ultrasoft + core correction, Zval = 11.0
     Generated using "atomic" code by A. Dal Corso v.6.3
     Using radial grid of 1279 points,  6 beta functions with: 
                l(1) =   0
                l(2) =   0
                l(3) =   1
                l(4) =   1
                l(5) =   2
                l(6) =   2
     Q(r) pseudized with 0 coefficients 


     atomic species   valence    mass     pseudopotential
        Au            11.00   196.96600     Au( 1.00)

     48 Sym. Ops., with inversion, found



   Cartesian axes

     site n.     atom                  positions (alat units)
         1           Au  tau(   1) = (   0.0000000   0.0000000   0.0000000  )

     number of k points=     3  gaussian smearing, width (Ry)=  0.0100
                       cart. coord. in units 2pi/alat
        k(    1) = (   0.0000000   0.0000000   0.0000000), wk =   0.2500000
        k(    2) = (   0.5000000  -0.5000000   0.5000000), wk =   1.0000000
        k(    3) = (   0.0000000  -1.0000000   0.0000000), wk =   0.7500000

     Dense  grid:     9185 G-vectors     FFT dimensions: (  30,  30,  30)

     Estimated max dynamical RAM per process >       8.62 MB

     Estimated total dynamical RAM >      43.10 MB

     Initial potential from superposition of free atoms

     starting charge   10.99990, renormalised to   11.00000
     Starting wfcs are    9 randomized atomic wfcs +    1 random wfcs

     total cpu time spent up to now is        1.4 secs

     Self-consistent Calculation

     iteration #  1     ecut=    70.00 Ry     beta= 0.70
     Davidson diagonalization with overlap
     ethr =  1.00E-02,  avg # of iterations =  7.3

     Threshold (ethr) on eigenvalues was too large:
     Diagonalizing with lowered threshold

     Davidson diagonalization with overlap
     ethr =  4.12E-04,  avg # of iterations =  1.7

     negative rho (up, down):  3.572E-03 0.000E+00

     total cpu time spent up to now is        1.5 secs

     total energy              =     -84.95128992 Ry
     Harris-Foulkes estimate   =     -84.96909732 Ry
     estimated scf accuracy    <       0.04694611 Ry

     iteration #  2     ecut=    70.00 Ry     beta= 0.70
     Davidson diagonalization with overlap
     ethr =  4.27E-04,  avg # of iterations =  5.7

     total cpu time spent up to now is        1.6 secs

     total energy              =     -41.92486027 Ry
     Harris-Foulkes estimate   =    -118.10096755 Ry
     estimated scf accuracy    <  179829.14402711 Ry

     iteration #  3     ecut=    70.00 Ry     beta= 0.70
     Davidson diagonalization with overlap
     ethr =  4.27E-04,  avg # of iterations =  8.3

     total cpu time spent up to now is        1.7 secs

     total energy              =     -84.95505461 Ry
     Harris-Foulkes estimate   =     -84.96829891 Ry
     estimated scf accuracy    <       0.03375437 Ry

     iteration #  4     ecut=    70.00 Ry     beta= 0.70
     Davidson diagonalization with overlap
     ethr =  3.07E-04,  avg # of iterations =  4.7

     total cpu time spent up to now is        1.8 secs

     total energy              =     -84.95717360 Ry
     Harris-Foulkes estimate   =     -84.95790288 Ry
     estimated scf accuracy    <       0.01014878 Ry

     iteration #  5     ecut=    70.00 Ry     beta= 0.70
     Davidson diagonalization with overlap
     ethr =  9.23E-05,  avg # of iterations =  1.3

     total cpu time spent up to now is        1.8 secs

     total energy              =     -84.95716573 Ry
     Harris-Foulkes estimate   =     -84.95858507 Ry
     estimated scf accuracy    <       0.01230757 Ry

     iteration #  6     ecut=    70.00 Ry     beta= 0.70
     Davidson diagonalization with overlap
     ethr =  9.23E-05,  avg # of iterations =  1.0

     total cpu time spent up to now is        1.9 secs

     total energy              =     -84.95804367 Ry
     Harris-Foulkes estimate   =     -84.95809002 Ry
     estimated scf accuracy    <       0.00971668 Ry

     iteration #  7     ecut=    70.00 Ry     beta= 0.70
     Davidson diagonalization with overlap
     ethr =  8.83E-05,  avg # of iterations =  1.0

     total cpu time spent up to now is        2.0 secs

     total energy              =     -84.95803740 Ry
     Harris-Foulkes estimate   =     -84.95805930 Ry
     estimated scf accuracy    <       0.00887127 Ry

     iteration #  8     ecut=    70.00 Ry     beta= 0.70
     Davidson diagonalization with overlap
     ethr =  8.06E-05,  avg # of iterations =  4.3

     total cpu time spent up to now is        2.0 secs

     total energy              =     -84.95804548 Ry
     Harris-Foulkes estimate   =     -84.95804841 Ry
     estimated scf accuracy    <       0.00832904 Ry

     iteration #  9     ecut=    70.00 Ry     beta= 0.70
     Davidson diagonalization with overlap
     ethr =  7.57E-05,  avg # of iterations =  1.0

     total cpu time spent up to now is        2.1 secs

     total energy              =     -84.95804394 Ry
     Harris-Foulkes estimate   =     -84.95804741 Ry
     estimated scf accuracy    <       0.00819114 Ry

     iteration # 10     ecut=    70.00 Ry     beta= 0.70
     Davidson diagonalization with overlap
     ethr =  7.45E-05,  avg # of iterations =  1.0

     total cpu time spent up to now is        2.1 secs

     total energy              =     -84.95804325 Ry
     Harris-Foulkes estimate   =     -84.95804471 Ry
     estimated scf accuracy    <       0.00811769 Ry

     iteration # 11     ecut=    70.00 Ry     beta= 0.70
     Davidson diagonalization with overlap
     ethr =  7.38E-05,  avg # of iterations =  1.0

     total cpu time spent up to now is        2.2 secs

     total energy              =     -84.95780224 Ry
     Harris-Foulkes estimate   =     -84.95804370 Ry
     estimated scf accuracy    <       0.00801718 Ry

     iteration # 12     ecut=    70.00 Ry     beta= 0.70
     Davidson diagonalization with overlap
     ethr =  7.29E-05,  avg # of iterations =  1.3

     total cpu time spent up to now is        2.3 secs

     total energy              =     -84.95778737 Ry
     Harris-Foulkes estimate   =     -84.95790907 Ry
     estimated scf accuracy    <       0.00339524 Ry

     iteration # 13     ecut=    70.00 Ry     beta= 0.70
     Davidson diagonalization with overlap
     ethr =  3.09E-05,  avg # of iterations =  1.0

     total cpu time spent up to now is        2.3 secs

     total energy              =     -84.95782215 Ry
     Harris-Foulkes estimate   =     -84.95782264 Ry
     estimated scf accuracy    <       0.00169513 Ry

     iteration # 14     ecut=    70.00 Ry     beta= 0.70
     Davidson diagonalization with overlap
     ethr =  1.54E-05,  avg # of iterations =  1.0

     total cpu time spent up to now is        2.4 secs

     total energy              =     -84.95774779 Ry
     Harris-Foulkes estimate   =     -84.95782965 Ry
     estimated scf accuracy    <       0.00129968 Ry

     iteration # 15     ecut=    70.00 Ry     beta= 0.70
     Davidson diagonalization with overlap
     ethr =  1.18E-05,  avg # of iterations =  1.0

     total cpu time spent up to now is        2.5 secs

     total energy              =     -84.95777454 Ry
     Harris-Foulkes estimate   =     -84.95779099 Ry
     estimated scf accuracy    <       0.00051458 Ry

     iteration # 16     ecut=    70.00 Ry     beta= 0.70
     Davidson diagonalization with overlap
     ethr =  4.68E-06,  avg # of iterations =  1.3

     total cpu time spent up to now is        2.5 secs

     total energy              =     -84.95778401 Ry
     Harris-Foulkes estimate   =     -84.95778668 Ry
     estimated scf accuracy    <       0.00012842 Ry

     iteration # 17     ecut=    70.00 Ry     beta= 0.70
     Davidson diagonalization with overlap
     ethr =  1.17E-06,  avg # of iterations =  1.0

     total cpu time spent up to now is        2.6 secs

     total energy              =     -84.95778804 Ry
     Harris-Foulkes estimate   =     -84.95778760 Ry
     estimated scf accuracy    <       0.00008263 Ry

     iteration # 18     ecut=    70.00 Ry     beta= 0.70
     Davidson diagonalization with overlap
     ethr =  7.51E-07,  avg # of iterations =  1.0

     total cpu time spent up to now is        2.7 secs

     total energy              =     -84.95778960 Ry
     Harris-Foulkes estimate   =     -84.95778947 Ry
     estimated scf accuracy    <       0.00005379 Ry

     iteration # 19     ecut=    70.00 Ry     beta= 0.70
     Davidson diagonalization with overlap
     ethr =  4.89E-07,  avg # of iterations =  1.0

     total cpu time spent up to now is        2.7 secs

     total energy              =     -84.95779117 Ry
     Harris-Foulkes estimate   =     -84.95779017 Ry
     estimated scf accuracy    <       0.00005041 Ry

     iteration # 20     ecut=    70.00 Ry     beta= 0.70
     Davidson diagonalization with overlap
     ethr =  4.58E-07,  avg # of iterations =  1.0

     total cpu time spent up to now is        2.8 secs

     total energy              =     -84.95779296 Ry
     Harris-Foulkes estimate   =     -84.95779160 Ry
     estimated scf accuracy    <       0.00007659 Ry

     iteration # 21     ecut=    70.00 Ry     beta= 0.70
     Davidson diagonalization with overlap
     ethr =  4.58E-07,  avg # of iterations =  1.0

     total cpu time spent up to now is        2.8 secs

     total energy              =     -84.95779507 Ry
     Harris-Foulkes estimate   =     -84.95779313 Ry
     estimated scf accuracy    <       0.00010149 Ry

     iteration # 22     ecut=    70.00 Ry     beta= 0.70
     Davidson diagonalization with overlap
     ethr =  4.58E-07,  avg # of iterations =  1.0

     total cpu time spent up to now is        2.9 secs

     total energy              =     -84.95776679 Ry
     Harris-Foulkes estimate   =     -84.95779542 Ry
     estimated scf accuracy    <       0.00015343 Ry

     iteration # 23     ecut=    70.00 Ry     beta= 0.70
     Davidson diagonalization with overlap
     ethr =  4.58E-07,  avg # of iterations =  2.7

     total cpu time spent up to now is        3.0 secs

     total energy              =     -84.95779958 Ry
     Harris-Foulkes estimate   =     -84.95780024 Ry
     estimated scf accuracy    <       0.00040627 Ry

     iteration # 24     ecut=    70.00 Ry     beta= 0.70
     Davidson diagonalization with overlap
     ethr =  4.58E-07,  avg # of iterations =  3.0

     total cpu time spent up to now is        3.0 secs

     total energy              =     -84.95780777 Ry
     Harris-Foulkes estimate   =     -84.95779964 Ry
     estimated scf accuracy    <       0.00040039 Ry

     iteration # 25     ecut=    70.00 Ry     beta= 0.70
     Davidson diagonalization with overlap
     ethr =  4.58E-07,  avg # of iterations =  1.3

     total cpu time spent up to now is        3.1 secs

     total energy              =     -84.95782550 Ry
     Harris-Foulkes estimate   =     -84.95780905 Ry
     estimated scf accuracy    <       0.00068504 Ry

     iteration # 26     ecut=    70.00 Ry     beta= 0.70
     Davidson diagonalization with overlap
     ethr =  4.58E-07,  avg # of iterations =  1.3

     total cpu time spent up to now is        3.1 secs

     total energy              =     -84.95774088 Ry
     Harris-Foulkes estimate   =     -84.95782877 Ry
     estimated scf accuracy    <       0.00125061 Ry

     iteration # 27     ecut=    70.00 Ry     beta= 0.70
     Davidson diagonalization with overlap
     ethr =  4.58E-07,  avg # of iterations =  2.7

     total cpu time spent up to now is        3.2 secs

     total energy              =     -84.95778791 Ry
     Harris-Foulkes estimate   =     -84.95778836 Ry
     estimated scf accuracy    <       0.00001360 Ry

     iteration # 28     ecut=    70.00 Ry     beta= 0.70
     Davidson diagonalization with overlap
     ethr =  1.24E-07,  avg # of iterations =  1.0

     total cpu time spent up to now is        3.3 secs

     total energy              =     -84.95778774 Ry
     Harris-Foulkes estimate   =     -84.95778808 Ry
     estimated scf accuracy    <       0.00000660 Ry

     iteration # 29     ecut=    70.00 Ry     beta= 0.70
     Davidson diagonalization with overlap
     ethr =  6.00E-08,  avg # of iterations =  1.0

     total cpu time spent up to now is        3.3 secs

     total energy              =     -84.95778795 Ry
     Harris-Foulkes estimate   =     -84.95778796 Ry
     estimated scf accuracy    <       0.00000039 Ry

     iteration # 30     ecut=    70.00 Ry     beta= 0.70
     Davidson diagonalization with overlap
     ethr =  3.54E-09,  avg # of iterations =  3.0

     total cpu time spent up to now is        3.4 secs

     total energy              =     -84.95778804 Ry
     Harris-Foulkes estimate   =     -84.95778804 Ry
     estimated scf accuracy    <       0.00000007 Ry

     iteration # 31     ecut=    70.00 Ry     beta= 0.70
     Davidson diagonalization with overlap
     ethr =  6.63E-10,  avg # of iterations =  2.0

     total cpu time spent up to now is        3.4 secs

     total energy              =     -84.95778803 Ry
     Harris-Foulkes estimate   =     -84.95778805 Ry
     estimated scf accuracy    <       0.00000019 Ry

     iteration # 32     ecut=    70.00 Ry     beta= 0.70
     Davidson diagonalization with overlap
     ethr =  6.63E-10,  avg # of iterations =  1.3

     total cpu time spent up to now is        3.5 secs

     End of self-consistent calculation

          k = 0.0000 0.0000 0.0000 (  1139 PWs)   bands (ev):

     5.8545  11.4941  11.4941  11.4941  13.1290  13.1290  31.0299  35.0340
    35.0340  35.0340

          k = 0.5000-0.5000 0.5000 (  1158 PWs)   bands (ev):

     8.6441  11.4706  11.4706  14.3623  14.3623  14.7743  19.2150  30.3541
    33.4213  33.4213

          k = 0.0000-1.0000 0.0000 (  1138 PWs)   bands (ev):

     8.9576   9.3216  14.3363  14.6890  14.6890  16.7804  21.7747  26.0192
    26.0192  32.8577

     the Fermi energy is    14.8583 ev

!    total energy              =     -84.95778805 Ry
     Harris-Foulkes estimate   =     -84.95778804 Ry
     estimated scf accuracy    <          6.4E-09 Ry

     The total energy is the sum of the following terms:

     one-electron contribution =      11.10331459 Ry
     hartree contribution      =       7.81844202 Ry
     xc contribution           =     -31.92233421 Ry
     ewald contribution        =     -71.95438534 Ry
     smearing contrib. (-TS)   =      -0.00282510 Ry

     convergence has been achieved in  32 iterations

     Forces acting on atoms (cartesian axes, Ry/au):

     atom    1 type  1   force =     0.00000000    0.00000000    0.00000000

     Total force =     0.000000     Total SCF correction =     0.000000


     Computing stress (Cartesian axis) and pressure

          total   stress  (Ry/bohr**3)                   (kbar)     P=  497.66
   0.00338300   0.00000000   0.00000000        497.66      0.00      0.00
   0.00000000   0.00338300  -0.00000000          0.00    497.66     -0.00
   0.00000000  -0.00000000   0.00338300          0.00     -0.00    497.66


     Writing output data file Au.save/

     init_run     :      0.22s CPU      0.23s WALL (       1 calls)
     electrons    :      2.03s CPU      2.10s WALL (       1 calls)
     forces       :      0.04s CPU      0.04s WALL (       1 calls)
     stress       :      0.14s CPU      0.14s WALL (       1 calls)

     Called by init_run:
     wfcinit      :      0.01s CPU      0.01s WALL (       1 calls)
     potinit      :      0.01s CPU      0.01s WALL (       1 calls)
     hinit0       :      0.18s CPU      0.19s WALL (       1 calls)

     Called by electrons:
     c_bands      :      0.96s CPU      1.00s WALL (      33 calls)
     sum_band     :      0.56s CPU      0.57s WALL (      33 calls)
     v_of_rho     :      0.17s CPU      0.18s WALL (      33 calls)
     newd         :      0.31s CPU      0.32s WALL (      33 calls)
     mix_rho      :      0.03s CPU      0.03s WALL (      33 calls)

     Called by c_bands:
     init_us_2    :      0.04s CPU      0.04s WALL (     207 calls)
     cegterg      :      0.91s CPU      0.95s WALL (      99 calls)

     Called by sum_band:
     sum_band:bec :      0.00s CPU      0.00s WALL (      99 calls)
     addusdens    :      0.30s CPU      0.30s WALL (      33 calls)

     Called by *egterg:
     h_psi        :      0.71s CPU      0.74s WALL (     310 calls)
     s_psi        :      0.02s CPU      0.02s WALL (     310 calls)
     g_psi        :      0.00s CPU      0.00s WALL (     208 calls)
     cdiaghg      :      0.07s CPU      0.07s WALL (     304 calls)

     Called by h_psi:
     h_psi:pot    :      0.70s CPU      0.74s WALL (     310 calls)
     h_psi:calbec :      0.04s CPU      0.04s WALL (     310 calls)
     vloc_psi     :      0.64s CPU      0.67s WALL (     310 calls)
     add_vuspsi   :      0.02s CPU      0.02s WALL (     310 calls)

     General routines
     calbec       :      0.06s CPU      0.06s WALL (     424 calls)
     fft          :      0.11s CPU      0.11s WALL (     390 calls)
     ffts         :      0.01s CPU      0.01s WALL (      33 calls)
     fftw         :      0.75s CPU      0.78s WALL (    5602 calls)

     Parallel routines
     fft_scatt_xy :      0.06s CPU      0.07s WALL (    6025 calls)
     fft_scatt_yz :      0.31s CPU      0.33s WALL (    6025 calls)

     PWSCF        :     3.59s CPU         3.71s WALL


   This run was terminated on:  12: 6:43  26Mar2024            

=------------------------------------------------------------------------------=
   JOB DONE.
=------------------------------------------------------------------------------=
