
     Program PWSCF v.6.3MaX starts on 26Mar2024 at 12: 2: 0 

     This program is part of the open-source Quantum ESPRESSO suite
     for quantum simulation of materials; please cite
         "P. Giannozzi et al., J. Phys.:Condens. Matter 21 395502 (2009);
         "P. Giannozzi et al., J. Phys.:Condens. Matter 29 465901 (2017);
          URL http://www.quantum-espresso.org", 
     in publications or presentations arising from this work. More details at
     http://www.quantum-espresso.org/quote

     Parallel version (MPI), running on     5 processors

     MPI processes distributed on     1 nodes
     R & G space division:  proc/nbgrp/npool/nimage =       5
     Waiting for input...
     Reading input from standard input

     Current dimensions of program PWSCF are:
     Max number of different atomic species (ntypx) = 10
     Max number of k-points (npk) =  40000
     Max angular momentum in pseudopotentials (lmaxx) =  3

     Subspace diagonalization in iterative solution of the eigenvalue problem:
     a serial algorithm will be used


     Parallelization info
     --------------------
     sticks:   dense  smooth     PW     G-vecs:    dense   smooth      PW
     Min         103     103     32                 1597     1597     290
     Max         104     104     33                 1600     1600     293
     Sum         517     517    163                 7991     7991    1459



     bravais-lattice index     =            2
     lattice parameter (alat)  =       7.7100  a.u.
     unit-cell volume          =     114.5785 (a.u.)^3
     number of atoms/cell      =            1
     number of atomic types    =            1
     number of electrons       =        11.00
     number of Kohn-Sham states=           10
     kinetic-energy cutoff     =      65.0000  Ry
     charge density cutoff     =     260.0000  Ry
     convergence threshold     =      1.0E-08
     mixing beta               =       0.7000
     number of iterations used =            8  plain     mixing
     Exchange-correlation      = PBE ( 1  4  3  4 0 0)

     celldm(1)=   7.710000  celldm(2)=   0.000000  celldm(3)=   0.000000
     celldm(4)=   0.000000  celldm(5)=   0.000000  celldm(6)=   0.000000

     crystal axes: (cart. coord. in units of alat)
               a(1) = (  -0.500000   0.000000   0.500000 )  
               a(2) = (   0.000000   0.500000   0.500000 )  
               a(3) = (  -0.500000   0.500000   0.000000 )  

     reciprocal axes: (cart. coord. in units 2 pi/alat)
               b(1) = ( -1.000000 -1.000000  1.000000 )  
               b(2) = (  1.000000  1.000000  1.000000 )  
               b(3) = ( -1.000000  1.000000 -1.000000 )  


     PseudoPot. # 1 for Au read from file:
     /home/lorenzo/pseudos/Au/Au.pbe-n-rrkjus_psl.1.0.0.UPF
     MD5 check sum: d7e77ba19504afed2c9b41c931dde4f0
     Pseudo is Ultrasoft + core correction, Zval = 11.0
     Generated using "atomic" code by A. Dal Corso v.6.3
     Using radial grid of 1279 points,  6 beta functions with: 
                l(1) =   0
                l(2) =   0
                l(3) =   1
                l(4) =   1
                l(5) =   2
                l(6) =   2
     Q(r) pseudized with 0 coefficients 


     atomic species   valence    mass     pseudopotential
        Au            11.00   196.96600     Au( 1.00)

     48 Sym. Ops., with inversion, found



   Cartesian axes

     site n.     atom                  positions (alat units)
         1           Au  tau(   1) = (   0.0000000   0.0000000   0.0000000  )

     number of k points=    29  gaussian smearing, width (Ry)=  0.0100
                       cart. coord. in units 2pi/alat
        k(    1) = (   0.0000000   0.0000000   0.0000000), wk =   0.0039062
        k(    2) = (  -0.1250000   0.1250000  -0.1250000), wk =   0.0312500
        k(    3) = (  -0.2500000   0.2500000  -0.2500000), wk =   0.0312500
        k(    4) = (  -0.3750000   0.3750000  -0.3750000), wk =   0.0312500
        k(    5) = (   0.5000000  -0.5000000   0.5000000), wk =   0.0156250
        k(    6) = (   0.0000000   0.2500000   0.0000000), wk =   0.0234375
        k(    7) = (  -0.1250000   0.3750000  -0.1250000), wk =   0.0937500
        k(    8) = (  -0.2500000   0.5000000  -0.2500000), wk =   0.0937500
        k(    9) = (   0.6250000  -0.3750000   0.6250000), wk =   0.0937500
        k(   10) = (   0.5000000  -0.2500000   0.5000000), wk =   0.0937500
        k(   11) = (   0.3750000  -0.1250000   0.3750000), wk =   0.0937500
        k(   12) = (   0.2500000   0.0000000   0.2500000), wk =   0.0468750
        k(   13) = (   0.0000000   0.5000000   0.0000000), wk =   0.0234375
        k(   14) = (  -0.1250000   0.6250000  -0.1250000), wk =   0.0937500
        k(   15) = (   0.7500000  -0.2500000   0.7500000), wk =   0.0937500
        k(   16) = (   0.6250000  -0.1250000   0.6250000), wk =   0.0937500
        k(   17) = (   0.5000000   0.0000000   0.5000000), wk =   0.0468750
        k(   18) = (   0.0000000   0.7500000   0.0000000), wk =   0.0234375
        k(   19) = (   0.8750000  -0.1250000   0.8750000), wk =   0.0937500
        k(   20) = (   0.7500000   0.0000000   0.7500000), wk =   0.0468750
        k(   21) = (   0.0000000  -1.0000000   0.0000000), wk =   0.0117188
        k(   22) = (  -0.2500000   0.5000000   0.0000000), wk =   0.0937500
        k(   23) = (   0.6250000  -0.3750000   0.8750000), wk =   0.1875000
        k(   24) = (   0.5000000  -0.2500000   0.7500000), wk =   0.0937500
        k(   25) = (   0.7500000  -0.2500000   1.0000000), wk =   0.0937500
        k(   26) = (   0.6250000  -0.1250000   0.8750000), wk =   0.1875000
        k(   27) = (   0.5000000   0.0000000   0.7500000), wk =   0.0937500
        k(   28) = (  -0.2500000  -1.0000000   0.0000000), wk =   0.0468750
        k(   29) = (  -0.5000000  -1.0000000   0.0000000), wk =   0.0234375

     Dense  grid:     7991 G-vectors     FFT dimensions: (  27,  27,  27)

     Estimated max dynamical RAM per process >       8.44 MB

     Estimated total dynamical RAM >      42.20 MB

     Initial potential from superposition of free atoms

     starting charge   10.99989, renormalised to   11.00000
     Starting wfcs are    9 randomized atomic wfcs +    1 random wfcs

     total cpu time spent up to now is        1.2 secs

     Self-consistent Calculation

     iteration #  1     ecut=    65.00 Ry     beta= 0.70
     Davidson diagonalization with overlap
     ethr =  1.00E-02,  avg # of iterations =  5.5

     Threshold (ethr) on eigenvalues was too large:
     Diagonalizing with lowered threshold

     Davidson diagonalization with overlap
     ethr =  4.64E-04,  avg # of iterations =  2.1

     total cpu time spent up to now is        2.2 secs

     total energy              =     -85.36819708 Ry
     Harris-Foulkes estimate   =     -85.40064111 Ry
     estimated scf accuracy    <       0.05143318 Ry

     iteration #  2     ecut=    65.00 Ry     beta= 0.70
     Davidson diagonalization with overlap
     ethr =  4.68E-04,  avg # of iterations =  2.5

     total cpu time spent up to now is        2.5 secs

     total energy              =     -85.38188982 Ry
     Harris-Foulkes estimate   =     -85.38863906 Ry
     estimated scf accuracy    <       0.01076393 Ry

     iteration #  3     ecut=    65.00 Ry     beta= 0.70
     Davidson diagonalization with overlap
     ethr =  9.79E-05,  avg # of iterations =  2.4

     total cpu time spent up to now is        2.9 secs

     total energy              =     -85.38442924 Ry
     Harris-Foulkes estimate   =     -85.38447458 Ry
     estimated scf accuracy    <       0.00017083 Ry

     iteration #  4     ecut=    65.00 Ry     beta= 0.70
     Davidson diagonalization with overlap
     ethr =  1.55E-06,  avg # of iterations =  3.9

     total cpu time spent up to now is        3.5 secs

     total energy              =     -85.38455777 Ry
     Harris-Foulkes estimate   =     -85.38460786 Ry
     estimated scf accuracy    <       0.00009502 Ry

     iteration #  5     ecut=    65.00 Ry     beta= 0.70
     Davidson diagonalization with overlap
     ethr =  8.64E-07,  avg # of iterations =  1.0

     total cpu time spent up to now is        3.9 secs

     total energy              =     -85.38456500 Ry
     Harris-Foulkes estimate   =     -85.38456822 Ry
     estimated scf accuracy    <       0.00000530 Ry

     iteration #  6     ecut=    65.00 Ry     beta= 0.70
     Davidson diagonalization with overlap
     ethr =  4.82E-08,  avg # of iterations =  3.1

     total cpu time spent up to now is        4.5 secs

     total energy              =     -85.38456931 Ry
     Harris-Foulkes estimate   =     -85.38456960 Ry
     estimated scf accuracy    <       0.00000090 Ry

     iteration #  7     ecut=    65.00 Ry     beta= 0.70
     Davidson diagonalization with overlap
     ethr =  8.20E-09,  avg # of iterations =  1.0

     total cpu time spent up to now is        4.7 secs

     total energy              =     -85.38456919 Ry
     Harris-Foulkes estimate   =     -85.38456935 Ry
     estimated scf accuracy    <       0.00000026 Ry

     iteration #  8     ecut=    65.00 Ry     beta= 0.70
     Davidson diagonalization with overlap
     ethr =  2.32E-09,  avg # of iterations =  2.6

     total cpu time spent up to now is        5.0 secs

     total energy              =     -85.38456928 Ry
     Harris-Foulkes estimate   =     -85.38456929 Ry
     estimated scf accuracy    <       0.00000002 Ry

     iteration #  9     ecut=    65.00 Ry     beta= 0.70
     Davidson diagonalization with overlap
     ethr =  2.19E-10,  avg # of iterations =  2.1

     total cpu time spent up to now is        5.3 secs

     End of self-consistent calculation

          k = 0.0000 0.0000 0.0000 (   965 PWs)   bands (ev):

     6.0960  11.3166  11.3166  11.3166  12.8481  12.8481  31.3955  35.2605
    35.2605  35.2605

          k =-0.1250 0.1250-0.1250 (   989 PWs)   bands (ev):

     6.6284  11.1638  11.4836  11.4836  12.7902  12.7902  31.6325  32.5542
    35.7549  35.7549

          k =-0.2500 0.2500-0.2500 (  1001 PWs)   bands (ev):

     7.9022  11.1781  11.5995  11.5995  13.0183  13.0183  27.3095  32.3246
    36.1744  36.1744

          k =-0.3750 0.3750-0.3750 (  1014 PWs)   bands (ev):

     8.6165  11.3943  11.3943  12.8217  13.6999  13.6999  22.3278  31.2041
    34.5556  34.5556

          k = 0.5000-0.5000 0.5000 (  1008 PWs)   bands (ev):

     8.6618  11.2777  11.2777  14.0616  14.0616  15.0236  19.1130  30.6834
    33.6229  33.6229

          k = 0.0000 0.2500 0.0000 (   994 PWs)   bands (ev):

     6.8099  10.9606  11.6454  11.6454  12.4750  13.0074  32.1627  33.5014
    34.2764  34.2764

          k =-0.1250 0.3750-0.1250 (  1002 PWs)   bands (ev):

     7.8934  10.6863  11.7117  11.9160  12.6167  13.2586  29.2808  32.7474
    33.2504  35.3793

          k =-0.2500 0.5000-0.2500 (  1004 PWs)   bands (ev):

     8.9112  11.2071  11.3030  11.8090  13.8275  13.9750  24.1612  31.7474
    32.3604  33.9012

          k = 0.6250-0.3750 0.6250 (  1015 PWs)   bands (ev):

     9.0419  11.0449  11.6119  12.5044  14.0866  16.3390  19.6958  30.6373
    32.2955  32.3520

          k = 0.5000-0.2500 0.5000 (  1016 PWs)   bands (ev):

     9.0671  11.1249  11.6055  12.3714  13.6055  15.6361  21.0971  30.1585
    32.1175  34.0506

          k = 0.3750-0.1250 0.3750 (  1008 PWs)   bands (ev):

     8.7256  10.9831  11.5026  11.8233  12.7379  14.1070  25.8788  30.5498
    33.5141  37.2148

          k = 0.2500 0.0000 0.2500 (   997 PWs)   bands (ev):

     7.4529  10.9003  11.6644  11.7581  12.4464  13.1849  30.3325  31.5218
    34.6422  36.7061

          k = 0.0000 0.5000 0.0000 (   998 PWs)   bands (ev):

     8.5297  10.1840  12.0122  12.5631  12.5631  13.4076  30.9853  30.9853
    32.3393  33.1621

          k =-0.1250 0.6250-0.1250 (  1018 PWs)   bands (ev):

     9.2829  10.0042  11.8007  12.7365  13.8861  14.1265  26.2945  29.6380
    29.8952  33.4882

          k = 0.7500-0.2500 0.7500 (  1014 PWs)   bands (ev):

     9.5313  10.4480  11.6620  12.5111  14.1518  17.0582  21.4904  27.6324
    29.7100  33.1955

          k = 0.6250-0.1250 0.6250 (  1009 PWs)   bands (ev):

     9.8081  10.7246  11.5589  12.3278  13.6477  17.9385  20.9010  25.9796
    31.5041  32.8994

          k = 0.5000 0.0000 0.5000 (  1019 PWs)   bands (ev):

     9.8889  10.7727  11.1132  12.2437  12.8430  15.7476  24.6485  26.3000
    33.0808  34.4769

          k = 0.0000 0.7500 0.0000 (  1026 PWs)   bands (ev):

     9.1012   9.4977  13.7543  13.7543  13.8322  14.0477  26.0936  27.6512
    27.6512  32.8750

          k = 0.8750-0.1250 0.8750 (  1011 PWs)   bands (ev):

     9.1847   9.5256  13.1854  13.5810  14.2469  17.1623  22.7088  25.5296
    27.2654  33.9578

          k = 0.7500 0.0000 0.7500 (  1011 PWs)   bands (ev):

     9.5306  10.1539  12.1727  13.1392  13.9382  19.9374  20.7076  23.4756
    28.8044  33.7900

          k = 0.0000-1.0000 0.0000 (   998 PWs)   bands (ev):

     8.9129   9.2344  14.0161  14.3877  14.3877  17.0312  21.8186  26.2319
    26.2319  33.2384

          k =-0.2500 0.5000 0.0000 (  1019 PWs)   bands (ev):

     9.0219  10.3944  11.3579  12.5649  12.6533  14.1460  27.4665  29.1692
    32.5845  35.6604

          k = 0.6250-0.3750 0.8750 (  1018 PWs)   bands (ev):

     9.6862  10.8198  11.0221  12.3665  13.5664  15.8960  23.0878  28.0684
    30.5833  35.0300

          k = 0.5000-0.2500 0.7500 (  1010 PWs)   bands (ev):

     9.6886  10.6378  11.7475  12.1596  13.9237  18.6695  19.1215  28.3176
    29.3522  34.2699

          k = 0.7500-0.2500 1.0000 (  1026 PWs)   bands (ev):

     9.6061   9.8555  11.8324  13.4494  13.7449  16.1626  24.4668  26.3733
    27.8509  35.8332

          k = 0.6250-0.1250 0.8750 (  1015 PWs)   bands (ev):

     9.8493  10.2941  11.5065  12.9225  14.1080  19.1863  21.2302  24.8304
    27.2119  35.9092

          k = 0.5000 0.0000 0.7500 (  1017 PWs)   bands (ev):

    10.2950  10.5900  10.8675  12.7119  13.7475  18.0978  23.2161  23.6107
    28.7396  35.9693

          k =-0.2500-1.0000 0.0000 (  1012 PWs)   bands (ev):

     9.3711   9.6411  12.7287  13.4682  14.3887  19.1773  21.2690  25.0893
    25.7564  36.0577

          k =-0.5000-1.0000 0.0000 (  1036 PWs)   bands (ev):

    10.0246  10.8407  10.8407  12.7003  14.3896  20.8137  22.3603  22.3603
    25.4772  39.4568

     the Fermi energy is    15.9906 ev

!    total energy              =     -85.38456928 Ry
     Harris-Foulkes estimate   =     -85.38456928 Ry
     estimated scf accuracy    <          1.5E-09 Ry

     The total energy is the sum of the following terms:

     one-electron contribution =      11.07999105 Ry
     hartree contribution      =       7.59644560 Ry
     xc contribution           =     -32.10623475 Ry
     ewald contribution        =     -71.95438534 Ry
     smearing contrib. (-TS)   =      -0.00038584 Ry

     convergence has been achieved in   9 iterations

     Forces acting on atoms (cartesian axes, Ry/au):

     atom    1 type  1   force =     0.00000000    0.00000000    0.00000000

     Total force =     0.000000     Total SCF correction =     0.000000


     Computing stress (Cartesian axis) and pressure

          total   stress  (Ry/bohr**3)                   (kbar)     P=  113.65
   0.00077260   0.00000000  -0.00000000        113.65      0.00     -0.00
   0.00000000   0.00077260  -0.00000000          0.00    113.65     -0.00
  -0.00000000   0.00000000   0.00077260         -0.00      0.00    113.65


     Writing output data file Au.save/

     init_run     :      0.35s CPU      0.36s WALL (       1 calls)
     electrons    :      3.90s CPU      4.06s WALL (       1 calls)
     forces       :      0.06s CPU      0.06s WALL (       1 calls)
     stress       :      0.15s CPU      0.15s WALL (       1 calls)

     Called by init_run:
     wfcinit      :      0.15s CPU      0.16s WALL (       1 calls)
     potinit      :      0.01s CPU      0.01s WALL (       1 calls)
     hinit0       :      0.18s CPU      0.18s WALL (       1 calls)

     Called by electrons:
     c_bands      :      3.19s CPU      3.32s WALL (      10 calls)
     sum_band     :      0.59s CPU      0.62s WALL (      10 calls)
     v_of_rho     :      0.05s CPU      0.05s WALL (      10 calls)
     newd         :      0.09s CPU      0.09s WALL (      10 calls)
     mix_rho      :      0.01s CPU      0.01s WALL (      10 calls)

     Called by c_bands:
     init_us_2    :      0.09s CPU      0.09s WALL (     667 calls)
     cegterg      :      3.05s CPU      3.17s WALL (     290 calls)

     Called by sum_band:
     sum_band:bec :      0.00s CPU      0.00s WALL (     290 calls)
     addusdens    :      0.08s CPU      0.08s WALL (      10 calls)

     Called by *egterg:
     h_psi        :      2.36s CPU      2.46s WALL (    1080 calls)
     s_psi        :      0.08s CPU      0.08s WALL (    1080 calls)
     g_psi        :      0.01s CPU      0.01s WALL (     761 calls)
     cdiaghg      :      0.28s CPU      0.29s WALL (    1022 calls)

     Called by h_psi:
     h_psi:pot    :      2.35s CPU      2.45s WALL (    1080 calls)
     h_psi:calbec :      0.12s CPU      0.13s WALL (    1080 calls)
     vloc_psi     :      2.14s CPU      2.22s WALL (    1080 calls)
     add_vuspsi   :      0.08s CPU      0.08s WALL (    1080 calls)

     General routines
     calbec       :      0.19s CPU      0.20s WALL (    1515 calls)
     fft          :      0.03s CPU      0.04s WALL (     137 calls)
     ffts         :      0.00s CPU      0.00s WALL (      10 calls)
     fftw         :      2.38s CPU      2.48s WALL (   18550 calls)

     Parallel routines
     fft_scatt_xy :      0.19s CPU      0.20s WALL (   18697 calls)
     fft_scatt_yz :      0.66s CPU      0.69s WALL (   18697 calls)

     PWSCF        :     5.35s CPU         5.58s WALL


   This run was terminated on:  12: 2: 5  26Mar2024            

=------------------------------------------------------------------------------=
   JOB DONE.
=------------------------------------------------------------------------------=
