
     Program PWSCF v.6.3MaX starts on 26Mar2024 at 11:35:55 

     This program is part of the open-source Quantum ESPRESSO suite
     for quantum simulation of materials; please cite
         "P. Giannozzi et al., J. Phys.:Condens. Matter 21 395502 (2009);
         "P. Giannozzi et al., J. Phys.:Condens. Matter 29 465901 (2017);
          URL http://www.quantum-espresso.org", 
     in publications or presentations arising from this work. More details at
     http://www.quantum-espresso.org/quote

     Parallel version (MPI), running on     5 processors

     MPI processes distributed on     1 nodes
     R & G space division:  proc/nbgrp/npool/nimage =       5
     Waiting for input...
     Reading input from standard input

     Current dimensions of program PWSCF are:
     Max number of different atomic species (ntypx) = 10
     Max number of k-points (npk) =  40000
     Max angular momentum in pseudopotentials (lmaxx) =  3
               file Au.pbesol-n-kjpaw_psl.1.0.0.UPF: wavefunction(s)  6S 5D renormalized

     Subspace diagonalization in iterative solution of the eigenvalue problem:
     a serial algorithm will be used


     Parallelization info
     --------------------
     sticks:   dense  smooth     PW     G-vecs:    dense   smooth      PW
     Min          73      73     24                  928      928     178
     Max          74      74     25                  930      930     181
     Sum         367     367    121                 4645     4645     893



     bravais-lattice index     =            2
     lattice parameter (alat)  =       7.7100  a.u.
     unit-cell volume          =     114.5785 (a.u.)^3
     number of atoms/cell      =            1
     number of atomic types    =            1
     number of electrons       =        11.00
     number of Kohn-Sham states=           10
     kinetic-energy cutoff     =      45.0000  Ry
     charge density cutoff     =     180.0000  Ry
     convergence threshold     =      1.0E-08
     mixing beta               =       0.7000
     number of iterations used =            8  plain     mixing
     Exchange-correlation      = SLA PW PSX PSC ( 1  4 10  8 0 0)

     celldm(1)=   7.710000  celldm(2)=   0.000000  celldm(3)=   0.000000
     celldm(4)=   0.000000  celldm(5)=   0.000000  celldm(6)=   0.000000

     crystal axes: (cart. coord. in units of alat)
               a(1) = (  -0.500000   0.000000   0.500000 )  
               a(2) = (   0.000000   0.500000   0.500000 )  
               a(3) = (  -0.500000   0.500000   0.000000 )  

     reciprocal axes: (cart. coord. in units 2 pi/alat)
               b(1) = ( -1.000000 -1.000000  1.000000 )  
               b(2) = (  1.000000  1.000000  1.000000 )  
               b(3) = ( -1.000000  1.000000 -1.000000 )  


     PseudoPot. # 1 for Au read from file:
     /home/lorenzo/pseudos/Au/Au.pbesol-n-kjpaw_psl.1.0.0.UPF
     MD5 check sum: abc371be705c47a6b6a6b4088b452d3e
     Pseudo is Projector augmented-wave + core cor, Zval = 11.0
     Generated using "atomic" code by A. Dal Corso v.6.3
     Shape of augmentation charge: PSQ
     Using radial grid of 1279 points,  6 beta functions with: 
                l(1) =   0
                l(2) =   0
                l(3) =   1
                l(4) =   1
                l(5) =   2
                l(6) =   2
     Q(r) pseudized with 0 coefficients 


     atomic species   valence    mass     pseudopotential
        Au            11.00   196.96600     Au( 1.00)

     48 Sym. Ops., with inversion, found



   Cartesian axes

     site n.     atom                  positions (alat units)
         1           Au  tau(   1) = (   0.0000000   0.0000000   0.0000000  )

     number of k points=    47  gaussian smearing, width (Ry)=  0.0100
                       cart. coord. in units 2pi/alat
        k(    1) = (   0.0000000   0.0000000   0.0000000), wk =   0.0020000
        k(    2) = (  -0.1000000   0.1000000  -0.1000000), wk =   0.0160000
        k(    3) = (  -0.2000000   0.2000000  -0.2000000), wk =   0.0160000
        k(    4) = (  -0.3000000   0.3000000  -0.3000000), wk =   0.0160000
        k(    5) = (  -0.4000000   0.4000000  -0.4000000), wk =   0.0160000
        k(    6) = (   0.5000000  -0.5000000   0.5000000), wk =   0.0080000
        k(    7) = (   0.0000000   0.2000000   0.0000000), wk =   0.0120000
        k(    8) = (  -0.1000000   0.3000000  -0.1000000), wk =   0.0480000
        k(    9) = (  -0.2000000   0.4000000  -0.2000000), wk =   0.0480000
        k(   10) = (  -0.3000000   0.5000000  -0.3000000), wk =   0.0480000
        k(   11) = (   0.6000000  -0.4000000   0.6000000), wk =   0.0480000
        k(   12) = (   0.5000000  -0.3000000   0.5000000), wk =   0.0480000
        k(   13) = (   0.4000000  -0.2000000   0.4000000), wk =   0.0480000
        k(   14) = (   0.3000000  -0.1000000   0.3000000), wk =   0.0480000
        k(   15) = (   0.2000000   0.0000000   0.2000000), wk =   0.0240000
        k(   16) = (   0.0000000   0.4000000   0.0000000), wk =   0.0120000
        k(   17) = (  -0.1000000   0.5000000  -0.1000000), wk =   0.0480000
        k(   18) = (  -0.2000000   0.6000000  -0.2000000), wk =   0.0480000
        k(   19) = (   0.7000000  -0.3000000   0.7000000), wk =   0.0480000
        k(   20) = (   0.6000000  -0.2000000   0.6000000), wk =   0.0480000
        k(   21) = (   0.5000000  -0.1000000   0.5000000), wk =   0.0480000
        k(   22) = (   0.4000000   0.0000000   0.4000000), wk =   0.0240000
        k(   23) = (   0.0000000   0.6000000   0.0000000), wk =   0.0120000
        k(   24) = (  -0.1000000   0.7000000  -0.1000000), wk =   0.0480000
        k(   25) = (   0.8000000  -0.2000000   0.8000000), wk =   0.0480000
        k(   26) = (   0.7000000  -0.1000000   0.7000000), wk =   0.0480000
        k(   27) = (   0.6000000  -0.0000000   0.6000000), wk =   0.0240000
        k(   28) = (   0.0000000   0.8000000   0.0000000), wk =   0.0120000
        k(   29) = (   0.9000000  -0.1000000   0.9000000), wk =   0.0480000
        k(   30) = (   0.8000000   0.0000000   0.8000000), wk =   0.0240000
        k(   31) = (   0.0000000  -1.0000000   0.0000000), wk =   0.0060000
        k(   32) = (  -0.2000000   0.4000000   0.0000000), wk =   0.0480000
        k(   33) = (  -0.3000000   0.5000000  -0.1000000), wk =   0.0960000
        k(   34) = (   0.6000000  -0.4000000   0.8000000), wk =   0.0960000
        k(   35) = (   0.5000000  -0.3000000   0.7000000), wk =   0.0480000
        k(   36) = (  -0.2000000   0.6000000   0.0000000), wk =   0.0480000
        k(   37) = (   0.7000000  -0.3000000   0.9000000), wk =   0.0960000
        k(   38) = (   0.6000000  -0.2000000   0.8000000), wk =   0.0960000
        k(   39) = (   0.5000000  -0.1000000   0.7000000), wk =   0.0960000
        k(   40) = (   0.4000000   0.0000000   0.6000000), wk =   0.0480000
        k(   41) = (   0.8000000  -0.2000000   1.0000000), wk =   0.0480000
        k(   42) = (   0.7000000  -0.1000000   0.9000000), wk =   0.0960000
        k(   43) = (   0.6000000   0.0000000   0.8000000), wk =   0.0480000
        k(   44) = (  -0.2000000  -1.0000000   0.0000000), wk =   0.0240000
        k(   45) = (   0.6000000  -0.2000000   1.0000000), wk =   0.0480000
        k(   46) = (   0.5000000  -0.1000000   0.9000000), wk =   0.0480000
        k(   47) = (  -0.4000000  -1.0000000   0.0000000), wk =   0.0240000

     Dense  grid:     4645 G-vectors     FFT dimensions: (  24,  24,  24)

     Estimated max dynamical RAM per process >       5.64 MB

     Estimated total dynamical RAM >      28.20 MB

     Initial potential from superposition of free atoms

     starting charge   10.99990, renormalised to   11.00000
     Starting wfcs are    9 randomized atomic wfcs +    1 random wfcs
     Checking if some PAW data can be deallocated... 

     total cpu time spent up to now is        1.2 secs

     Self-consistent Calculation

     iteration #  1     ecut=    45.00 Ry     beta= 0.70
     Davidson diagonalization with overlap
     ethr =  1.00E-02,  avg # of iterations =  5.3

     Threshold (ethr) on eigenvalues was too large:
     Diagonalizing with lowered threshold

     Davidson diagonalization with overlap
     ethr =  5.64E-04,  avg # of iterations =  1.7

     total cpu time spent up to now is        2.3 secs

     total energy              =    -764.66902626 Ry
     Harris-Foulkes estimate   =    -764.70042234 Ry
     estimated scf accuracy    <       0.06341930 Ry

     iteration #  2     ecut=    45.00 Ry     beta= 0.70
     Davidson diagonalization with overlap
     ethr =  5.77E-04,  avg # of iterations =  4.4

     total cpu time spent up to now is        2.9 secs

     total energy              =    -714.51622714 Ry
     Harris-Foulkes estimate   =    -935.72696472 Ry
     estimated scf accuracy    <  158177.19094734 Ry

     iteration #  3     ecut=    45.00 Ry     beta= 0.70
     Davidson diagonalization with overlap
     ethr =  5.77E-04,  avg # of iterations =  7.9

     total cpu time spent up to now is        3.7 secs

     total energy              =    -764.67557628 Ry
     Harris-Foulkes estimate   =    -764.68880099 Ry
     estimated scf accuracy    <       0.02782561 Ry

     iteration #  4     ecut=    45.00 Ry     beta= 0.70
     Davidson diagonalization with overlap
     ethr =  2.53E-04,  avg # of iterations =  1.3

     total cpu time spent up to now is        4.1 secs

     total energy              =    -764.67973503 Ry
     Harris-Foulkes estimate   =    -764.67988757 Ry
     estimated scf accuracy    <       0.00532238 Ry

     iteration #  5     ecut=    45.00 Ry     beta= 0.70
     Davidson diagonalization with overlap
     ethr =  4.84E-05,  avg # of iterations =  2.8

     total cpu time spent up to now is        4.6 secs

     total energy              =    -764.68040371 Ry
     Harris-Foulkes estimate   =    -764.68047126 Ry
     estimated scf accuracy    <       0.00284359 Ry

     iteration #  6     ecut=    45.00 Ry     beta= 0.70
     Davidson diagonalization with overlap
     ethr =  2.59E-05,  avg # of iterations =  1.4

     total cpu time spent up to now is        5.1 secs

     total energy              =    -764.68043881 Ry
     Harris-Foulkes estimate   =    -764.68046451 Ry
     estimated scf accuracy    <       0.00275929 Ry

     iteration #  7     ecut=    45.00 Ry     beta= 0.70
     Davidson diagonalization with overlap
     ethr =  2.51E-05,  avg # of iterations =  1.1

     total cpu time spent up to now is        5.6 secs

     total energy              =    -764.68045593 Ry
     Harris-Foulkes estimate   =    -764.68047001 Ry
     estimated scf accuracy    <       0.00288932 Ry

     iteration #  8     ecut=    45.00 Ry     beta= 0.70
     Davidson diagonalization with overlap
     ethr =  2.51E-05,  avg # of iterations =  1.0

     total cpu time spent up to now is        5.9 secs

     total energy              =    -764.68046356 Ry
     Harris-Foulkes estimate   =    -764.68046456 Ry
     estimated scf accuracy    <       0.00287302 Ry

     iteration #  9     ecut=    45.00 Ry     beta= 0.70
     Davidson diagonalization with overlap
     ethr =  2.51E-05,  avg # of iterations =  1.0

     total cpu time spent up to now is        6.3 secs

     total energy              =    -764.68046431 Ry
     Harris-Foulkes estimate   =    -764.68046593 Ry
     estimated scf accuracy    <       0.00287732 Ry

     iteration # 10     ecut=    45.00 Ry     beta= 0.70
     Davidson diagonalization with overlap
     ethr =  2.51E-05,  avg # of iterations =  1.0

     total cpu time spent up to now is        6.6 secs

     total energy              =    -764.68046272 Ry
     Harris-Foulkes estimate   =    -764.68046536 Ry
     estimated scf accuracy    <       0.00286374 Ry

     iteration # 11     ecut=    45.00 Ry     beta= 0.70
     Davidson diagonalization with overlap
     ethr =  2.51E-05,  avg # of iterations =  1.0

     total cpu time spent up to now is        7.0 secs

     total energy              =    -764.68055080 Ry
     Harris-Foulkes estimate   =    -764.68046349 Ry
     estimated scf accuracy    <       0.00284353 Ry

     iteration # 12     ecut=    45.00 Ry     beta= 0.70
     Davidson diagonalization with overlap
     ethr =  2.51E-05,  avg # of iterations =  1.3

     total cpu time spent up to now is        7.4 secs

     total energy              =    -764.67991953 Ry
     Harris-Foulkes estimate   =    -764.68071185 Ry
     estimated scf accuracy    <       0.00269777 Ry

     iteration # 13     ecut=    45.00 Ry     beta= 0.70
     Davidson diagonalization with overlap
     ethr =  2.45E-05,  avg # of iterations =  2.7

     total cpu time spent up to now is        7.8 secs

     total energy              =    -764.68025748 Ry
     Harris-Foulkes estimate   =    -764.68025546 Ry
     estimated scf accuracy    <       0.00002442 Ry

     iteration # 14     ecut=    45.00 Ry     beta= 0.70
     Davidson diagonalization with overlap
     ethr =  2.22E-07,  avg # of iterations =  3.2

     total cpu time spent up to now is        8.3 secs

     total energy              =    -764.68023665 Ry
     Harris-Foulkes estimate   =    -764.68026883 Ry
     estimated scf accuracy    <       0.00008624 Ry

     iteration # 15     ecut=    45.00 Ry     beta= 0.70
     Davidson diagonalization with overlap
     ethr =  2.22E-07,  avg # of iterations =  3.3

     total cpu time spent up to now is        8.8 secs

     total energy              =    -764.68024592 Ry
     Harris-Foulkes estimate   =    -764.68027457 Ry
     estimated scf accuracy    <       0.00017439 Ry

     iteration # 16     ecut=    45.00 Ry     beta= 0.70
     Davidson diagonalization with overlap
     ethr =  2.22E-07,  avg # of iterations =  2.4

     total cpu time spent up to now is        9.3 secs

     total energy              =    -764.68026024 Ry
     Harris-Foulkes estimate   =    -764.68026035 Ry
     estimated scf accuracy    <       0.00000048 Ry

     iteration # 17     ecut=    45.00 Ry     beta= 0.70
     Davidson diagonalization with overlap
     ethr =  4.37E-09,  avg # of iterations =  2.5

     total cpu time spent up to now is        9.7 secs

     total energy              =    -764.68026034 Ry
     Harris-Foulkes estimate   =    -764.68026034 Ry
     estimated scf accuracy    <       0.00000008 Ry

     iteration # 18     ecut=    45.00 Ry     beta= 0.70
     Davidson diagonalization with overlap
     ethr =  6.86E-10,  avg # of iterations =  3.1

     total cpu time spent up to now is       10.2 secs

     total energy              =    -764.68026034 Ry
     Harris-Foulkes estimate   =    -764.68026037 Ry
     estimated scf accuracy    <       0.00000021 Ry

     iteration # 19     ecut=    45.00 Ry     beta= 0.70
     Davidson diagonalization with overlap
     ethr =  6.86E-10,  avg # of iterations =  1.6

     total cpu time spent up to now is       10.6 secs

     total energy              =    -764.68026032 Ry
     Harris-Foulkes estimate   =    -764.68026035 Ry
     estimated scf accuracy    <       0.00000016 Ry

     iteration # 20     ecut=    45.00 Ry     beta= 0.70
     Davidson diagonalization with overlap
     ethr =  6.86E-10,  avg # of iterations =  2.4

     total cpu time spent up to now is       11.1 secs

     total energy              =    -764.68026034 Ry
     Harris-Foulkes estimate   =    -764.68026034 Ry
     estimated scf accuracy    <       0.00000001 Ry

     iteration # 21     ecut=    45.00 Ry     beta= 0.70
     Davidson diagonalization with overlap
     ethr =  1.28E-10,  avg # of iterations =  1.1

     total cpu time spent up to now is       11.5 secs

     End of self-consistent calculation

          k = 0.0000 0.0000 0.0000 (   561 PWs)   bands (ev):

     5.8123  11.0840  11.0840  11.0840  12.6235  12.6235  31.1306  34.9844
    34.9844  34.9844

          k =-0.1000 0.1000-0.1000 (   576 PWs)   bands (ev):

     6.1575  10.9774  11.1986  11.1986  12.5779  12.5779  31.4470  32.8993
    35.3137  35.3137

          k =-0.2000 0.2000-0.2000 (   582 PWs)   bands (ev):

     7.0833  10.8376  11.3735  11.3735  12.6219  12.6219  29.0439  32.2430
    35.9486  35.9486

          k =-0.3000 0.3000-0.3000 (   589 PWs)   bands (ev):

     8.0613  11.3009  11.3009  11.3163  13.0498  13.0498  25.0432  31.6446
    35.4123  35.4123

          k =-0.4000 0.4000-0.4000 (   589 PWs)   bands (ev):

     8.3937  11.1252  11.1252  13.0905  13.5944  13.5944  21.1647  30.7526
    33.9593  33.9593

          k = 0.5000-0.5000 0.5000 (   580 PWs)   bands (ev):

     8.4152  11.0482  11.0482  13.8353  13.8353  14.7341  18.8713  30.4103
    33.3324  33.3324

          k = 0.0000 0.2000 0.0000 (   569 PWs)   bands (ev):

     6.2741  10.8490  11.2954  11.2954  12.3744  12.7269  31.6547  33.5988
    34.4236  34.4236

          k =-0.1000 0.3000-0.1000 (   579 PWs)   bands (ev):

     7.0215  10.6214  11.4908  11.5250  12.2533  12.8521  30.5124  32.3657
    33.8573  35.3572

          k =-0.2000 0.4000-0.2000 (   584 PWs)   bands (ev):

     8.0702  10.6624  11.3139  11.5627  12.8205  13.2117  26.5646  32.0932
    33.1876  35.2791

          k =-0.3000 0.5000-0.3000 (   590 PWs)   bands (ev):

     8.6095  11.0294  11.4030  11.5936  13.6816  14.0179  22.5232  31.1449
    32.4971  33.6376

          k = 0.6000-0.4000 0.6000 (   583 PWs)   bands (ev):

     8.6669  10.8898  11.2642  12.6177  13.8515  15.8063  19.2278  30.5162
    32.2566  32.4715

          k = 0.5000-0.3000 0.5000 (   581 PWs)   bands (ev):

     8.6755  10.9426  11.2617  12.5310  13.5325  15.3022  20.1889  30.4076
    31.8989  33.5938

          k = 0.4000-0.2000 0.4000 (   585 PWs)   bands (ev):

     8.5364  11.0833  11.3950  11.4096  12.8878  14.0351  23.8701  30.7844
    32.6912  35.8336

          k = 0.3000-0.1000 0.3000 (   574 PWs)   bands (ev):

     7.7369  10.6548  11.3983  11.5690  12.3166  13.2289  27.8759  31.3632
    34.2218  36.2205

          k = 0.2000 0.0000 0.2000 (   574 PWs)   bands (ev):

     6.7074  10.7846  11.3714  11.3829  12.3374  12.7664  31.2782  31.6756
    34.2623  36.7486

          k = 0.0000 0.4000 0.0000 (   576 PWs)   bands (ev):

     7.5274  10.2773  11.8595  11.9043  11.9043  13.0047  32.2244  32.2244
    32.3507  32.9548

          k =-0.1000 0.5000-0.1000 (   582 PWs)   bands (ev):

     8.4046  10.0387  11.4438  12.1443  12.7762  13.3017  28.3613  31.0023
    32.0330  33.4509

          k =-0.2000 0.6000-0.2000 (   592 PWs)   bands (ev):

     9.0531  10.2765  11.1245  12.0509  13.7501  14.3313  24.1652  30.2389
    30.3187  33.0006

          k = 0.7000-0.3000 0.7000 (   582 PWs)   bands (ev):

     9.1905  10.5430  11.4255  11.8714  13.8960  16.6187  20.4103  28.6573
    30.5078  32.4374

          k = 0.6000-0.2000 0.6000 (   576 PWs)   bands (ev):

     9.2993  10.5735  11.6738  11.7712  13.5353  17.3407  19.7366  27.5679
    31.7915  32.1912

          k = 0.5000-0.1000 0.5000 (   585 PWs)   bands (ev):

     9.3741  10.7175  11.0808  11.8162  12.8377  15.4889  23.1724  27.3282
    32.5333  34.0048

          k = 0.4000 0.0000 0.4000 (   592 PWs)   bands (ev):

     8.7909  10.4459  11.1829  11.9829  12.1348  14.2181  26.3901  28.4287
    33.5001  36.3682

          k = 0.0000 0.6000 0.0000 (   576 PWs)   bands (ev):

     8.7484   9.6413  12.1426  12.8082  12.8082  13.3638  29.2716  29.2716
    29.6907  32.2648

          k =-0.1000 0.7000-0.1000 (   589 PWs)   bands (ev):

     9.0265   9.5017  12.1782  12.9194  13.7614  14.3463  25.6446  27.8934
    28.2750  33.2220

          k = 0.8000-0.2000 0.8000 (   586 PWs)   bands (ev):

     9.2048   9.7871  11.8849  12.7278  13.9593  16.8877  22.0032  26.0700
    28.3361  33.4183

          k = 0.7000-0.1000 0.7000 (   581 PWs)   bands (ev):

     9.4593  10.2459  11.4846  12.5074  13.6362  18.9859  20.1285  24.4357
    29.5599  33.1287

          k = 0.6000-0.0000 0.6000 (   584 PWs)   bands (ev):

     9.7784  10.6418  10.8827  12.2516  13.0932  17.0666  23.1409  23.7474
    31.6394  32.8055

          k = 0.0000 0.8000 0.0000 (   596 PWs)   bands (ev):

     8.8023   9.1720  13.6684  13.7353  13.7353  14.4981  24.5624  26.8847
    26.8847  32.5612

          k = 0.9000-0.1000 0.9000 (   594 PWs)   bands (ev):

     8.8517   9.1823  13.3076  13.5180  14.0503  16.8697  22.2184  25.3255
    26.6170  33.4795

          k = 0.8000 0.0000 0.8000 (   586 PWs)   bands (ev):

     9.1182   9.6006  12.4096  13.1687  13.8701  19.4451  20.3875  23.5999
    27.6320  33.7588

          k = 0.0000-1.0000 0.0000 (   588 PWs)   bands (ev):

     8.6666   9.0019  13.7884  14.1643  14.1643  16.7421  21.5078  25.9422
    25.9422  32.7864

          k =-0.2000 0.4000 0.0000 (   585 PWs)   bands (ev):

     7.8828  10.3629  11.4000  11.9103  12.2272  13.2685  29.0481  30.5992
    34.0018  34.5111

          k =-0.3000 0.5000-0.1000 (   584 PWs)   bands (ev):

     8.8517  10.4406  11.0382  11.9318  12.8015  14.1627  25.4664  29.4847
    32.1554  35.1738

          k = 0.6000-0.4000 0.8000 (   583 PWs)   bands (ev):

     9.1240  10.7215  11.3010  11.7758  13.5053  15.6174  21.6138  29.1841
    30.7236  33.9108

          k = 0.5000-0.3000 0.7000 (   584 PWs)   bands (ev):

     9.1207  10.6000  11.6363  11.9059  13.7313  17.5173  18.8277  29.4860
    29.8188  33.2854

          k =-0.2000 0.6000 0.0000 (   590 PWs)   bands (ev):

     9.0880   9.8226  11.2861  12.8005  12.8882  14.1582  26.7081  28.2402
    30.1766  35.0785

          k = 0.7000-0.3000 0.9000 (   581 PWs)   bands (ev):

     9.4580  10.0547  11.0720  12.6082  13.5868  15.8581  23.2652  27.2254
    28.5880  34.7936

          k = 0.6000-0.2000 0.8000 (   579 PWs)   bands (ev):

     9.6041  10.2774  11.1845  12.3212  13.7522  18.3645  19.9639  26.4348
    28.3124  34.4594

          k = 0.5000-0.1000 0.7000 (   578 PWs)   bands (ev):

     9.8411  10.3245  10.9708  12.2601  13.4294  17.3714  21.4978  25.5466
    29.4353  34.7269

          k = 0.4000 0.0000 0.6000 (   583 PWs)   bands (ev):

     9.7944  10.3108  10.6232  12.3849  12.8318  15.5682  24.3695  26.1073
    30.8496  35.7334

          k = 0.8000-0.2000 1.0000 (   583 PWs)   bands (ev):

     9.1261   9.4117  12.2355  13.4353  13.7306  16.0779  23.7859  26.0906
    26.7241  34.6354

          k = 0.7000-0.1000 0.9000 (   587 PWs)   bands (ev):

     9.3345   9.7250  11.8470  12.9985  13.9732  18.6258  21.3871  24.3199
    26.6187  35.2455

          k = 0.6000 0.0000 0.8000 (   590 PWs)   bands (ev):

     9.6661  10.2219  11.2088  12.5846  13.7326  19.0805  21.7177  22.8548
    27.8505  35.0786

          k =-0.2000-1.0000 0.0000 (   586 PWs)   bands (ev):

     8.9716   9.2611  12.9188  13.4263  14.1650  18.3064  21.1282  25.2085
    25.5360  34.7297

          k = 0.6000-0.2000 1.0000 (   575 PWs)   bands (ev):

     9.8638  10.1148  10.8125  12.7458  13.7214  17.7751  22.8393  24.1348
    27.0404  37.1910

          k = 0.5000-0.1000 0.9000 (   586 PWs)   bands (ev):

     9.9009  10.3513  10.7439  12.4909  13.9490  19.6128  21.0505  23.8193
    26.2074  37.1748

          k =-0.4000-1.0000 0.0000 (   590 PWs)   bands (ev):

     9.6319  10.0317  11.2850  12.6477  14.1661  20.6016  20.8274  23.3066
    25.1480  38.0579

     the Fermi energy is    15.7460 ev

!    total energy              =    -764.68026038 Ry
     Harris-Foulkes estimate   =    -764.68026034 Ry
     estimated scf accuracy    <          5.5E-09 Ry

     total all-electron energy =    -38013.514723 Ry

     The total energy is the sum of the following terms:

     one-electron contribution =      13.86620279 Ry
     hartree contribution      =       7.57631738 Ry
     xc contribution           =     -31.82199141 Ry
     ewald contribution        =     -71.95438543 Ry
     one-center paw contrib.   =    -682.34601559 Ry
     smearing contrib. (-TS)   =      -0.00038813 Ry

     convergence has been achieved in  21 iterations

     Forces acting on atoms (cartesian axes, Ry/au):

     atom    1 type  1   force =     0.00000000    0.00000000    0.00000000

     Total force =     0.000000     Total SCF correction =     0.000000


     Computing stress (Cartesian axis) and pressure

          total   stress  (Ry/bohr**3)                   (kbar)     P=   16.47
   0.00011194   0.00000000   0.00000000         16.47      0.00      0.00
   0.00000000   0.00011194  -0.00000000          0.00     16.47     -0.00
   0.00000000  -0.00000000   0.00011194          0.00     -0.00     16.47


     Writing output data file Au.save/

     init_run     :      0.35s CPU      0.38s WALL (       1 calls)
     electrons    :      9.49s CPU     10.24s WALL (       1 calls)
     forces       :      0.05s CPU      0.05s WALL (       1 calls)
     stress       :      0.16s CPU      0.16s WALL (       1 calls)

     Called by init_run:
     wfcinit      :      0.09s CPU      0.09s WALL (       1 calls)
     potinit      :      0.10s CPU      0.12s WALL (       1 calls)
     hinit0       :      0.14s CPU      0.14s WALL (       1 calls)

     Called by electrons:
     c_bands      :      6.01s CPU      6.39s WALL (      22 calls)
     sum_band     :      1.14s CPU      1.21s WALL (      22 calls)
     v_of_rho     :      0.07s CPU      0.07s WALL (      22 calls)
     newd         :      0.10s CPU      0.12s WALL (      22 calls)
     PAW_pot      :      2.24s CPU      2.54s WALL (      22 calls)
     mix_rho      :      0.01s CPU      0.01s WALL (      22 calls)

     Called by c_bands:
     init_us_2    :      0.17s CPU      0.18s WALL (    2209 calls)
     cegterg      :      5.73s CPU      6.09s WALL (    1034 calls)

     Called by sum_band:
     sum_band:bec :      0.01s CPU      0.01s WALL (    1034 calls)
     addusdens    :      0.10s CPU      0.10s WALL (      22 calls)

     Called by *egterg:
     h_psi        :      4.08s CPU      4.36s WALL (    3601 calls)
     s_psi        :      0.13s CPU      0.14s WALL (    3601 calls)
     g_psi        :      0.01s CPU      0.01s WALL (    2520 calls)
     cdiaghg      :      0.80s CPU      0.84s WALL (    3507 calls)

     Called by h_psi:
     h_psi:pot    :      4.06s CPU      4.34s WALL (    3601 calls)
     h_psi:calbec :      0.22s CPU      0.23s WALL (    3601 calls)
     vloc_psi     :      3.69s CPU      3.93s WALL (    3601 calls)
     add_vuspsi   :      0.13s CPU      0.14s WALL (    3601 calls)

     General routines
     calbec       :      0.31s CPU      0.33s WALL (    4870 calls)
     fft          :      0.05s CPU      0.05s WALL (     269 calls)
     ffts         :      0.00s CPU      0.00s WALL (      22 calls)
     fftw         :      4.18s CPU      4.46s WALL (   62436 calls)

     Parallel routines
     fft_scatt_xy :      0.36s CPU      0.39s WALL (   62727 calls)
     fft_scatt_yz :      1.37s CPU      1.45s WALL (   62727 calls)

     PWSCF        :    10.93s CPU        11.78s WALL


   This run was terminated on:  11:36: 7  26Mar2024            

=------------------------------------------------------------------------------=
   JOB DONE.
=------------------------------------------------------------------------------=
