
     Program PWSCF v.6.3MaX starts on 26Mar2024 at 11:54:51 

     This program is part of the open-source Quantum ESPRESSO suite
     for quantum simulation of materials; please cite
         "P. Giannozzi et al., J. Phys.:Condens. Matter 21 395502 (2009);
         "P. Giannozzi et al., J. Phys.:Condens. Matter 29 465901 (2017);
          URL http://www.quantum-espresso.org", 
     in publications or presentations arising from this work. More details at
     http://www.quantum-espresso.org/quote

     Parallel version (MPI), running on     5 processors

     MPI processes distributed on     1 nodes
     R & G space division:  proc/nbgrp/npool/nimage =       5
     Waiting for input...
     Reading input from standard input

     Current dimensions of program PWSCF are:
     Max number of different atomic species (ntypx) = 10
     Max number of k-points (npk) =  40000
     Max angular momentum in pseudopotentials (lmaxx) =  3
               file Au.pbesol-n-kjpaw_psl.1.0.0.UPF: wavefunction(s)  6S 5D renormalized

     Subspace diagonalization in iterative solution of the eigenvalue problem:
     a serial algorithm will be used


     Parallelization info
     --------------------
     sticks:   dense  smooth     PW     G-vecs:    dense   smooth      PW
     Min          99      99     32                 1446     1446     258
     Max         100     100     33                 1449     1449     259
     Sum         499     499    163                 7239     7239    1291



     bravais-lattice index     =            2
     lattice parameter (alat)  =       7.7100  a.u.
     unit-cell volume          =     114.5785 (a.u.)^3
     number of atoms/cell      =            1
     number of atomic types    =            1
     number of electrons       =        11.00
     number of Kohn-Sham states=           10
     kinetic-energy cutoff     =      60.0000  Ry
     charge density cutoff     =     240.0000  Ry
     convergence threshold     =      1.0E-08
     mixing beta               =       0.7000
     number of iterations used =            8  plain     mixing
     Exchange-correlation      = SLA PW PSX PSC ( 1  4 10  8 0 0)

     celldm(1)=   7.710000  celldm(2)=   0.000000  celldm(3)=   0.000000
     celldm(4)=   0.000000  celldm(5)=   0.000000  celldm(6)=   0.000000

     crystal axes: (cart. coord. in units of alat)
               a(1) = (  -0.500000   0.000000   0.500000 )  
               a(2) = (   0.000000   0.500000   0.500000 )  
               a(3) = (  -0.500000   0.500000   0.000000 )  

     reciprocal axes: (cart. coord. in units 2 pi/alat)
               b(1) = ( -1.000000 -1.000000  1.000000 )  
               b(2) = (  1.000000  1.000000  1.000000 )  
               b(3) = ( -1.000000  1.000000 -1.000000 )  


     PseudoPot. # 1 for Au read from file:
     /home/lorenzo/pseudos/Au/Au.pbesol-n-kjpaw_psl.1.0.0.UPF
     MD5 check sum: abc371be705c47a6b6a6b4088b452d3e
     Pseudo is Projector augmented-wave + core cor, Zval = 11.0
     Generated using "atomic" code by A. Dal Corso v.6.3
     Shape of augmentation charge: PSQ
     Using radial grid of 1279 points,  6 beta functions with: 
                l(1) =   0
                l(2) =   0
                l(3) =   1
                l(4) =   1
                l(5) =   2
                l(6) =   2
     Q(r) pseudized with 0 coefficients 


     atomic species   valence    mass     pseudopotential
        Au            11.00   196.96600     Au( 1.00)

     48 Sym. Ops., with inversion, found



   Cartesian axes

     site n.     atom                  positions (alat units)
         1           Au  tau(   1) = (   0.0000000   0.0000000   0.0000000  )

     number of k points=    16  gaussian smearing, width (Ry)=  0.0100
                       cart. coord. in units 2pi/alat
        k(    1) = (   0.0000000   0.0000000   0.0000000), wk =   0.0092593
        k(    2) = (  -0.1666667   0.1666667  -0.1666667), wk =   0.0740741
        k(    3) = (  -0.3333333   0.3333333  -0.3333333), wk =   0.0740741
        k(    4) = (   0.5000000  -0.5000000   0.5000000), wk =   0.0370370
        k(    5) = (   0.0000000   0.3333333   0.0000000), wk =   0.0555556
        k(    6) = (  -0.1666667   0.5000000  -0.1666667), wk =   0.2222222
        k(    7) = (   0.6666667  -0.3333333   0.6666667), wk =   0.2222222
        k(    8) = (   0.5000000  -0.1666667   0.5000000), wk =   0.2222222
        k(    9) = (   0.3333333   0.0000000   0.3333333), wk =   0.1111111
        k(   10) = (   0.0000000   0.6666667   0.0000000), wk =   0.0555556
        k(   11) = (   0.8333333  -0.1666667   0.8333333), wk =   0.2222222
        k(   12) = (   0.6666667  -0.0000000   0.6666667), wk =   0.1111111
        k(   13) = (   0.0000000  -1.0000000   0.0000000), wk =   0.0277778
        k(   14) = (   0.6666667  -0.3333333   1.0000000), wk =   0.2222222
        k(   15) = (   0.5000000  -0.1666667   0.8333333), wk =   0.2222222
        k(   16) = (  -0.3333333  -1.0000000   0.0000000), wk =   0.1111111

     Dense  grid:     7239 G-vectors     FFT dimensions: (  27,  27,  27)

     Estimated max dynamical RAM per process >       7.39 MB

     Estimated total dynamical RAM >      36.93 MB

     Initial potential from superposition of free atoms

     starting charge   10.99990, renormalised to   11.00000
     Starting wfcs are    9 randomized atomic wfcs +    1 random wfcs
     Checking if some PAW data can be deallocated... 

     total cpu time spent up to now is        1.3 secs

     Self-consistent Calculation

     iteration #  1     ecut=    60.00 Ry     beta= 0.70
     Davidson diagonalization with overlap
     ethr =  1.00E-02,  avg # of iterations =  5.8

     Threshold (ethr) on eigenvalues was too large:
     Diagonalizing with lowered threshold

     Davidson diagonalization with overlap
     ethr =  5.54E-04,  avg # of iterations =  1.6

     negative rho (up, down):  4.247E-04 0.000E+00

     total cpu time spent up to now is        1.9 secs

     total energy              =    -764.66820507 Ry
     Harris-Foulkes estimate   =    -764.69698429 Ry
     estimated scf accuracy    <       0.06290352 Ry

     iteration #  2     ecut=    60.00 Ry     beta= 0.70
     Davidson diagonalization with overlap
     ethr =  5.72E-04,  avg # of iterations =  4.4

     total cpu time spent up to now is        2.3 secs

     total energy              =    -715.22540826 Ry
     Harris-Foulkes estimate   =    -890.29239445 Ry
     estimated scf accuracy    <  201152.69267624 Ry

     iteration #  3     ecut=    60.00 Ry     beta= 0.70
     Davidson diagonalization with overlap
     ethr =  5.72E-04,  avg # of iterations =  7.1

     total cpu time spent up to now is        2.7 secs

     total energy              =    -764.67294247 Ry
     Harris-Foulkes estimate   =    -764.68472382 Ry
     estimated scf accuracy    <       0.02614555 Ry

     iteration #  4     ecut=    60.00 Ry     beta= 0.70
     Davidson diagonalization with overlap
     ethr =  2.38E-04,  avg # of iterations =  2.1

     total cpu time spent up to now is        3.0 secs

     total energy              =    -764.67671877 Ry
     Harris-Foulkes estimate   =    -764.67679633 Ry
     estimated scf accuracy    <       0.00707721 Ry

     iteration #  5     ecut=    60.00 Ry     beta= 0.70
     Davidson diagonalization with overlap
     ethr =  6.43E-05,  avg # of iterations =  1.9

     total cpu time spent up to now is        3.3 secs

     total energy              =    -764.67723695 Ry
     Harris-Foulkes estimate   =    -764.67727462 Ry
     estimated scf accuracy    <       0.00554505 Ry

     iteration #  6     ecut=    60.00 Ry     beta= 0.70
     Davidson diagonalization with overlap
     ethr =  5.04E-05,  avg # of iterations =  1.0

     total cpu time spent up to now is        3.5 secs

     total energy              =    -764.67731328 Ry
     Harris-Foulkes estimate   =    -764.67733986 Ry
     estimated scf accuracy    <       0.00545106 Ry

     iteration #  7     ecut=    60.00 Ry     beta= 0.70
     Davidson diagonalization with overlap
     ethr =  4.96E-05,  avg # of iterations =  1.3

     total cpu time spent up to now is        3.8 secs

     total energy              =    -764.67733736 Ry
     Harris-Foulkes estimate   =    -764.67734270 Ry
     estimated scf accuracy    <       0.00546352 Ry

     iteration #  8     ecut=    60.00 Ry     beta= 0.70
     Davidson diagonalization with overlap
     ethr =  4.96E-05,  avg # of iterations =  1.0

     total cpu time spent up to now is        4.0 secs

     total energy              =    -764.67734390 Ry
     Harris-Foulkes estimate   =    -764.67734479 Ry
     estimated scf accuracy    <       0.00544258 Ry

     iteration #  9     ecut=    60.00 Ry     beta= 0.70
     Davidson diagonalization with overlap
     ethr =  4.95E-05,  avg # of iterations =  1.0

     total cpu time spent up to now is        4.3 secs

     total energy              =    -764.67734275 Ry
     Harris-Foulkes estimate   =    -764.67734673 Ry
     estimated scf accuracy    <       0.00543027 Ry

     iteration # 10     ecut=    60.00 Ry     beta= 0.70
     Davidson diagonalization with overlap
     ethr =  4.94E-05,  avg # of iterations =  1.0

     total cpu time spent up to now is        4.5 secs

     total energy              =    -764.67733941 Ry
     Harris-Foulkes estimate   =    -764.67734433 Ry
     estimated scf accuracy    <       0.00538671 Ry

     iteration # 11     ecut=    60.00 Ry     beta= 0.70
     Davidson diagonalization with overlap
     ethr =  4.90E-05,  avg # of iterations =  1.4

     total cpu time spent up to now is        4.8 secs

     total energy              =    -764.67843440 Ry
     Harris-Foulkes estimate   =    -764.67734023 Ry
     estimated scf accuracy    <       0.00533095 Ry

     iteration # 12     ecut=    60.00 Ry     beta= 0.70
     Davidson diagonalization with overlap
     ethr =  4.85E-05,  avg # of iterations =  3.0

     total cpu time spent up to now is        5.1 secs

     total energy              =    -764.67633183 Ry
     Harris-Foulkes estimate   =    -764.68067594 Ry
     estimated scf accuracy    <       0.00929446 Ry

     iteration # 13     ecut=    60.00 Ry     beta= 0.70
     Davidson diagonalization with overlap
     ethr =  4.85E-05,  avg # of iterations =  1.8

     total cpu time spent up to now is        5.3 secs

     total energy              =    -764.67653386 Ry
     Harris-Foulkes estimate   =    -764.67721281 Ry
     estimated scf accuracy    <       0.00120935 Ry

     iteration # 14     ecut=    60.00 Ry     beta= 0.70
     Davidson diagonalization with overlap
     ethr =  1.10E-05,  avg # of iterations =  2.2

     total cpu time spent up to now is        5.6 secs

     total energy              =    -764.67701061 Ry
     Harris-Foulkes estimate   =    -764.67707268 Ry
     estimated scf accuracy    <       0.00009299 Ry

     iteration # 15     ecut=    60.00 Ry     beta= 0.70
     Davidson diagonalization with overlap
     ethr =  8.45E-07,  avg # of iterations =  3.2

     total cpu time spent up to now is        5.9 secs

     total energy              =    -764.67706280 Ry
     Harris-Foulkes estimate   =    -764.67712960 Ry
     estimated scf accuracy    <       0.00023431 Ry

     iteration # 16     ecut=    60.00 Ry     beta= 0.70
     Davidson diagonalization with overlap
     ethr =  8.45E-07,  avg # of iterations =  1.0

     total cpu time spent up to now is        6.3 secs

     total energy              =    -764.67703645 Ry
     Harris-Foulkes estimate   =    -764.67707034 Ry
     estimated scf accuracy    <       0.00008711 Ry

     iteration # 17     ecut=    60.00 Ry     beta= 0.70
     Davidson diagonalization with overlap
     ethr =  7.92E-07,  avg # of iterations =  1.6

     total cpu time spent up to now is        6.7 secs

     total energy              =    -764.67704248 Ry
     Harris-Foulkes estimate   =    -764.67704505 Ry
     estimated scf accuracy    <       0.00000884 Ry

     iteration # 18     ecut=    60.00 Ry     beta= 0.70
     Davidson diagonalization with overlap
     ethr =  8.04E-08,  avg # of iterations =  2.6

     total cpu time spent up to now is        7.0 secs

     total energy              =    -764.67704404 Ry
     Harris-Foulkes estimate   =    -764.67704486 Ry
     estimated scf accuracy    <       0.00000299 Ry

     iteration # 19     ecut=    60.00 Ry     beta= 0.70
     Davidson diagonalization with overlap
     ethr =  2.72E-08,  avg # of iterations =  2.1

     total cpu time spent up to now is        7.3 secs

     total energy              =    -764.67704406 Ry
     Harris-Foulkes estimate   =    -764.67704436 Ry
     estimated scf accuracy    <       0.00000131 Ry

     iteration # 20     ecut=    60.00 Ry     beta= 0.70
     Davidson diagonalization with overlap
     ethr =  1.19E-08,  avg # of iterations =  2.2

     total cpu time spent up to now is        7.6 secs

     total energy              =    -764.67704424 Ry
     Harris-Foulkes estimate   =    -764.67704442 Ry
     estimated scf accuracy    <       0.00000207 Ry

     iteration # 21     ecut=    60.00 Ry     beta= 0.70
     Davidson diagonalization with overlap
     ethr =  1.19E-08,  avg # of iterations =  1.2

     total cpu time spent up to now is        7.9 secs

     total energy              =    -764.67704418 Ry
     Harris-Foulkes estimate   =    -764.67704428 Ry
     estimated scf accuracy    <       0.00000075 Ry

     iteration # 22     ecut=    60.00 Ry     beta= 0.70
     Davidson diagonalization with overlap
     ethr =  6.84E-09,  avg # of iterations =  2.0

     total cpu time spent up to now is        8.3 secs

     total energy              =    -764.67704427 Ry
     Harris-Foulkes estimate   =    -764.67704428 Ry
     estimated scf accuracy    <       0.00000015 Ry

     iteration # 23     ecut=    60.00 Ry     beta= 0.70
     Davidson diagonalization with overlap
     ethr =  1.37E-09,  avg # of iterations =  2.6

     total cpu time spent up to now is        8.6 secs

     total energy              =    -764.67704427 Ry
     Harris-Foulkes estimate   =    -764.67704431 Ry
     estimated scf accuracy    <       0.00000057 Ry

     iteration # 24     ecut=    60.00 Ry     beta= 0.70
     Davidson diagonalization with overlap
     ethr =  1.37E-09,  avg # of iterations =  1.2

     total cpu time spent up to now is        9.0 secs

     total energy              =    -764.67704425 Ry
     Harris-Foulkes estimate   =    -764.67704428 Ry
     estimated scf accuracy    <       0.00000029 Ry

     iteration # 25     ecut=    60.00 Ry     beta= 0.70
     Davidson diagonalization with overlap
     ethr =  1.37E-09,  avg # of iterations =  2.2

     total cpu time spent up to now is        9.3 secs

     End of self-consistent calculation

          k = 0.0000 0.0000 0.0000 (   893 PWs)   bands (ev):

     5.8129  11.0842  11.0842  11.0842  12.6241  12.6241  31.1312  34.9851
    34.9851  34.9851

          k =-0.1667 0.1667-0.1667 (   911 PWs)   bands (ev):

     6.7301  10.8606  11.3333  11.3333  12.5726  12.5726  30.2798  32.1734
    35.7656  35.7656

          k =-0.3333 0.3333-0.3333 (   896 PWs)   bands (ev):

     8.2448  11.2404  11.2404  11.7751  13.2426  13.2426  23.7037  31.3142
    34.9110  34.9110

          k = 0.5000-0.5000 0.5000 (   886 PWs)   bands (ev):

     8.4154  11.0484  11.0484  13.8361  13.8361  14.7348  18.8733  30.4110
    33.3328  33.3328

          k = 0.0000 0.3333 0.0000 (   897 PWs)   bands (ev):

     7.0469  10.4890  11.6616  11.6616  12.0230  12.8979  32.4735  32.6516
    33.1275  33.1275

          k =-0.1667 0.5000-0.1667 (   902 PWs)   bands (ev):

     8.5776  10.2772  11.2153  11.9026  13.2093  13.4398  26.3503  31.4228
    31.8592  33.5329

          k = 0.6667-0.3333 0.6667 (   904 PWs)   bands (ev):

     9.0291  10.6753  11.6321  11.7247  13.8794  16.4244  19.9309  29.5166
    31.2210  32.1403

          k = 0.5000-0.1667 0.5000 (   895 PWs)   bands (ev):

     9.1113  10.8070  11.4861  11.6105  13.0829  15.4613  22.0950  28.5198
    32.1921  33.8847

          k = 0.3333 0.0000 0.3333 (   905 PWs)   bands (ev):

     8.0616  10.5049  11.3550  11.8420  12.0570  13.5428  28.0025  29.9044
    34.5103  35.2973

          k = 0.0000 0.6667 0.0000 (   906 PWs)   bands (ev):

     8.8669   9.4578  12.7315  13.1364  13.1364  13.4790  27.8971  28.3672
    28.3672  32.3105

          k = 0.8333-0.1667 0.8333 (   903 PWs)   bands (ev):

     9.0949   9.5363  12.3317  13.0221  13.9853  16.9087  22.3710  25.4648
    27.6818  33.6036

          k = 0.6667-0.0000 0.6667 (   901 PWs)   bands (ev):

     9.5918  10.3975  11.2719  12.5108  13.3914  18.2286  22.2444  22.8848
    30.1376  33.0825

          k = 0.0000-1.0000 0.0000 (   934 PWs)   bands (ev):

     8.6659   9.0019  13.7888  14.1655  14.1655  16.7427  21.5050  25.9427
    25.9427  32.7694

          k = 0.6667-0.3333 1.0000 (   899 PWs)   bands (ev):

     9.7456  10.0130  10.7645  12.7760  13.1259  15.6860  24.3699  26.1330
    29.2509  37.0177

          k = 0.5000-0.1667 0.8333 (   902 PWs)   bands (ev):

     9.9870  10.0909  10.9994  12.3667  13.7475  19.1275  19.8905  25.6154
    27.4399  35.6388

          k =-0.3333-1.0000 0.0000 (   896 PWs)   bands (ev):

     9.4174   9.7192  11.7979  12.8983  14.1670  19.9679  20.7360  24.0358
    25.2277  37.3741

     the Fermi energy is    15.7177 ev

!    total energy              =    -764.67704426 Ry
     Harris-Foulkes estimate   =    -764.67704426 Ry
     estimated scf accuracy    <          1.6E-09 Ry

     total all-electron energy =    -38013.511506 Ry

     The total energy is the sum of the following terms:

     one-electron contribution =      13.86856353 Ry
     hartree contribution      =       7.57660947 Ry
     xc contribution           =     -31.82170754 Ry
     ewald contribution        =     -71.95438535 Ry
     one-center paw contrib.   =    -682.34551247 Ry
     smearing contrib. (-TS)   =      -0.00061190 Ry

     convergence has been achieved in  25 iterations

     Forces acting on atoms (cartesian axes, Ry/au):

     atom    1 type  1   force =     0.00000000    0.00000000    0.00000000

     Total force =     0.000000     Total SCF correction =     0.000000


     Computing stress (Cartesian axis) and pressure

          total   stress  (Ry/bohr**3)                   (kbar)     P=   25.56
   0.00017374  -0.00000000  -0.00000000         25.56     -0.00     -0.00
  -0.00000000   0.00017374  -0.00000000         -0.00     25.56     -0.00
  -0.00000000  -0.00000000   0.00017374         -0.00     -0.00     25.56


     Writing output data file Au.save/

     init_run     :      0.35s CPU      0.38s WALL (       1 calls)
     electrons    :      7.43s CPU      7.98s WALL (       1 calls)
     forces       :      0.03s CPU      0.03s WALL (       1 calls)
     stress       :      0.10s CPU      0.10s WALL (       1 calls)

     Called by init_run:
     wfcinit      :      0.06s CPU      0.06s WALL (       1 calls)
     potinit      :      0.10s CPU      0.12s WALL (       1 calls)
     hinit0       :      0.17s CPU      0.17s WALL (       1 calls)

     Called by electrons:
     c_bands      :      3.60s CPU      3.76s WALL (      26 calls)
     sum_band     :      0.81s CPU      0.86s WALL (      26 calls)
     v_of_rho     :      0.11s CPU      0.12s WALL (      26 calls)
     newd         :      0.19s CPU      0.23s WALL (      26 calls)
     PAW_pot      :      2.78s CPU      3.10s WALL (      26 calls)
     mix_rho      :      0.02s CPU      0.02s WALL (      26 calls)

     Called by c_bands:
     init_us_2    :      0.10s CPU      0.11s WALL (     880 calls)
     cegterg      :      3.43s CPU      3.59s WALL (     416 calls)

     Called by sum_band:
     sum_band:bec :      0.00s CPU      0.00s WALL (     416 calls)
     addusdens    :      0.18s CPU      0.18s WALL (      26 calls)

     Called by *egterg:
     h_psi        :      2.65s CPU      2.78s WALL (    1367 calls)
     s_psi        :      0.08s CPU      0.08s WALL (    1367 calls)
     g_psi        :      0.01s CPU      0.01s WALL (     935 calls)
     cdiaghg      :      0.31s CPU      0.33s WALL (    1335 calls)

     Called by h_psi:
     h_psi:pot    :      2.64s CPU      2.76s WALL (    1367 calls)
     h_psi:calbec :      0.12s CPU      0.12s WALL (    1367 calls)
     vloc_psi     :      2.43s CPU      2.54s WALL (    1367 calls)
     add_vuspsi   :      0.08s CPU      0.08s WALL (    1367 calls)

     General routines
     calbec       :      0.17s CPU      0.18s WALL (    1863 calls)
     fft          :      0.06s CPU      0.07s WALL (     313 calls)
     ffts         :      0.01s CPU      0.01s WALL (      26 calls)
     fftw         :      2.72s CPU      2.86s WALL (   24434 calls)

     Parallel routines
     fft_scatt_xy :      0.23s CPU      0.24s WALL (   24773 calls)
     fft_scatt_yz :      0.77s CPU      0.80s WALL (   24773 calls)

     PWSCF        :     8.85s CPU         9.48s WALL


   This run was terminated on:  11:55: 1  26Mar2024            

=------------------------------------------------------------------------------=
   JOB DONE.
=------------------------------------------------------------------------------=
