
     Program PWSCF v.6.3MaX starts on 26Mar2024 at 11:21:35 

     This program is part of the open-source Quantum ESPRESSO suite
     for quantum simulation of materials; please cite
         "P. Giannozzi et al., J. Phys.:Condens. Matter 21 395502 (2009);
         "P. Giannozzi et al., J. Phys.:Condens. Matter 29 465901 (2017);
          URL http://www.quantum-espresso.org", 
     in publications or presentations arising from this work. More details at
     http://www.quantum-espresso.org/quote

     Parallel version (MPI), running on     5 processors

     MPI processes distributed on     1 nodes
     R & G space division:  proc/nbgrp/npool/nimage =       5
     Waiting for input...
     Reading input from standard input

     Current dimensions of program PWSCF are:
     Max number of different atomic species (ntypx) = 10
     Max number of k-points (npk) =  40000
     Max angular momentum in pseudopotentials (lmaxx) =  3
               file Au.pbesol-n-kjpaw_psl.1.0.0.UPF: wavefunction(s)  6S 5D renormalized

     Subspace diagonalization in iterative solution of the eigenvalue problem:
     a serial algorithm will be used


     Parallelization info
     --------------------
     sticks:   dense  smooth     PW     G-vecs:    dense   smooth      PW
     Min          39      39     12                  381      381      67
     Max          40      40     13                  384      384      70
     Sum         199     199     61                 1917     1917     339



     bravais-lattice index     =            2
     lattice parameter (alat)  =       7.7100  a.u.
     unit-cell volume          =     114.5785 (a.u.)^3
     number of atoms/cell      =            1
     number of atomic types    =            1
     number of electrons       =        11.00
     number of Kohn-Sham states=           10
     kinetic-energy cutoff     =      25.0000  Ry
     charge density cutoff     =     100.0000  Ry
     convergence threshold     =      1.0E-08
     mixing beta               =       0.7000
     number of iterations used =            8  plain     mixing
     Exchange-correlation      = SLA PW PSX PSC ( 1  4 10  8 0 0)

     celldm(1)=   7.710000  celldm(2)=   0.000000  celldm(3)=   0.000000
     celldm(4)=   0.000000  celldm(5)=   0.000000  celldm(6)=   0.000000

     crystal axes: (cart. coord. in units of alat)
               a(1) = (  -0.500000   0.000000   0.500000 )  
               a(2) = (   0.000000   0.500000   0.500000 )  
               a(3) = (  -0.500000   0.500000   0.000000 )  

     reciprocal axes: (cart. coord. in units 2 pi/alat)
               b(1) = ( -1.000000 -1.000000  1.000000 )  
               b(2) = (  1.000000  1.000000  1.000000 )  
               b(3) = ( -1.000000  1.000000 -1.000000 )  


     PseudoPot. # 1 for Au read from file:
     /home/lorenzo/pseudos/Au/Au.pbesol-n-kjpaw_psl.1.0.0.UPF
     MD5 check sum: abc371be705c47a6b6a6b4088b452d3e
     Pseudo is Projector augmented-wave + core cor, Zval = 11.0
     Generated using "atomic" code by A. Dal Corso v.6.3
     Shape of augmentation charge: PSQ
     Using radial grid of 1279 points,  6 beta functions with: 
                l(1) =   0
                l(2) =   0
                l(3) =   1
                l(4) =   1
                l(5) =   2
                l(6) =   2
     Q(r) pseudized with 0 coefficients 


     atomic species   valence    mass     pseudopotential
        Au            11.00   196.96600     Au( 1.00)

     48 Sym. Ops., with inversion, found



   Cartesian axes

     site n.     atom                  positions (alat units)
         1           Au  tau(   1) = (   0.0000000   0.0000000   0.0000000  )

     number of k points=     3  gaussian smearing, width (Ry)=  0.0100
                       cart. coord. in units 2pi/alat
        k(    1) = (   0.0000000   0.0000000   0.0000000), wk =   0.2500000
        k(    2) = (   0.5000000  -0.5000000   0.5000000), wk =   1.0000000
        k(    3) = (   0.0000000  -1.0000000   0.0000000), wk =   0.7500000

     Dense  grid:     1917 G-vectors     FFT dimensions: (  18,  18,  18)

     Estimated max dynamical RAM per process >       2.44 MB

     Estimated total dynamical RAM >      12.22 MB

     Initial potential from superposition of free atoms

     starting charge   10.99990, renormalised to   11.00000
     Starting wfcs are    9 randomized atomic wfcs +    1 random wfcs
     Checking if some PAW data can be deallocated... 

     total cpu time spent up to now is        1.4 secs

     Self-consistent Calculation

     iteration #  1     ecut=    25.00 Ry     beta= 0.70
     Davidson diagonalization with overlap
     ethr =  1.00E-02,  avg # of iterations =  7.3

     Threshold (ethr) on eigenvalues was too large:
     Diagonalizing with lowered threshold

     Davidson diagonalization with overlap
     ethr =  3.71E-04,  avg # of iterations =  1.7

     total cpu time spent up to now is        1.6 secs

     total energy              =    -764.41031832 Ry
     Harris-Foulkes estimate   =    -764.43363928 Ry
     estimated scf accuracy    <       0.03979543 Ry

     iteration #  2     ecut=    25.00 Ry     beta= 0.70
     Davidson diagonalization with overlap
     ethr =  3.62E-04,  avg # of iterations =  2.0

     total cpu time spent up to now is        1.7 secs

     total energy              =    -764.42742910 Ry
     Harris-Foulkes estimate   =    -764.43471775 Ry
     estimated scf accuracy    <       0.02488659 Ry

     iteration #  3     ecut=    25.00 Ry     beta= 0.70
     Davidson diagonalization with overlap
     ethr =  2.26E-04,  avg # of iterations =  4.7

     total cpu time spent up to now is        1.9 secs

     total energy              =    -764.31984609 Ry
     Harris-Foulkes estimate   =    -764.47473780 Ry
     estimated scf accuracy    <       0.60818123 Ry

     iteration #  4     ecut=    25.00 Ry     beta= 0.70
     Davidson diagonalization with overlap
     ethr =  2.26E-04,  avg # of iterations =  4.0

     total cpu time spent up to now is        2.0 secs

     total energy              =    -764.42367234 Ry
     Harris-Foulkes estimate   =    -764.42455651 Ry
     estimated scf accuracy    <       0.00229217 Ry

     iteration #  5     ecut=    25.00 Ry     beta= 0.70
     Davidson diagonalization with overlap
     ethr =  2.08E-05,  avg # of iterations =  7.0

     total cpu time spent up to now is        2.1 secs

     total energy              =    -764.42334058 Ry
     Harris-Foulkes estimate   =    -764.42489893 Ry
     estimated scf accuracy    <       0.00574256 Ry

     iteration #  6     ecut=    25.00 Ry     beta= 0.70
     Davidson diagonalization with overlap
     ethr =  2.08E-05,  avg # of iterations =  1.0

     total cpu time spent up to now is        2.3 secs

     total energy              =    -764.42413449 Ry
     Harris-Foulkes estimate   =    -764.42424510 Ry
     estimated scf accuracy    <       0.00113703 Ry

     iteration #  7     ecut=    25.00 Ry     beta= 0.70
     Davidson diagonalization with overlap
     ethr =  1.03E-05,  avg # of iterations =  3.3

     total cpu time spent up to now is        2.4 secs

     total energy              =    -764.42409099 Ry
     Harris-Foulkes estimate   =    -764.42416257 Ry
     estimated scf accuracy    <       0.00073661 Ry

     iteration #  8     ecut=    25.00 Ry     beta= 0.70
     Davidson diagonalization with overlap
     ethr =  6.70E-06,  avg # of iterations =  1.0

     total cpu time spent up to now is        2.5 secs

     total energy              =    -764.42408501 Ry
     Harris-Foulkes estimate   =    -764.42410537 Ry
     estimated scf accuracy    <       0.00052659 Ry

     iteration #  9     ecut=    25.00 Ry     beta= 0.70
     Davidson diagonalization with overlap
     ethr =  4.79E-06,  avg # of iterations =  1.0

     total cpu time spent up to now is        2.7 secs

     total energy              =    -764.42409736 Ry
     Harris-Foulkes estimate   =    -764.42408981 Ry
     estimated scf accuracy    <       0.00044887 Ry

     iteration # 10     ecut=    25.00 Ry     beta= 0.70
     Davidson diagonalization with overlap
     ethr =  4.08E-06,  avg # of iterations =  1.0

     total cpu time spent up to now is        2.8 secs

     total energy              =    -764.42409790 Ry
     Harris-Foulkes estimate   =    -764.42409842 Ry
     estimated scf accuracy    <       0.00043127 Ry

     iteration # 11     ecut=    25.00 Ry     beta= 0.70
     Davidson diagonalization with overlap
     ethr =  3.92E-06,  avg # of iterations =  1.0

     total cpu time spent up to now is        2.9 secs

     total energy              =    -764.42405022 Ry
     Harris-Foulkes estimate   =    -764.42409878 Ry
     estimated scf accuracy    <       0.00042700 Ry

     iteration # 12     ecut=    25.00 Ry     beta= 0.70
     Davidson diagonalization with overlap
     ethr =  3.88E-06,  avg # of iterations =  1.0

     total cpu time spent up to now is        3.1 secs

     total energy              =    -764.42394049 Ry
     Harris-Foulkes estimate   =    -764.42405807 Ry
     estimated scf accuracy    <       0.00030013 Ry

     iteration # 13     ecut=    25.00 Ry     beta= 0.70
     Davidson diagonalization with overlap
     ethr =  2.73E-06,  avg # of iterations =  1.7

     total cpu time spent up to now is        3.2 secs

     total energy              =    -764.42398578 Ry
     Harris-Foulkes estimate   =    -764.42398105 Ry
     estimated scf accuracy    <       0.00009633 Ry

     iteration # 14     ecut=    25.00 Ry     beta= 0.70
     Davidson diagonalization with overlap
     ethr =  8.76E-07,  avg # of iterations =  1.0

     total cpu time spent up to now is        3.4 secs

     total energy              =    -764.42403386 Ry
     Harris-Foulkes estimate   =    -764.42398885 Ry
     estimated scf accuracy    <       0.00008645 Ry

     iteration # 15     ecut=    25.00 Ry     beta= 0.70
     Davidson diagonalization with overlap
     ethr =  7.86E-07,  avg # of iterations =  1.7

     total cpu time spent up to now is        3.5 secs

     total energy              =    -764.42400799 Ry
     Harris-Foulkes estimate   =    -764.42405842 Ry
     estimated scf accuracy    <       0.00025969 Ry

     iteration # 16     ecut=    25.00 Ry     beta= 0.70
     Davidson diagonalization with overlap
     ethr =  7.86E-07,  avg # of iterations =  1.3

     total cpu time spent up to now is        3.7 secs

     total energy              =    -764.42398563 Ry
     Harris-Foulkes estimate   =    -764.42401335 Ry
     estimated scf accuracy    <       0.00018741 Ry

     iteration # 17     ecut=    25.00 Ry     beta= 0.70
     Davidson diagonalization with overlap
     ethr =  7.86E-07,  avg # of iterations =  2.0

     total cpu time spent up to now is        3.8 secs

     total energy              =    -764.42397329 Ry
     Harris-Foulkes estimate   =    -764.42399075 Ry
     estimated scf accuracy    <       0.00012630 Ry

     iteration # 18     ecut=    25.00 Ry     beta= 0.70
     Davidson diagonalization with overlap
     ethr =  7.86E-07,  avg # of iterations =  1.3

     total cpu time spent up to now is        3.9 secs

     total energy              =    -764.42383107 Ry
     Harris-Foulkes estimate   =    -764.42397651 Ry
     estimated scf accuracy    <       0.00009621 Ry

     iteration # 19     ecut=    25.00 Ry     beta= 0.70
     Davidson diagonalization with overlap
     ethr =  7.86E-07,  avg # of iterations =  3.3

     total cpu time spent up to now is        4.0 secs

     total energy              =    -764.42394294 Ry
     Harris-Foulkes estimate   =    -764.42401063 Ry
     estimated scf accuracy    <       0.00015209 Ry

     iteration # 20     ecut=    25.00 Ry     beta= 0.70
     Davidson diagonalization with overlap
     ethr =  7.86E-07,  avg # of iterations =  2.0

     total cpu time spent up to now is        4.2 secs

     total energy              =    -764.42397361 Ry
     Harris-Foulkes estimate   =    -764.42396706 Ry
     estimated scf accuracy    <       0.00001835 Ry

     iteration # 21     ecut=    25.00 Ry     beta= 0.70
     Davidson diagonalization with overlap
     ethr =  1.67E-07,  avg # of iterations =  2.0

     total cpu time spent up to now is        4.3 secs

     total energy              =    -764.42395429 Ry
     Harris-Foulkes estimate   =    -764.42397593 Ry
     estimated scf accuracy    <       0.00004158 Ry

     iteration # 22     ecut=    25.00 Ry     beta= 0.70
     Davidson diagonalization with overlap
     ethr =  1.67E-07,  avg # of iterations =  2.3

     total cpu time spent up to now is        4.4 secs

     total energy              =    -764.42396001 Ry
     Harris-Foulkes estimate   =    -764.42396233 Ry
     estimated scf accuracy    <       0.00000384 Ry

     iteration # 23     ecut=    25.00 Ry     beta= 0.70
     Davidson diagonalization with overlap
     ethr =  3.49E-08,  avg # of iterations =  3.0

     total cpu time spent up to now is        4.6 secs

     total energy              =    -764.42396124 Ry
     Harris-Foulkes estimate   =    -764.42396126 Ry
     estimated scf accuracy    <       0.00000007 Ry

     iteration # 24     ecut=    25.00 Ry     beta= 0.70
     Davidson diagonalization with overlap
     ethr =  6.20E-10,  avg # of iterations =  3.3

     total cpu time spent up to now is        4.7 secs

     total energy              =    -764.42396126 Ry
     Harris-Foulkes estimate   =    -764.42396130 Ry
     estimated scf accuracy    <       0.00000002 Ry

     iteration # 25     ecut=    25.00 Ry     beta= 0.70
     Davidson diagonalization with overlap
     ethr =  1.97E-10,  avg # of iterations =  2.7

     total cpu time spent up to now is        4.8 secs

     total energy              =    -764.42396124 Ry
     Harris-Foulkes estimate   =    -764.42396131 Ry
     estimated scf accuracy    <       0.00000005 Ry

     iteration # 26     ecut=    25.00 Ry     beta= 0.70
     Davidson diagonalization with overlap
     ethr =  1.97E-10,  avg # of iterations =  3.3

     total cpu time spent up to now is        5.0 secs

     total energy              =    -764.42396129 Ry
     Harris-Foulkes estimate   =    -764.42396131 Ry
     estimated scf accuracy    <       0.00000004 Ry

     iteration # 27     ecut=    25.00 Ry     beta= 0.70
     Davidson diagonalization with overlap
     ethr =  1.97E-10,  avg # of iterations =  4.0

     total cpu time spent up to now is        5.1 secs

     End of self-consistent calculation

          k = 0.0000 0.0000 0.0000 (   259 PWs)   bands (ev):

     5.8305  11.4792  11.4792  11.4792  13.1061  13.1061  31.0199  35.0186
    35.0186  35.0186

          k = 0.5000-0.5000 0.5000 (   242 PWs)   bands (ev):

     8.6419  11.4571  11.4571  14.3387  14.3387  14.7447  19.2090  30.3420
    33.3974  33.3974

          k = 0.0000-1.0000 0.0000 (   230 PWs)   bands (ev):

     8.9664   9.3244  14.3111  14.6676  14.6676  16.7500  21.8094  25.9925
    25.9925  33.1640

     the Fermi energy is    14.8314 ev

!    total energy              =    -764.42396132 Ry
     Harris-Foulkes estimate   =    -764.42396130 Ry
     estimated scf accuracy    <          9.3E-09 Ry

     total all-electron energy =    -38013.258424 Ry

     The total energy is the sum of the following terms:

     one-electron contribution =      14.00852887 Ry
     hartree contribution      =       7.86356421 Ry
     xc contribution           =     -31.94412026 Ry
     ewald contribution        =     -71.95438543 Ry
     one-center paw contrib.   =    -682.39467796 Ry
     smearing contrib. (-TS)   =      -0.00287074 Ry

     convergence has been achieved in  27 iterations

     Forces acting on atoms (cartesian axes, Ry/au):

     atom    1 type  1   force =     0.00000000    0.00000000    0.00000000

     Total force =     0.000000     Total SCF correction =     0.000000


     Computing stress (Cartesian axis) and pressure

          total   stress  (Ry/bohr**3)                   (kbar)     P=  482.06
   0.00327697  -0.00000000  -0.00000000        482.06     -0.00     -0.00
   0.00000000   0.00327697   0.00000000          0.00    482.06      0.00
  -0.00000000   0.00000000   0.00327697         -0.00      0.00    482.06


     Writing output data file Au.save/

     init_run     :      0.22s CPU      0.23s WALL (       1 calls)
     electrons    :      3.28s CPU      3.70s WALL (       1 calls)
     forces       :      0.01s CPU      0.01s WALL (       1 calls)
     stress       :      0.03s CPU      0.03s WALL (       1 calls)

     Called by init_run:
     wfcinit      :      0.00s CPU      0.00s WALL (       1 calls)
     potinit      :      0.10s CPU      0.12s WALL (       1 calls)
     hinit0       :      0.10s CPU      0.10s WALL (       1 calls)

     Called by electrons:
     c_bands      :      0.29s CPU      0.32s WALL (      28 calls)
     sum_band     :      0.13s CPU      0.14s WALL (      28 calls)
     v_of_rho     :      0.04s CPU      0.04s WALL (      28 calls)
     newd         :      0.06s CPU      0.06s WALL (      28 calls)
     PAW_pot      :      2.83s CPU      3.20s WALL (      28 calls)
     mix_rho      :      0.01s CPU      0.01s WALL (      28 calls)

     Called by c_bands:
     init_us_2    :      0.01s CPU      0.01s WALL (     177 calls)
     cegterg      :      0.27s CPU      0.30s WALL (      84 calls)

     Called by sum_band:
     sum_band:bec :      0.00s CPU      0.00s WALL (      84 calls)
     addusdens    :      0.05s CPU      0.05s WALL (      28 calls)

     Called by *egterg:
     h_psi        :      0.18s CPU      0.20s WALL (     300 calls)
     s_psi        :      0.01s CPU      0.01s WALL (     300 calls)
     g_psi        :      0.00s CPU      0.00s WALL (     213 calls)
     cdiaghg      :      0.06s CPU      0.06s WALL (     294 calls)

     Called by h_psi:
     h_psi:pot    :      0.18s CPU      0.20s WALL (     300 calls)
     h_psi:calbec :      0.01s CPU      0.01s WALL (     300 calls)
     vloc_psi     :      0.16s CPU      0.18s WALL (     300 calls)
     add_vuspsi   :      0.01s CPU      0.01s WALL (     300 calls)

     General routines
     calbec       :      0.01s CPU      0.02s WALL (     399 calls)
     fft          :      0.03s CPU      0.03s WALL (     335 calls)
     ffts         :      0.00s CPU      0.00s WALL (      28 calls)
     fftw         :      0.18s CPU      0.20s WALL (    4978 calls)

     Parallel routines
     fft_scatt_xy :      0.02s CPU      0.02s WALL (    5341 calls)
     fft_scatt_yz :      0.07s CPU      0.08s WALL (    5341 calls)

     PWSCF        :     4.72s CPU         5.21s WALL


   This run was terminated on:  11:21:40  26Mar2024            

=------------------------------------------------------------------------------=
   JOB DONE.
=------------------------------------------------------------------------------=
