
     Program PWSCF v.6.3MaX starts on 26Mar2024 at 11:48:11 

     This program is part of the open-source Quantum ESPRESSO suite
     for quantum simulation of materials; please cite
         "P. Giannozzi et al., J. Phys.:Condens. Matter 21 395502 (2009);
         "P. Giannozzi et al., J. Phys.:Condens. Matter 29 465901 (2017);
          URL http://www.quantum-espresso.org", 
     in publications or presentations arising from this work. More details at
     http://www.quantum-espresso.org/quote

     Parallel version (MPI), running on     5 processors

     MPI processes distributed on     1 nodes
     R & G space division:  proc/nbgrp/npool/nimage =       5
     Waiting for input...
     Reading input from standard input

     Current dimensions of program PWSCF are:
     Max number of different atomic species (ntypx) = 10
     Max number of k-points (npk) =  40000
     Max angular momentum in pseudopotentials (lmaxx) =  3

     Subspace diagonalization in iterative solution of the eigenvalue problem:
     a serial algorithm will be used


     Parallelization info
     --------------------
     sticks:   dense  smooth     PW     G-vecs:    dense   smooth      PW
     Min          89      89     30                 1260     1260     227
     Max          92      92     31                 1261     1261     228
     Sum         451     451    151                 6303     6303    1139



     bravais-lattice index     =            2
     lattice parameter (alat)  =       7.7100  a.u.
     unit-cell volume          =     114.5785 (a.u.)^3
     number of atoms/cell      =            1
     number of atomic types    =            1
     number of electrons       =        11.00
     number of Kohn-Sham states=           10
     kinetic-energy cutoff     =      55.0000  Ry
     charge density cutoff     =     220.0000  Ry
     convergence threshold     =      1.0E-08
     mixing beta               =       0.7000
     number of iterations used =            8  plain     mixing
     Exchange-correlation      = PBESOL ( 1  4 10  8 0 0)

     celldm(1)=   7.710000  celldm(2)=   0.000000  celldm(3)=   0.000000
     celldm(4)=   0.000000  celldm(5)=   0.000000  celldm(6)=   0.000000

     crystal axes: (cart. coord. in units of alat)
               a(1) = (  -0.500000   0.000000   0.500000 )  
               a(2) = (   0.000000   0.500000   0.500000 )  
               a(3) = (  -0.500000   0.500000   0.000000 )  

     reciprocal axes: (cart. coord. in units 2 pi/alat)
               b(1) = ( -1.000000 -1.000000  1.000000 )  
               b(2) = (  1.000000  1.000000  1.000000 )  
               b(3) = ( -1.000000  1.000000 -1.000000 )  


     PseudoPot. # 1 for Au read from file:
     /home/lorenzo/pseudos/Au/Au.pbesol-n-rrkjus_psl.1.0.0.UPF
     MD5 check sum: 09626e9411213730b9a56fcc59c03ca8
     Pseudo is Ultrasoft + core correction, Zval = 11.0
     Generated using "atomic" code by A. Dal Corso v.6.3
     Using radial grid of 1279 points,  6 beta functions with: 
                l(1) =   0
                l(2) =   0
                l(3) =   1
                l(4) =   1
                l(5) =   2
                l(6) =   2
     Q(r) pseudized with 0 coefficients 


     atomic species   valence    mass     pseudopotential
        Au            11.00   196.96600     Au( 1.00)

     48 Sym. Ops., with inversion, found



   Cartesian axes

     site n.     atom                  positions (alat units)
         1           Au  tau(   1) = (   0.0000000   0.0000000   0.0000000  )

     number of k points=     8  gaussian smearing, width (Ry)=  0.0100
                       cart. coord. in units 2pi/alat
        k(    1) = (   0.0000000   0.0000000   0.0000000), wk =   0.0312500
        k(    2) = (  -0.2500000   0.2500000  -0.2500000), wk =   0.2500000
        k(    3) = (   0.5000000  -0.5000000   0.5000000), wk =   0.1250000
        k(    4) = (   0.0000000   0.5000000   0.0000000), wk =   0.1875000
        k(    5) = (   0.7500000  -0.2500000   0.7500000), wk =   0.7500000
        k(    6) = (   0.5000000   0.0000000   0.5000000), wk =   0.3750000
        k(    7) = (   0.0000000  -1.0000000   0.0000000), wk =   0.0937500
        k(    8) = (  -0.5000000  -1.0000000   0.0000000), wk =   0.1875000

     Dense  grid:     6303 G-vectors     FFT dimensions: (  25,  25,  25)

     Estimated max dynamical RAM per process >       6.33 MB

     Estimated total dynamical RAM >      31.63 MB

     Initial potential from superposition of free atoms

     starting charge   10.99990, renormalised to   11.00000
     Starting wfcs are    9 randomized atomic wfcs +    1 random wfcs

     total cpu time spent up to now is        1.2 secs

     Self-consistent Calculation

     iteration #  1     ecut=    55.00 Ry     beta= 0.70
     Davidson diagonalization with overlap
     ethr =  1.00E-02,  avg # of iterations =  6.2

     Threshold (ethr) on eigenvalues was too large:
     Diagonalizing with lowered threshold

     Davidson diagonalization with overlap
     ethr =  5.49E-04,  avg # of iterations =  1.4

     total cpu time spent up to now is        1.4 secs

     total energy              =     -85.18253595 Ry
     Harris-Foulkes estimate   =     -85.21336258 Ry
     estimated scf accuracy    <       0.06221682 Ry

     iteration #  2     ecut=    55.00 Ry     beta= 0.70
     Davidson diagonalization with overlap
     ethr =  5.66E-04,  avg # of iterations =  4.4

     total cpu time spent up to now is        1.5 secs

     total energy              =     -35.91688754 Ry
     Harris-Foulkes estimate   =    -207.66487139 Ry
     estimated scf accuracy    <  192667.62628652 Ry

     iteration #  3     ecut=    55.00 Ry     beta= 0.70
     Davidson diagonalization with overlap
     ethr =  5.66E-04,  avg # of iterations =  7.1

     total cpu time spent up to now is        1.6 secs

     total energy              =     -85.18993518 Ry
     Harris-Foulkes estimate   =     -85.19943807 Ry
     estimated scf accuracy    <       0.02277755 Ry

     iteration #  4     ecut=    55.00 Ry     beta= 0.70
     Davidson diagonalization with overlap
     ethr =  2.07E-04,  avg # of iterations =  3.2

     total cpu time spent up to now is        1.7 secs

     total energy              =     -85.19284071 Ry
     Harris-Foulkes estimate   =     -85.19296626 Ry
     estimated scf accuracy    <       0.00702751 Ry

     iteration #  5     ecut=    55.00 Ry     beta= 0.70
     Davidson diagonalization with overlap
     ethr =  6.39E-05,  avg # of iterations =  1.6

     total cpu time spent up to now is        1.8 secs

     total energy              =     -85.19318767 Ry
     Harris-Foulkes estimate   =     -85.19319685 Ry
     estimated scf accuracy    <       0.00560190 Ry

     iteration #  6     ecut=    55.00 Ry     beta= 0.70
     Davidson diagonalization with overlap
     ethr =  5.09E-05,  avg # of iterations =  1.5

     total cpu time spent up to now is        1.9 secs

     total energy              =     -85.19326676 Ry
     Harris-Foulkes estimate   =     -85.19327264 Ry
     estimated scf accuracy    <       0.00527046 Ry

     iteration #  7     ecut=    55.00 Ry     beta= 0.70
     Davidson diagonalization with overlap
     ethr =  4.79E-05,  avg # of iterations =  1.0

     total cpu time spent up to now is        1.9 secs

     total energy              =     -85.19329569 Ry
     Harris-Foulkes estimate   =     -85.19329691 Ry
     estimated scf accuracy    <       0.00516622 Ry

     iteration #  8     ecut=    55.00 Ry     beta= 0.70
     Davidson diagonalization with overlap
     ethr =  4.70E-05,  avg # of iterations =  1.0

     total cpu time spent up to now is        2.0 secs

     total energy              =     -85.19330200 Ry
     Harris-Foulkes estimate   =     -85.19330558 Ry
     estimated scf accuracy    <       0.00510318 Ry

     iteration #  9     ecut=    55.00 Ry     beta= 0.70
     Davidson diagonalization with overlap
     ethr =  4.64E-05,  avg # of iterations =  1.0

     total cpu time spent up to now is        2.1 secs

     total energy              =     -85.19330116 Ry
     Harris-Foulkes estimate   =     -85.19330523 Ry
     estimated scf accuracy    <       0.00504943 Ry

     iteration # 10     ecut=    55.00 Ry     beta= 0.70
     Davidson diagonalization with overlap
     ethr =  4.59E-05,  avg # of iterations =  1.0

     total cpu time spent up to now is        2.1 secs

     total energy              =     -85.19329910 Ry
     Harris-Foulkes estimate   =     -85.19330297 Ry
     estimated scf accuracy    <       0.00496705 Ry

     iteration # 11     ecut=    55.00 Ry     beta= 0.70
     Davidson diagonalization with overlap
     ethr =  4.52E-05,  avg # of iterations =  1.0

     total cpu time spent up to now is        2.2 secs

     total energy              =     -85.19315365 Ry
     Harris-Foulkes estimate   =     -85.19330012 Ry
     estimated scf accuracy    <       0.00489638 Ry

     iteration # 12     ecut=    55.00 Ry     beta= 0.70
     Davidson diagonalization with overlap
     ethr =  4.45E-05,  avg # of iterations =  2.2

     total cpu time spent up to now is        2.3 secs

     total energy              =     -85.19339827 Ry
     Harris-Foulkes estimate   =     -85.19359437 Ry
     estimated scf accuracy    <       0.00185485 Ry

     iteration # 13     ecut=    55.00 Ry     beta= 0.70
     Davidson diagonalization with overlap
     ethr =  1.69E-05,  avg # of iterations =  1.9

     total cpu time spent up to now is        2.4 secs

     total energy              =     -85.19296079 Ry
     Harris-Foulkes estimate   =     -85.19342733 Ry
     estimated scf accuracy    <       0.00137206 Ry

     iteration # 14     ecut=    55.00 Ry     beta= 0.70
     Davidson diagonalization with overlap
     ethr =  1.25E-05,  avg # of iterations =  1.2

     total cpu time spent up to now is        2.5 secs

     total energy              =     -85.19303574 Ry
     Harris-Foulkes estimate   =     -85.19305858 Ry
     estimated scf accuracy    <       0.00024729 Ry

     iteration # 15     ecut=    55.00 Ry     beta= 0.70
     Davidson diagonalization with overlap
     ethr =  2.25E-06,  avg # of iterations =  2.2

     total cpu time spent up to now is        2.6 secs

     total energy              =     -85.19303732 Ry
     Harris-Foulkes estimate   =     -85.19304916 Ry
     estimated scf accuracy    <       0.00015981 Ry

     iteration # 16     ecut=    55.00 Ry     beta= 0.70
     Davidson diagonalization with overlap
     ethr =  1.45E-06,  avg # of iterations =  1.1

     total cpu time spent up to now is        2.7 secs

     total energy              =     -85.19303080 Ry
     Harris-Foulkes estimate   =     -85.19304317 Ry
     estimated scf accuracy    <       0.00008939 Ry

     iteration # 17     ecut=    55.00 Ry     beta= 0.70
     Davidson diagonalization with overlap
     ethr =  8.13E-07,  avg # of iterations =  2.4

     total cpu time spent up to now is        2.7 secs

     total energy              =     -85.19303927 Ry
     Harris-Foulkes estimate   =     -85.19303949 Ry
     estimated scf accuracy    <       0.00000416 Ry

     iteration # 18     ecut=    55.00 Ry     beta= 0.70
     Davidson diagonalization with overlap
     ethr =  3.79E-08,  avg # of iterations =  2.8

     total cpu time spent up to now is        2.8 secs

     total energy              =     -85.19303869 Ry
     Harris-Foulkes estimate   =     -85.19303997 Ry
     estimated scf accuracy    <       0.00000283 Ry

     iteration # 19     ecut=    55.00 Ry     beta= 0.70
     Davidson diagonalization with overlap
     ethr =  2.58E-08,  avg # of iterations =  1.4

     total cpu time spent up to now is        2.9 secs

     total energy              =     -85.19303894 Ry
     Harris-Foulkes estimate   =     -85.19303909 Ry
     estimated scf accuracy    <       0.00000057 Ry

     iteration # 20     ecut=    55.00 Ry     beta= 0.70
     Davidson diagonalization with overlap
     ethr =  5.22E-09,  avg # of iterations =  2.5

     total cpu time spent up to now is        3.0 secs

     total energy              =     -85.19303906 Ry
     Harris-Foulkes estimate   =     -85.19303907 Ry
     estimated scf accuracy    <       0.00000021 Ry

     iteration # 21     ecut=    55.00 Ry     beta= 0.70
     Davidson diagonalization with overlap
     ethr =  1.88E-09,  avg # of iterations =  1.0

     total cpu time spent up to now is        3.1 secs

     total energy              =     -85.19303903 Ry
     Harris-Foulkes estimate   =     -85.19303906 Ry
     estimated scf accuracy    <       0.00000014 Ry

     iteration # 22     ecut=    55.00 Ry     beta= 0.70
     Davidson diagonalization with overlap
     ethr =  1.28E-09,  avg # of iterations =  2.8

     total cpu time spent up to now is        3.2 secs

     total energy              =     -85.19303913 Ry
     Harris-Foulkes estimate   =     -85.19303909 Ry
     estimated scf accuracy    <       0.00000068 Ry

     iteration # 23     ecut=    55.00 Ry     beta= 0.70
     Davidson diagonalization with overlap
     ethr =  1.28E-09,  avg # of iterations =  1.4

     total cpu time spent up to now is        3.3 secs

     total energy              =     -85.19303907 Ry
     Harris-Foulkes estimate   =     -85.19303914 Ry
     estimated scf accuracy    <       0.00000096 Ry

     iteration # 24     ecut=    55.00 Ry     beta= 0.70
     Davidson diagonalization with overlap
     ethr =  1.28E-09,  avg # of iterations =  1.5

     total cpu time spent up to now is        3.4 secs

     total energy              =     -85.19303906 Ry
     Harris-Foulkes estimate   =     -85.19303908 Ry
     estimated scf accuracy    <       0.00000048 Ry

     iteration # 25     ecut=    55.00 Ry     beta= 0.70
     Davidson diagonalization with overlap
     ethr =  1.28E-09,  avg # of iterations =  1.8

     total cpu time spent up to now is        3.5 secs

     total energy              =     -85.19303906 Ry
     Harris-Foulkes estimate   =     -85.19303907 Ry
     estimated scf accuracy    <       0.00000018 Ry

     iteration # 26     ecut=    55.00 Ry     beta= 0.70
     Davidson diagonalization with overlap
     ethr =  1.28E-09,  avg # of iterations =  1.0

     total cpu time spent up to now is        3.7 secs

     total energy              =     -85.19303905 Ry
     Harris-Foulkes estimate   =     -85.19303906 Ry
     estimated scf accuracy    <       0.00000013 Ry

     iteration # 27     ecut=    55.00 Ry     beta= 0.70
     Davidson diagonalization with overlap
     ethr =  1.20E-09,  avg # of iterations =  1.5

     total cpu time spent up to now is        3.8 secs

     total energy              =     -85.19303906 Ry
     Harris-Foulkes estimate   =     -85.19303906 Ry
     estimated scf accuracy    <       0.00000001 Ry

     iteration # 28     ecut=    55.00 Ry     beta= 0.70
     Davidson diagonalization with overlap
     ethr =  9.31E-11,  avg # of iterations =  2.9

     total cpu time spent up to now is        3.9 secs

     End of self-consistent calculation

          k = 0.0000 0.0000 0.0000 (   749 PWs)   bands (ev):

     5.8333  11.1226  11.1226  11.1226  12.6704  12.6704  31.1324  35.0052
    35.0052  35.0052

          k =-0.2500 0.2500-0.2500 (   797 PWs)   bands (ev):

     7.6474  10.9698  11.4089  11.4089  12.8379  12.8379  27.1079  32.0925
    35.9668  35.9668

          k = 0.5000-0.5000 0.5000 (   796 PWs)   bands (ev):

     8.4424  11.0878  11.0878  13.8850  13.8850  14.7567  18.9151  30.4208
    33.3565  33.3565

          k = 0.0000 0.5000 0.0000 (   817 PWs)   bands (ev):

     8.2749   9.9846  11.8152  12.3731  12.3731  13.2306  30.7781  30.7781
    31.9351  32.9006

          k = 0.7500-0.2500 0.7500 (   788 PWs)   bands (ev):

     9.3195  10.2438  11.4521  12.3268  13.9757  16.8395  21.2527  27.3238
    29.4284  32.9883

          k = 0.5000 0.0000 0.5000 (   792 PWs)   bands (ev):

     9.6573  10.5687  10.9120  12.0617  12.6564  15.5468  24.3745  26.1246
    32.7973  34.0848

          k = 0.0000-1.0000 0.0000 (   790 PWs)   bands (ev):

     8.6974   9.0329  13.8390  14.2146  14.2146  16.7626  21.5409  25.9665
    25.9665  32.7911

          k =-0.5000-1.0000 0.0000 (   772 PWs)   bands (ev):

     9.8197  10.6355  10.6355  12.5157  14.2167  20.5519  22.1376  22.1376
    25.1227  39.3360

     the Fermi energy is    16.6524 ev

!    total energy              =     -85.19303906 Ry
     Harris-Foulkes estimate   =     -85.19303906 Ry
     estimated scf accuracy    <          7.1E-12 Ry

     The total energy is the sum of the following terms:

     one-electron contribution =      11.03392139 Ry
     hartree contribution      =       7.53330665 Ry
     xc contribution           =     -31.80542507 Ry
     ewald contribution        =     -71.95438542 Ry
     smearing contrib. (-TS)   =      -0.00045661 Ry

     convergence has been achieved in  28 iterations

     Forces acting on atoms (cartesian axes, Ry/au):

     atom    1 type  1   force =     0.00000000    0.00000000    0.00000000

     Total force =     0.000000     Total SCF correction =     0.000000


     Computing stress (Cartesian axis) and pressure

          total   stress  (Ry/bohr**3)                   (kbar)     P=   37.79
   0.00025691  -0.00000000  -0.00000000         37.79     -0.00     -0.00
  -0.00000000   0.00025691   0.00000000         -0.00     37.79      0.00
  -0.00000000   0.00000000   0.00025691         -0.00      0.00     37.79


     Writing output data file Au.save/

     init_run     :      0.19s CPU      0.20s WALL (       1 calls)
     electrons    :      2.58s CPU      2.68s WALL (       1 calls)
     forces       :      0.04s CPU      0.04s WALL (       1 calls)
     stress       :      0.12s CPU      0.12s WALL (       1 calls)

     Called by init_run:
     wfcinit      :      0.02s CPU      0.02s WALL (       1 calls)
     potinit      :      0.01s CPU      0.01s WALL (       1 calls)
     hinit0       :      0.15s CPU      0.15s WALL (       1 calls)

     Called by electrons:
     c_bands      :      1.71s CPU      1.78s WALL (      29 calls)
     sum_band     :      0.54s CPU      0.56s WALL (      29 calls)
     v_of_rho     :      0.11s CPU      0.11s WALL (      29 calls)
     newd         :      0.20s CPU      0.21s WALL (      29 calls)
     mix_rho      :      0.02s CPU      0.02s WALL (      29 calls)

     Called by c_bands:
     init_us_2    :      0.06s CPU      0.06s WALL (     488 calls)
     cegterg      :      1.63s CPU      1.69s WALL (     232 calls)

     Called by sum_band:
     sum_band:bec :      0.00s CPU      0.00s WALL (     232 calls)
     addusdens    :      0.18s CPU      0.18s WALL (      29 calls)

     Called by *egterg:
     h_psi        :      1.22s CPU      1.27s WALL (     736 calls)
     s_psi        :      0.03s CPU      0.04s WALL (     736 calls)
     g_psi        :      0.01s CPU      0.01s WALL (     496 calls)
     cdiaghg      :      0.17s CPU      0.17s WALL (     720 calls)

     Called by h_psi:
     h_psi:pot    :      1.22s CPU      1.27s WALL (     736 calls)
     h_psi:calbec :      0.07s CPU      0.07s WALL (     736 calls)
     vloc_psi     :      1.10s CPU      1.15s WALL (     736 calls)
     add_vuspsi   :      0.04s CPU      0.04s WALL (     736 calls)

     General routines
     calbec       :      0.10s CPU      0.11s WALL (    1008 calls)
     fft          :      0.07s CPU      0.08s WALL (     346 calls)
     ffts         :      0.01s CPU      0.01s WALL (      29 calls)
     fftw         :      1.27s CPU      1.32s WALL (   13164 calls)

     Parallel routines
     fft_scatt_xy :      0.10s CPU      0.10s WALL (   13539 calls)
     fft_scatt_yz :      0.48s CPU      0.50s WALL (   13539 calls)

     PWSCF        :     3.92s CPU         4.07s WALL


   This run was terminated on:  11:48:15  26Mar2024            

=------------------------------------------------------------------------------=
   JOB DONE.
=------------------------------------------------------------------------------=
