
     Program PWSCF v.6.3MaX starts on 26Mar2024 at 11:50:16 

     This program is part of the open-source Quantum ESPRESSO suite
     for quantum simulation of materials; please cite
         "P. Giannozzi et al., J. Phys.:Condens. Matter 21 395502 (2009);
         "P. Giannozzi et al., J. Phys.:Condens. Matter 29 465901 (2017);
          URL http://www.quantum-espresso.org", 
     in publications or presentations arising from this work. More details at
     http://www.quantum-espresso.org/quote

     Parallel version (MPI), running on     5 processors

     MPI processes distributed on     1 nodes
     R & G space division:  proc/nbgrp/npool/nimage =       5
     Waiting for input...
     Reading input from standard input

     Current dimensions of program PWSCF are:
     Max number of different atomic species (ntypx) = 10
     Max number of k-points (npk) =  40000
     Max angular momentum in pseudopotentials (lmaxx) =  3
               file Au.pbesol-n-kjpaw_psl.1.0.0.UPF: wavefunction(s)  6S 5D renormalized

     Subspace diagonalization in iterative solution of the eigenvalue problem:
     a serial algorithm will be used


     Parallelization info
     --------------------
     sticks:   dense  smooth     PW     G-vecs:    dense   smooth      PW
     Min          89      89     30                 1260     1260     241
     Max          92      92     31                 1261     1261     244
     Sum         451     451    151                 6303     6303    1211



     bravais-lattice index     =            2
     lattice parameter (alat)  =       7.7100  a.u.
     unit-cell volume          =     114.5785 (a.u.)^3
     number of atoms/cell      =            1
     number of atomic types    =            1
     number of electrons       =        11.00
     number of Kohn-Sham states=           10
     kinetic-energy cutoff     =      55.0000  Ry
     charge density cutoff     =     220.0000  Ry
     convergence threshold     =      1.0E-08
     mixing beta               =       0.7000
     number of iterations used =            8  plain     mixing
     Exchange-correlation      = SLA PW PSX PSC ( 1  4 10  8 0 0)

     celldm(1)=   7.710000  celldm(2)=   0.000000  celldm(3)=   0.000000
     celldm(4)=   0.000000  celldm(5)=   0.000000  celldm(6)=   0.000000

     crystal axes: (cart. coord. in units of alat)
               a(1) = (  -0.500000   0.000000   0.500000 )  
               a(2) = (   0.000000   0.500000   0.500000 )  
               a(3) = (  -0.500000   0.500000   0.000000 )  

     reciprocal axes: (cart. coord. in units 2 pi/alat)
               b(1) = ( -1.000000 -1.000000  1.000000 )  
               b(2) = (  1.000000  1.000000  1.000000 )  
               b(3) = ( -1.000000  1.000000 -1.000000 )  


     PseudoPot. # 1 for Au read from file:
     /home/lorenzo/pseudos/Au/Au.pbesol-n-kjpaw_psl.1.0.0.UPF
     MD5 check sum: abc371be705c47a6b6a6b4088b452d3e
     Pseudo is Projector augmented-wave + core cor, Zval = 11.0
     Generated using "atomic" code by A. Dal Corso v.6.3
     Shape of augmentation charge: PSQ
     Using radial grid of 1279 points,  6 beta functions with: 
                l(1) =   0
                l(2) =   0
                l(3) =   1
                l(4) =   1
                l(5) =   2
                l(6) =   2
     Q(r) pseudized with 0 coefficients 


     atomic species   valence    mass     pseudopotential
        Au            11.00   196.96600     Au( 1.00)

     48 Sym. Ops., with inversion, found



   Cartesian axes

     site n.     atom                  positions (alat units)
         1           Au  tau(   1) = (   0.0000000   0.0000000   0.0000000  )

     number of k points=    35  gaussian smearing, width (Ry)=  0.0100
                       cart. coord. in units 2pi/alat
        k(    1) = (   0.0000000   0.0000000   0.0000000), wk =   0.0027435
        k(    2) = (  -0.1111111   0.1111111  -0.1111111), wk =   0.0219479
        k(    3) = (  -0.2222222   0.2222222  -0.2222222), wk =   0.0219479
        k(    4) = (  -0.3333333   0.3333333  -0.3333333), wk =   0.0219479
        k(    5) = (  -0.4444444   0.4444444  -0.4444444), wk =   0.0219479
        k(    6) = (   0.0000000   0.2222222   0.0000000), wk =   0.0164609
        k(    7) = (  -0.1111111   0.3333333  -0.1111111), wk =   0.0658436
        k(    8) = (  -0.2222222   0.4444444  -0.2222222), wk =   0.0658436
        k(    9) = (  -0.3333333   0.5555556  -0.3333333), wk =   0.0658436
        k(   10) = (   0.5555556  -0.3333333   0.5555556), wk =   0.0658436
        k(   11) = (   0.4444444  -0.2222222   0.4444444), wk =   0.0658436
        k(   12) = (   0.3333333  -0.1111111   0.3333333), wk =   0.0658436
        k(   13) = (   0.2222222  -0.0000000   0.2222222), wk =   0.0329218
        k(   14) = (   0.0000000   0.4444444   0.0000000), wk =   0.0164609
        k(   15) = (  -0.1111111   0.5555556  -0.1111111), wk =   0.0658436
        k(   16) = (  -0.2222222   0.6666667  -0.2222222), wk =   0.0658436
        k(   17) = (   0.6666667  -0.2222222   0.6666667), wk =   0.0658436
        k(   18) = (   0.5555556  -0.1111111   0.5555556), wk =   0.0658436
        k(   19) = (   0.4444444   0.0000000   0.4444444), wk =   0.0329218
        k(   20) = (   0.0000000   0.6666667   0.0000000), wk =   0.0164609
        k(   21) = (  -0.1111111   0.7777778  -0.1111111), wk =   0.0658436
        k(   22) = (   0.7777778  -0.1111111   0.7777778), wk =   0.0658436
        k(   23) = (   0.6666667  -0.0000000   0.6666667), wk =   0.0329218
        k(   24) = (   0.0000000   0.8888889   0.0000000), wk =   0.0164609
        k(   25) = (   0.8888889   0.0000000   0.8888889), wk =   0.0329218
        k(   26) = (  -0.2222222   0.4444444   0.0000000), wk =   0.0658436
        k(   27) = (  -0.3333333   0.5555556  -0.1111111), wk =   0.1316872
        k(   28) = (   0.5555556  -0.3333333   0.7777778), wk =   0.1316872
        k(   29) = (  -0.2222222   0.6666667   0.0000000), wk =   0.0658436
        k(   30) = (   0.6666667  -0.2222222   0.8888889), wk =   0.1316872
        k(   31) = (   0.5555556  -0.1111111   0.7777778), wk =   0.1316872
        k(   32) = (   0.4444444   0.0000000   0.6666667), wk =   0.0658436
        k(   33) = (   0.7777778  -0.1111111   1.0000000), wk =   0.0658436
        k(   34) = (   0.6666667  -0.0000000   0.8888889), wk =   0.0658436
        k(   35) = (   0.5555556  -0.1111111   1.0000000), wk =   0.0658436

     Dense  grid:     6303 G-vectors     FFT dimensions: (  25,  25,  25)

     Estimated max dynamical RAM per process >       6.97 MB

     Estimated total dynamical RAM >      34.87 MB

     Initial potential from superposition of free atoms

     starting charge   10.99990, renormalised to   11.00000
     Starting wfcs are    9 randomized atomic wfcs +    1 random wfcs
     Checking if some PAW data can be deallocated... 

     total cpu time spent up to now is        1.7 secs

     Self-consistent Calculation

     iteration #  1     ecut=    55.00 Ry     beta= 0.70
     Davidson diagonalization with overlap
     ethr =  1.00E-02,  avg # of iterations =  5.4

     Threshold (ethr) on eigenvalues was too large:
     Diagonalizing with lowered threshold

     Davidson diagonalization with overlap
     ethr =  5.60E-04,  avg # of iterations =  1.5

     total cpu time spent up to now is        3.2 secs

     total energy              =    -764.66664487 Ry
     Harris-Foulkes estimate   =    -764.70381146 Ry
     estimated scf accuracy    <       0.06290165 Ry

     iteration #  2     ecut=    55.00 Ry     beta= 0.70
     Davidson diagonalization with overlap
     ethr =  5.72E-04,  avg # of iterations =  4.4

     total cpu time spent up to now is        4.1 secs

     total energy              =    -717.63448120 Ry
     Harris-Foulkes estimate   =    -848.10509825 Ry
     estimated scf accuracy    <  186951.77333658 Ry

     iteration #  3     ecut=    55.00 Ry     beta= 0.70
     Davidson diagonalization with overlap
     ethr =  5.72E-04,  avg # of iterations =  7.3

     total cpu time spent up to now is        5.4 secs

     total energy              =    -764.67938937 Ry
     Harris-Foulkes estimate   =    -764.69214554 Ry
     estimated scf accuracy    <       0.02681356 Ry

     iteration #  4     ecut=    55.00 Ry     beta= 0.70
     Davidson diagonalization with overlap
     ethr =  2.44E-04,  avg # of iterations =  1.5

     total cpu time spent up to now is        6.2 secs

     total energy              =    -764.68341281 Ry
     Harris-Foulkes estimate   =    -764.68351227 Ry
     estimated scf accuracy    <       0.00592946 Ry

     iteration #  5     ecut=    55.00 Ry     beta= 0.70
     Davidson diagonalization with overlap
     ethr =  5.39E-05,  avg # of iterations =  2.2

     total cpu time spent up to now is        6.9 secs

     total energy              =    -764.68407557 Ry
     Harris-Foulkes estimate   =    -764.68416114 Ry
     estimated scf accuracy    <       0.00439649 Ry

     iteration #  6     ecut=    55.00 Ry     beta= 0.70
     Davidson diagonalization with overlap
     ethr =  4.00E-05,  avg # of iterations =  1.0

     total cpu time spent up to now is        7.6 secs

     total energy              =    -764.68412715 Ry
     Harris-Foulkes estimate   =    -764.68413751 Ry
     estimated scf accuracy    <       0.00427328 Ry

     iteration #  7     ecut=    55.00 Ry     beta= 0.70
     Davidson diagonalization with overlap
     ethr =  3.88E-05,  avg # of iterations =  1.0

     total cpu time spent up to now is        8.4 secs

     total energy              =    -764.68414129 Ry
     Harris-Foulkes estimate   =    -764.68414225 Ry
     estimated scf accuracy    <       0.00435782 Ry

     iteration #  8     ecut=    55.00 Ry     beta= 0.70
     Davidson diagonalization with overlap
     ethr =  3.88E-05,  avg # of iterations =  1.0

     total cpu time spent up to now is        9.2 secs

     total energy              =    -764.68410754 Ry
     Harris-Foulkes estimate   =    -764.68414725 Ry
     estimated scf accuracy    <       0.00438985 Ry

     iteration #  9     ecut=    55.00 Ry     beta= 0.70
     Davidson diagonalization with overlap
     ethr =  3.88E-05,  avg # of iterations =  1.2

     total cpu time spent up to now is        9.9 secs

     total energy              =    -764.68413067 Ry
     Harris-Foulkes estimate   =    -764.68413118 Ry
     estimated scf accuracy    <       0.00439399 Ry

     iteration # 10     ecut=    55.00 Ry     beta= 0.70
     Davidson diagonalization with overlap
     ethr =  3.88E-05,  avg # of iterations =  1.1

     total cpu time spent up to now is       10.5 secs

     total energy              =    -764.68413146 Ry
     Harris-Foulkes estimate   =    -764.68413302 Ry
     estimated scf accuracy    <       0.00440805 Ry

     iteration # 11     ecut=    55.00 Ry     beta= 0.70
     Davidson diagonalization with overlap
     ethr =  3.88E-05,  avg # of iterations =  1.0

     total cpu time spent up to now is       11.3 secs

     total energy              =    -764.68481798 Ry
     Harris-Foulkes estimate   =    -764.68413214 Ry
     estimated scf accuracy    <       0.00443097 Ry

     iteration # 12     ecut=    55.00 Ry     beta= 0.70
     Davidson diagonalization with overlap
     ethr =  3.88E-05,  avg # of iterations =  1.5

     total cpu time spent up to now is       12.3 secs

     total energy              =    -764.68534183 Ry
     Harris-Foulkes estimate   =    -764.68554939 Ry
     estimated scf accuracy    <       0.00693043 Ry

     iteration # 13     ecut=    55.00 Ry     beta= 0.70
     Davidson diagonalization with overlap
     ethr =  3.88E-05,  avg # of iterations =  1.0

     total cpu time spent up to now is       13.1 secs

     total energy              =    -764.68671961 Ry
     Harris-Foulkes estimate   =    -764.68541097 Ry
     estimated scf accuracy    <       0.00651591 Ry

     iteration # 14     ecut=    55.00 Ry     beta= 0.70
     Davidson diagonalization with overlap
     ethr =  3.88E-05,  avg # of iterations =  1.0

     total cpu time spent up to now is       14.2 secs

     total energy              =    -764.69099177 Ry
     Harris-Foulkes estimate   =    -764.68692832 Ry
     estimated scf accuracy    <       0.00924323 Ry

     iteration # 15     ecut=    55.00 Ry     beta= 0.70
     Davidson diagonalization with overlap
     ethr =  3.88E-05,  avg # of iterations =  2.1

     total cpu time spent up to now is       15.2 secs

     total energy              =    -764.68399282 Ry
     Harris-Foulkes estimate   =    -764.69173101 Ry
     estimated scf accuracy    <       0.01864631 Ry

     iteration # 16     ecut=    55.00 Ry     beta= 0.70
     Davidson diagonalization with overlap
     ethr =  3.88E-05,  avg # of iterations =  3.0

     total cpu time spent up to now is       15.9 secs

     total energy              =    -764.68455966 Ry
     Harris-Foulkes estimate   =    -764.68582834 Ry
     estimated scf accuracy    <       0.01003593 Ry

     iteration # 17     ecut=    55.00 Ry     beta= 0.70
     Davidson diagonalization with overlap
     ethr =  3.88E-05,  avg # of iterations =  1.0

     total cpu time spent up to now is       16.5 secs

     total energy              =    -764.68340693 Ry
     Harris-Foulkes estimate   =    -764.68465319 Ry
     estimated scf accuracy    <       0.00606261 Ry

     iteration # 18     ecut=    55.00 Ry     beta= 0.70
     Davidson diagonalization with overlap
     ethr =  3.88E-05,  avg # of iterations =  1.9

     total cpu time spent up to now is       17.2 secs

     total energy              =    -764.68382207 Ry
     Harris-Foulkes estimate   =    -764.68381490 Ry
     estimated scf accuracy    <       0.00069221 Ry

     iteration # 19     ecut=    55.00 Ry     beta= 0.70
     Davidson diagonalization with overlap
     ethr =  6.29E-06,  avg # of iterations =  1.6

     total cpu time spent up to now is       17.6 secs

     total energy              =    -764.68384553 Ry
     Harris-Foulkes estimate   =    -764.68385082 Ry
     estimated scf accuracy    <       0.00028040 Ry

     iteration # 20     ecut=    55.00 Ry     beta= 0.70
     Davidson diagonalization with overlap
     ethr =  2.55E-06,  avg # of iterations =  3.1

     total cpu time spent up to now is       18.3 secs

     total energy              =    -764.68385345 Ry
     Harris-Foulkes estimate   =    -764.68385989 Ry
     estimated scf accuracy    <       0.00006390 Ry

     iteration # 21     ecut=    55.00 Ry     beta= 0.70
     Davidson diagonalization with overlap
     ethr =  5.81E-07,  avg # of iterations =  2.4

     total cpu time spent up to now is       18.9 secs

     total energy              =    -764.68386013 Ry
     Harris-Foulkes estimate   =    -764.68386050 Ry
     estimated scf accuracy    <       0.00000245 Ry

     iteration # 22     ecut=    55.00 Ry     beta= 0.70
     Davidson diagonalization with overlap
     ethr =  2.23E-08,  avg # of iterations =  3.4

     total cpu time spent up to now is       19.6 secs

     total energy              =    -764.68386040 Ry
     Harris-Foulkes estimate   =    -764.68386102 Ry
     estimated scf accuracy    <       0.00000584 Ry

     iteration # 23     ecut=    55.00 Ry     beta= 0.70
     Davidson diagonalization with overlap
     ethr =  2.23E-08,  avg # of iterations =  1.8

     total cpu time spent up to now is       20.8 secs

     total energy              =    -764.68386059 Ry
     Harris-Foulkes estimate   =    -764.68386066 Ry
     estimated scf accuracy    <       0.00000034 Ry

     iteration # 24     ecut=    55.00 Ry     beta= 0.70
     Davidson diagonalization with overlap
     ethr =  3.06E-09,  avg # of iterations =  2.4

     total cpu time spent up to now is       21.5 secs

     End of self-consistent calculation

          k = 0.0000 0.0000 0.0000 (   749 PWs)   bands (ev):

     5.8132  11.0851  11.0851  11.0851  12.6224  12.6224  31.1342  34.9828
    34.9828  34.9828

          k =-0.1111 0.1111-0.1111 (   803 PWs)   bands (ev):

     6.2371  10.9576  11.2226  11.2226  12.5704  12.5704  31.4705  32.5880
    35.3817  35.3817

          k =-0.2222 0.2222-0.2222 (   800 PWs)   bands (ev):

     7.3291  10.8563  11.3818  11.3818  12.6828  12.6828  28.1797  32.2184
    35.9982  35.9982

          k =-0.3333 0.3333-0.3333 (   787 PWs)   bands (ev):

     8.2455  11.2400  11.2400  11.7754  13.2419  13.2419  23.7025  31.3144
    34.9108  34.9108

          k =-0.4444 0.4444-0.4444 (   793 PWs)   bands (ev):

     8.4141  11.0724  11.0724  13.7575  13.7575  14.0612  19.7442  30.5183
    33.5338  33.5338

          k = 0.0000 0.2222 0.0000 (   797 PWs)   bands (ev):

     6.3808  10.7985  11.3454  11.3454  12.3199  12.7492  31.7744  33.4098
    34.2645  34.2645

          k =-0.1111 0.3333-0.1111 (   802 PWs)   bands (ev):

     7.2778  10.5442  11.5125  11.5987  12.2735  12.9236  29.8740  32.4624
    33.5046  35.2855

          k =-0.2222 0.4444-0.2222 (   790 PWs)   bands (ev):

     8.3751  10.7594  11.2020  11.5735  13.1654  13.3895  25.3805  31.8369
    32.6778  34.5400

          k =-0.3333 0.5556-0.3333 (   790 PWs)   bands (ev):

     8.7102  10.9167  11.3827  11.9633  13.8208  14.8464  21.0345  30.8031
    32.1557  32.7878

          k = 0.5556-0.3333 0.5556 (   793 PWs)   bands (ev):

     8.7295  10.8596  11.2867  12.6129  13.7316  16.2142  18.9954  30.2611
    31.8011  32.7808

          k = 0.4444-0.2222 0.4444 (   793 PWs)   bands (ev):

     8.7016  11.0186  11.3810  11.7328  13.1090  14.5532  22.4693  30.3483
    32.2034  34.8382

          k = 0.3333-0.1111 0.3333 (   790 PWs)   bands (ev):

     8.0755  10.6661  11.3496  11.5929  12.3769  13.4884  26.8766  30.9311
    33.8092  36.3974

          k = 0.2222-0.0000 0.2222 (   799 PWs)   bands (ev):

     6.9050  10.7323  11.4135  11.4375  12.2844  12.8365  30.7404  31.5874
    34.2573  37.2082

          k = 0.0000 0.4444 0.0000 (   801 PWs)   bands (ev):

     7.8596  10.1329  11.7859  12.0868  12.0868  13.0806  31.5762  31.5762
    32.1869  33.2925

          k =-0.1111 0.5556-0.1111 (   801 PWs)   bands (ev):

     8.7510   9.9066  11.4331  12.3100  13.2061  13.4612  27.3382  30.2432
    30.9874  33.2815

          k =-0.2222 0.6667-0.2222 (   792 PWs)   bands (ev):

     9.1940  10.2599  11.2260  12.1508  13.8855  15.3198  22.7833  28.9383
    29.7824  32.9257

          k = 0.6667-0.2222 0.6667 (   795 PWs)   bands (ev):

     9.3383  10.4685  11.5109  11.9645  13.7671  18.2602  19.0441  27.2908
    30.5970  32.4736

          k = 0.5556-0.1111 0.5556 (   785 PWs)   bands (ev):

     9.5327  10.6112  11.2184  11.9087  13.1055  16.3814  21.9683  26.4721
    32.4665  32.6816

          k = 0.4444 0.0000 0.4444 (   796 PWs)   bands (ev):

     9.2263  10.4571  11.0426  11.9734  12.3449  14.7523  25.4017  27.3965
    33.0722  35.4804

          k = 0.0000 0.6667 0.0000 (   797 PWs)   bands (ev):

     8.8659   9.4588  12.7313  13.1368  13.1368  13.4772  27.8989  28.3663
    28.3663  32.3109

          k =-0.1111 0.7778-0.1111 (   784 PWs)   bands (ev):

     9.0002   9.3796  12.5836  13.1404  13.9191  15.3886  24.1757  26.5157
    27.5484  33.3835

          k = 0.7778-0.1111 0.7778 (   782 PWs)   bands (ev):

     9.2200   9.7947  12.0309  12.8817  13.8777  18.5451  20.8123  24.4485
    28.1951  33.5442

          k = 0.6667-0.0000 0.6667 (   792 PWs)   bands (ev):

     9.5919  10.3966  11.2728  12.5090  13.3919  18.2285  22.2442  22.8849
    30.1389  33.0822

          k = 0.0000 0.8889 0.0000 (   785 PWs)   bands (ev):

     8.7126   9.0561  13.7488  14.0244  14.0244  15.8088  22.6859  26.2437
    26.2437  32.6945

          k = 0.8889 0.0000 0.8889 (   778 PWs)   bands (ev):

     8.8399   9.1759  13.3589  13.5680  14.0731  17.8444  21.2034  24.8502
    26.4934  33.6158

          k =-0.2222 0.4444 0.0000 (   802 PWs)   bands (ev):

     8.2738  10.2655  11.2873  12.0917  12.3020  13.5198  28.2235  29.9004
    33.2014  34.9140

          k =-0.3333 0.5556-0.1111 (   789 PWs)   bands (ev):

     9.1728  10.5315  10.8607  12.0204  13.0582  14.7409  24.2439  28.7078
    31.3040  34.9592

          k = 0.5556-0.3333 0.7778 (   794 PWs)   bands (ev):

     9.2670  10.5540  11.4950  11.8409  13.6505  16.8036  20.2020  28.6789
    29.8401  33.7510

          k =-0.2222 0.6667 0.0000 (   793 PWs)   bands (ev):

     9.2883   9.7111  11.3820  13.0842  13.1277  14.8181  25.5528  27.2499
    28.9065  35.1502

          k = 0.6667-0.2222 0.8889 (   785 PWs)   bands (ev):

     9.5320  10.0299  11.1897  12.7187  13.7535  17.1469  22.0602  26.1141
    27.5582  35.1190

          k = 0.5556-0.1111 0.7778 (   789 PWs)   bands (ev):

     9.8089  10.2504  11.0621  12.3897  13.6726  18.7463  20.4674  24.9063
    28.2047  35.0228

          k = 0.4444 0.0000 0.6667 (   783 PWs)   bands (ev):

    10.1090  10.3847  10.4091  12.4551  13.1470  16.5082  23.5319  24.8564
    29.7737  35.5281

          k = 0.7778-0.1111 1.0000 (   783 PWs)   bands (ev):

     9.0915   9.3685  12.4763  13.3932  14.0227  17.5078  22.2306  25.3264
    25.8476  35.0690

          k = 0.6667-0.0000 0.8889 (   774 PWs)   bands (ev):

     9.4107   9.8326  11.7491  12.8600  14.0152  20.2829  20.2971  23.3922
    26.4882  35.5945

          k = 0.5556-0.1111 1.0000 (   775 PWs)   bands (ev):

     9.8118  10.2905  10.8288  12.5783  14.0177  19.3313  22.2024  23.0565
    25.8209  38.1934

     the Fermi energy is    15.7441 ev

!    total energy              =    -764.68386065 Ry
     Harris-Foulkes estimate   =    -764.68386064 Ry
     estimated scf accuracy    <          7.3E-09 Ry

     total all-electron energy =    -38013.518323 Ry

     The total energy is the sum of the following terms:

     one-electron contribution =      13.86030550 Ry
     hartree contribution      =       7.57737923 Ry
     xc contribution           =     -31.82182151 Ry
     ewald contribution        =     -71.95438542 Ry
     one-center paw contrib.   =    -682.34530120 Ry
     smearing contrib. (-TS)   =      -0.00003724 Ry

     convergence has been achieved in  24 iterations

     Forces acting on atoms (cartesian axes, Ry/au):

     atom    1 type  1   force =     0.00000000    0.00000000    0.00000000

     Total force =     0.000000     Total SCF correction =     0.000000


     Computing stress (Cartesian axis) and pressure

          total   stress  (Ry/bohr**3)                   (kbar)     P=   10.86
   0.00007382   0.00000000   0.00000000         10.86      0.00      0.00
   0.00000000   0.00007382  -0.00000000          0.00     10.86     -0.00
   0.00000000  -0.00000000   0.00007382          0.00     -0.00     10.86


     Writing output data file Au.save/

     init_run     :      0.57s CPU      0.61s WALL (       1 calls)
     electrons    :     18.72s CPU     19.71s WALL (       1 calls)
     forces       :      0.05s CPU      0.05s WALL (       1 calls)
     stress       :      0.21s CPU      0.21s WALL (       1 calls)

     Called by init_run:
     wfcinit      :      0.16s CPU      0.17s WALL (       1 calls)
     potinit      :      0.19s CPU      0.20s WALL (       1 calls)
     hinit0       :      0.19s CPU      0.19s WALL (       1 calls)

     Called by electrons:
     c_bands      :     11.97s CPU     12.39s WALL (      25 calls)
     sum_band     :      2.63s CPU      2.71s WALL (      25 calls)
     v_of_rho     :      0.16s CPU      0.17s WALL (      25 calls)
     newd         :      0.26s CPU      0.30s WALL (      25 calls)
     PAW_pot      :      3.82s CPU      4.29s WALL (      25 calls)
     mix_rho      :      0.03s CPU      0.03s WALL (      25 calls)

     Called by c_bands:
     init_us_2    :      0.26s CPU      0.27s WALL (    1855 calls)
     cegterg      :     11.35s CPU     11.75s WALL (     875 calls)

     Called by sum_band:
     sum_band:bec :      0.02s CPU      0.02s WALL (     875 calls)
     addusdens    :      0.18s CPU      0.19s WALL (      25 calls)

     Called by *egterg:
     h_psi        :      8.64s CPU      8.95s WALL (    2827 calls)
     s_psi        :      0.16s CPU      0.17s WALL (    2827 calls)
     g_psi        :      0.03s CPU      0.03s WALL (    1917 calls)
     cdiaghg      :      1.02s CPU      1.05s WALL (    2757 calls)

     Called by h_psi:
     h_psi:pot    :      8.61s CPU      8.92s WALL (    2827 calls)
     h_psi:calbec :      0.56s CPU      0.58s WALL (    2827 calls)
     vloc_psi     :      7.85s CPU      8.13s WALL (    2827 calls)
     add_vuspsi   :      0.17s CPU      0.18s WALL (    2827 calls)

     General routines
     calbec       :      0.91s CPU      0.94s WALL (    3877 calls)
     fft          :      0.12s CPU      0.12s WALL (     302 calls)
     ffts         :      0.01s CPU      0.01s WALL (      25 calls)
     fftw         :      9.38s CPU      9.70s WALL (   50960 calls)

     Parallel routines
     fft_scatt_xy :      0.45s CPU      0.47s WALL (   51287 calls)
     fft_scatt_yz :      5.69s CPU      5.83s WALL (   51287 calls)

     PWSCF        :    20.76s CPU        21.89s WALL


   This run was terminated on:  11:50:38  26Mar2024            

=------------------------------------------------------------------------------=
   JOB DONE.
=------------------------------------------------------------------------------=
