
     Program PWSCF v.6.3MaX starts on 26Mar2024 at 11:20:42 

     This program is part of the open-source Quantum ESPRESSO suite
     for quantum simulation of materials; please cite
         "P. Giannozzi et al., J. Phys.:Condens. Matter 21 395502 (2009);
         "P. Giannozzi et al., J. Phys.:Condens. Matter 29 465901 (2017);
          URL http://www.quantum-espresso.org", 
     in publications or presentations arising from this work. More details at
     http://www.quantum-espresso.org/quote

     Parallel version (MPI), running on     5 processors

     MPI processes distributed on     1 nodes
     R & G space division:  proc/nbgrp/npool/nimage =       5
     Waiting for input...
     Reading input from standard input

     Current dimensions of program PWSCF are:
     Max number of different atomic species (ntypx) = 10
     Max number of k-points (npk) =  40000
     Max angular momentum in pseudopotentials (lmaxx) =  3
               file Au.pbe-n-kjpaw_psl.1.0.0.UPF: wavefunction(s)  6S 5D renormalized

     Subspace diagonalization in iterative solution of the eigenvalue problem:
     a serial algorithm will be used


     Parallelization info
     --------------------
     sticks:   dense  smooth     PW     G-vecs:    dense   smooth      PW
     Min          39      39     14                  381      381      82
     Max          40      40     15                  384      384      83
     Sum         199     199     73                 1917     1917     411



     bravais-lattice index     =            2
     lattice parameter (alat)  =       7.7100  a.u.
     unit-cell volume          =     114.5785 (a.u.)^3
     number of atoms/cell      =            1
     number of atomic types    =            1
     number of electrons       =        11.00
     number of Kohn-Sham states=           10
     kinetic-energy cutoff     =      25.0000  Ry
     charge density cutoff     =     100.0000  Ry
     convergence threshold     =      1.0E-08
     mixing beta               =       0.7000
     number of iterations used =            8  plain     mixing
     Exchange-correlation      = SLA PW PBX PBC ( 1  4  3  4 0 0)

     celldm(1)=   7.710000  celldm(2)=   0.000000  celldm(3)=   0.000000
     celldm(4)=   0.000000  celldm(5)=   0.000000  celldm(6)=   0.000000

     crystal axes: (cart. coord. in units of alat)
               a(1) = (  -0.500000   0.000000   0.500000 )  
               a(2) = (   0.000000   0.500000   0.500000 )  
               a(3) = (  -0.500000   0.500000   0.000000 )  

     reciprocal axes: (cart. coord. in units 2 pi/alat)
               b(1) = ( -1.000000 -1.000000  1.000000 )  
               b(2) = (  1.000000  1.000000  1.000000 )  
               b(3) = ( -1.000000  1.000000 -1.000000 )  


     PseudoPot. # 1 for Au read from file:
     /home/lorenzo/pseudos/Au/Au.pbe-n-kjpaw_psl.1.0.0.UPF
     MD5 check sum: 4db85c736373c707a97ce4c36c2a9d23
     Pseudo is Projector augmented-wave + core cor, Zval = 11.0
     Generated using "atomic" code by A. Dal Corso v.6.3
     Shape of augmentation charge: PSQ
     Using radial grid of 1279 points,  6 beta functions with: 
                l(1) =   0
                l(2) =   0
                l(3) =   1
                l(4) =   1
                l(5) =   2
                l(6) =   2
     Q(r) pseudized with 0 coefficients 


     atomic species   valence    mass     pseudopotential
        Au            11.00   196.96600     Au( 1.00)

     48 Sym. Ops., with inversion, found



   Cartesian axes

     site n.     atom                  positions (alat units)
         1           Au  tau(   1) = (   0.0000000   0.0000000   0.0000000  )

     number of k points=    56  gaussian smearing, width (Ry)=  0.0100
                       cart. coord. in units 2pi/alat
        k(    1) = (   0.0000000   0.0000000   0.0000000), wk =   0.0015026
        k(    2) = (  -0.0909091   0.0909091  -0.0909091), wk =   0.0120210
        k(    3) = (  -0.1818182   0.1818182  -0.1818182), wk =   0.0120210
        k(    4) = (  -0.2727273   0.2727273  -0.2727273), wk =   0.0120210
        k(    5) = (  -0.3636364   0.3636364  -0.3636364), wk =   0.0120210
        k(    6) = (  -0.4545455   0.4545455  -0.4545455), wk =   0.0120210
        k(    7) = (   0.0000000   0.1818182   0.0000000), wk =   0.0090158
        k(    8) = (  -0.0909091   0.2727273  -0.0909091), wk =   0.0360631
        k(    9) = (  -0.1818182   0.3636364  -0.1818182), wk =   0.0360631
        k(   10) = (  -0.2727273   0.4545455  -0.2727273), wk =   0.0360631
        k(   11) = (  -0.3636364   0.5454545  -0.3636364), wk =   0.0360631
        k(   12) = (   0.5454545  -0.3636364   0.5454545), wk =   0.0360631
        k(   13) = (   0.4545455  -0.2727273   0.4545455), wk =   0.0360631
        k(   14) = (   0.3636364  -0.1818182   0.3636364), wk =   0.0360631
        k(   15) = (   0.2727273  -0.0909091   0.2727273), wk =   0.0360631
        k(   16) = (   0.1818182  -0.0000000   0.1818182), wk =   0.0180316
        k(   17) = (   0.0000000   0.3636364   0.0000000), wk =   0.0090158
        k(   18) = (  -0.0909091   0.4545455  -0.0909091), wk =   0.0360631
        k(   19) = (  -0.1818182   0.5454545  -0.1818182), wk =   0.0360631
        k(   20) = (  -0.2727273   0.6363636  -0.2727273), wk =   0.0360631
        k(   21) = (   0.6363636  -0.2727273   0.6363636), wk =   0.0360631
        k(   22) = (   0.5454545  -0.1818182   0.5454545), wk =   0.0360631
        k(   23) = (   0.4545455  -0.0909091   0.4545455), wk =   0.0360631
        k(   24) = (   0.3636364   0.0000000   0.3636364), wk =   0.0180316
        k(   25) = (   0.0000000   0.5454545   0.0000000), wk =   0.0090158
        k(   26) = (  -0.0909091   0.6363636  -0.0909091), wk =   0.0360631
        k(   27) = (  -0.1818182   0.7272727  -0.1818182), wk =   0.0360631
        k(   28) = (   0.7272727  -0.1818182   0.7272727), wk =   0.0360631
        k(   29) = (   0.6363636  -0.0909091   0.6363636), wk =   0.0360631
        k(   30) = (   0.5454545   0.0000000   0.5454545), wk =   0.0180316
        k(   31) = (   0.0000000   0.7272727   0.0000000), wk =   0.0090158
        k(   32) = (  -0.0909091   0.8181818  -0.0909091), wk =   0.0360631
        k(   33) = (   0.8181818  -0.0909091   0.8181818), wk =   0.0360631
        k(   34) = (   0.7272727   0.0000000   0.7272727), wk =   0.0180316
        k(   35) = (   0.0000000   0.9090909   0.0000000), wk =   0.0090158
        k(   36) = (   0.9090909  -0.0000000   0.9090909), wk =   0.0180316
        k(   37) = (  -0.1818182   0.3636364   0.0000000), wk =   0.0360631
        k(   38) = (  -0.2727273   0.4545455  -0.0909091), wk =   0.0721262
        k(   39) = (  -0.3636364   0.5454545  -0.1818182), wk =   0.0721262
        k(   40) = (   0.5454545  -0.3636364   0.7272727), wk =   0.0721262
        k(   41) = (  -0.1818182   0.5454545   0.0000000), wk =   0.0360631
        k(   42) = (  -0.2727273   0.6363636  -0.0909091), wk =   0.0721262
        k(   43) = (   0.6363636  -0.2727273   0.8181818), wk =   0.0721262
        k(   44) = (   0.5454545  -0.1818182   0.7272727), wk =   0.0721262
        k(   45) = (   0.4545455  -0.0909091   0.6363636), wk =   0.0721262
        k(   46) = (   0.3636364   0.0000000   0.5454545), wk =   0.0360631
        k(   47) = (  -0.1818182   0.7272727   0.0000000), wk =   0.0360631
        k(   48) = (   0.7272727  -0.1818182   0.9090909), wk =   0.0721262
        k(   49) = (   0.6363636  -0.0909091   0.8181818), wk =   0.0721262
        k(   50) = (   0.5454545   0.0000000   0.7272727), wk =   0.0360631
        k(   51) = (   0.8181818  -0.0909091   1.0000000), wk =   0.0360631
        k(   52) = (   0.7272727   0.0000000   0.9090909), wk =   0.0360631
        k(   53) = (   0.6363636  -0.2727273   1.0000000), wk =   0.0360631
        k(   54) = (   0.5454545  -0.1818182   0.9090909), wk =   0.0721262
        k(   55) = (   0.6363636  -0.0909091   1.0000000), wk =   0.0360631
        k(   56) = (   0.5454545   0.0000000   0.9090909), wk =   0.0360631

     Dense  grid:     1917 G-vectors     FFT dimensions: (  18,  18,  18)

     Estimated max dynamical RAM per process >       2.83 MB

     Estimated total dynamical RAM >      14.16 MB

     Initial potential from superposition of free atoms

     starting charge   10.99989, renormalised to   11.00000
     Starting wfcs are    9 randomized atomic wfcs +    1 random wfcs
     Checking if some PAW data can be deallocated... 

     total cpu time spent up to now is        1.3 secs

     Self-consistent Calculation

     iteration #  1     ecut=    25.00 Ry     beta= 0.70
     Davidson diagonalization with overlap
     ethr =  1.00E-02,  avg # of iterations =  5.0

     Threshold (ethr) on eigenvalues was too large:
     Diagonalizing with lowered threshold

     Davidson diagonalization with overlap
     ethr =  4.41E-04,  avg # of iterations =  1.5

     total cpu time spent up to now is        1.9 secs

     total energy              =    -775.11455975 Ry
     Harris-Foulkes estimate   =    -775.14628042 Ry
     estimated scf accuracy    <       0.04850721 Ry

     iteration #  2     ecut=    25.00 Ry     beta= 0.70
     Davidson diagonalization with overlap
     ethr =  4.41E-04,  avg # of iterations =  2.1

     total cpu time spent up to now is        2.3 secs

     total energy              =    -775.12840807 Ry
     Harris-Foulkes estimate   =    -775.13579882 Ry
     estimated scf accuracy    <       0.01202499 Ry

     iteration #  3     ecut=    25.00 Ry     beta= 0.70
     Davidson diagonalization with overlap
     ethr =  1.09E-04,  avg # of iterations =  2.1

     total cpu time spent up to now is        2.7 secs

     total energy              =    -775.13122195 Ry
     Harris-Foulkes estimate   =    -775.13121827 Ry
     estimated scf accuracy    <       0.00019439 Ry

     iteration #  4     ecut=    25.00 Ry     beta= 0.70
     Davidson diagonalization with overlap
     ethr =  1.77E-06,  avg # of iterations =  3.3

     total cpu time spent up to now is        3.2 secs

     total energy              =    -775.13133294 Ry
     Harris-Foulkes estimate   =    -775.13136758 Ry
     estimated scf accuracy    <       0.00007466 Ry

     iteration #  5     ecut=    25.00 Ry     beta= 0.70
     Davidson diagonalization with overlap
     ethr =  6.79E-07,  avg # of iterations =  1.0

     total cpu time spent up to now is        3.6 secs

     total energy              =    -775.13133538 Ry
     Harris-Foulkes estimate   =    -775.13134007 Ry
     estimated scf accuracy    <       0.00000707 Ry

     iteration #  6     ecut=    25.00 Ry     beta= 0.70
     Davidson diagonalization with overlap
     ethr =  6.43E-08,  avg # of iterations =  2.4

     total cpu time spent up to now is        4.1 secs

     total energy              =    -775.13133882 Ry
     Harris-Foulkes estimate   =    -775.13133920 Ry
     estimated scf accuracy    <       0.00000096 Ry

     iteration #  7     ecut=    25.00 Ry     beta= 0.70
     Davidson diagonalization with overlap
     ethr =  8.71E-09,  avg # of iterations =  1.6

     total cpu time spent up to now is        4.4 secs

     total energy              =    -775.13133886 Ry
     Harris-Foulkes estimate   =    -775.13133893 Ry
     estimated scf accuracy    <       0.00000013 Ry

     iteration #  8     ecut=    25.00 Ry     beta= 0.70
     Davidson diagonalization with overlap
     ethr =  1.19E-09,  avg # of iterations =  2.7

     total cpu time spent up to now is        4.8 secs

     End of self-consistent calculation

          k = 0.0000 0.0000 0.0000 (   259 PWs)   bands (ev):

     6.0752  11.2991  11.2991  11.2991  12.8196  12.8196  31.3860  35.2426
    35.2426  35.2426

          k =-0.0909 0.0909-0.0909 (   256 PWs)   bands (ev):

     6.3617  11.2099  11.3951  11.3951  12.7803  12.7803  31.6766  33.4328
    35.5357  35.5357

          k =-0.1818 0.1818-0.1818 (   244 PWs)   bands (ev):

     7.1502  11.0639  11.5678  11.5678  12.7874  12.7874  30.0346  32.4929
    36.1822  36.1822

          k =-0.2727 0.2727-0.2727 (   247 PWs)   bands (ev):

     8.1037  11.2943  11.5535  11.5535  13.1013  13.1013  26.4301  32.1754
    36.0617  36.0617

          k =-0.3636 0.3636-0.3636 (   247 PWs)   bands (ev):

     8.5890  11.3941  11.3941  12.5681  13.6127  13.6127  22.7761  31.2962
    34.7398  34.7398

          k =-0.4545 0.4545-0.4545 (   241 PWs)   bands (ev):

     8.6584  11.2748  11.2748  13.9830  13.9830  14.5207  19.7282  30.7422
    33.7400  33.7400

          k = 0.0000 0.1818 0.0000 (   258 PWs)   bands (ev):

     6.4583  11.1044  11.4732  11.4732  12.6128  12.9053  31.8243  34.0530
    34.8002  34.8002

          k =-0.0909 0.2727-0.0909 (   249 PWs)   bands (ev):

     7.0884  10.9046  11.6618  11.6770  12.4718  12.9996  31.3054  32.5550
    34.4181  35.7171

          k =-0.1818 0.3636-0.1818 (   243 PWs)   bands (ev):

     8.0437  10.8599  11.5979  11.7554  12.8136  13.2716  27.8281  32.5648
    33.9424  36.2419

          k =-0.2727 0.4545-0.2727 (   240 PWs)   bands (ev):

     8.7231  11.3370  11.5070  11.6355  13.6991  13.7166  24.0955  31.7443
    33.2348  34.8007

          k =-0.3636 0.5455-0.3636 (   239 PWs)   bands (ev):

     8.8639  11.1630  11.4837  12.6165  14.0272  15.1279  20.6768  31.0352
    32.8253  33.2382

          k = 0.5455-0.3636 0.5455 (   246 PWs)   bands (ev):

     8.8701  11.1300  11.4187  13.0839  13.9638  16.1404  19.1779  30.7610
    32.3554  33.2690

          k = 0.4545-0.2727 0.4545 (   245 PWs)   bands (ev):

     8.8617  11.2407  11.4825  12.4421  13.5253  14.8151  21.7744  30.9573
    32.4759  34.7450

          k = 0.3636-0.1818 0.3636 (   246 PWs)   bands (ev):

     8.5825  11.2121  11.5253  11.6484  12.9198  13.8880  25.3349  31.4835
    33.4837  37.0759

          k = 0.2727-0.0909 0.2727 (   243 PWs)   bands (ev):

     7.7178  10.8944  11.6314  11.7408  12.5014  13.2524  28.9898  31.9991
    34.6844  36.6967

          k = 0.1818-0.0000 0.1818 (   249 PWs)   bands (ev):

     6.8220  11.0453  11.5365  11.5645  12.5771  12.9206  31.9770  31.9986
    34.5944  36.7928

          k = 0.0000 0.3636 0.0000 (   246 PWs)   bands (ev):

     7.5240  10.6140  11.9790  11.9790  12.1452  13.1409  32.8846  32.9694
    33.0432  33.0432

          k =-0.0909 0.4545-0.0909 (   242 PWs)   bands (ev):

     8.3302  10.3822  11.7112  12.2149  12.7024  13.3754  29.4783  31.9672
    32.9869  34.1685

          k =-0.1818 0.5455-0.1818 (   241 PWs)   bands (ev):

     9.0920  10.4955  11.3557  12.1772  13.7911  13.8820  25.6324  31.2083
    31.6910  33.5152

          k =-0.2727 0.6364-0.2727 (   240 PWs)   bands (ev):

     9.3193  10.8607  11.4691  12.0166  14.0802  15.6590  22.0046  30.2025
    31.0144  32.8628

          k = 0.6364-0.2727 0.6364 (   242 PWs)   bands (ev):

     9.3770  10.8206  11.8888  12.0249  13.9823  17.8315  19.1589  28.9941
    31.6989  32.3951

          k = 0.5455-0.1818 0.5455 (   244 PWs)   bands (ev):

     9.4570  10.9065  11.8688  11.8732  13.4993  16.4788  21.2370  28.3550
    32.4235  33.3084

          k = 0.4545-0.0909 0.4545 (   249 PWs)   bands (ev):

     9.3948  10.9212  11.2871  11.9805  12.8270  15.0679  24.5458  28.4585
    33.0612  35.6246

          k = 0.3636 0.0000 0.3636 (   242 PWs)   bands (ev):

     8.6589  10.6906  11.4969  12.1814  12.2148  14.0364  27.5527  29.6098
    34.3135  36.0244

          k = 0.0000 0.5455 0.0000 (   234 PWs)   bands (ev):

     8.7807  10.0307  12.0877  12.7523  12.7523  13.4628  30.3812  30.3812
    31.6226  32.6922

          k =-0.0909 0.6364-0.0909 (   240 PWs)   bands (ev):

     9.2105   9.8594  12.0789  12.9185  13.8020  13.8720  27.1115  29.3097
    29.6478  33.5361

          k =-0.1818 0.7273-0.1818 (   238 PWs)   bands (ev):

     9.4345  10.0554  11.8915  12.7791  14.1250  15.8753  23.4792  27.9326
    29.0255  33.7144

          k = 0.7273-0.1818 0.7273 (   241 PWs)   bands (ev):

     9.5920  10.4199  11.7378  12.5947  14.0422  18.4203  20.4169  26.3541
    29.6912  33.4651

          k = 0.6364-0.0909 0.6364 (   241 PWs)   bands (ev):

     9.8534  10.7021  11.4470  12.4451  13.5825  18.0549  21.4088  25.1621
    31.2646  33.1996

          k = 0.5455 0.0000 0.5455 (   240 PWs)   bands (ev):

    10.0290  10.8832  10.9870  12.2997  13.0395  16.4151  24.0032  25.3053
    33.0994  33.4205

          k = 0.0000 0.7273 0.0000 (   242 PWs)   bands (ev):

     9.1095   9.5408  13.6271  13.6271  13.7128  13.7699  26.6861  27.9086
    27.9086  32.9303

          k =-0.0909 0.8182-0.0909 (   236 PWs)   bands (ev):

     9.1477   9.4818  13.2570  13.5686  14.1541  15.8904  24.0409  26.4700
    27.3385  33.8377

          k = 0.8182-0.0909 0.8182 (   236 PWs)   bands (ev):

     9.3194   9.7620  12.6866  13.3472  14.1496  18.4892  21.5544  24.7297
    27.8272  34.2642

          k = 0.7273 0.0000 0.7273 (   240 PWs)   bands (ev):

     9.6045  10.2851  11.9549  12.9955  13.8326  19.5439  21.1917  23.3943
    29.2638  33.8747

          k = 0.0000 0.9091 0.0000 (   234 PWs)   bands (ev):

     8.9408   9.2692  13.9612  14.2685  14.2685  16.3429  22.6671  26.4158
    26.4158  33.3651

          k = 0.9091-0.0000 0.9091 (   230 PWs)   bands (ev):

     9.0304   9.3459  13.7805  13.8384  14.3022  17.7939  21.6323  25.4801
    26.5964  34.1395

          k =-0.1818 0.3636 0.0000 (   240 PWs)   bands (ev):

     7.8318  10.6705  11.6741  11.9850  12.3927  13.3022  30.0191  31.4746
    34.5084  35.0498

          k =-0.2727 0.4545-0.0909 (   241 PWs)   bands (ev):

     8.7724  10.6451  11.3923  12.0696  12.8029  13.9806  26.7988  30.4844
    33.2257  35.6133

          k =-0.3636 0.5455-0.1818 (   242 PWs)   bands (ev):

     9.2250  11.0882  11.3097  11.9250  13.5051  15.0494  23.1674  30.0307
    31.8127  34.6291

          k = 0.5455-0.3636 0.7273 (   242 PWs)   bands (ev):

     9.2544  10.9068  11.7521  12.1755  13.9035  16.7749  19.9508  30.1125
    30.7855  33.5347

          k =-0.1818 0.5455 0.0000 (   239 PWs)   bands (ev):

     9.0541  10.1626  11.5039  12.7457  12.8984  13.9607  27.9591  29.4096
    31.7635  35.3322

          k =-0.2727 0.6364-0.0909 (   244 PWs)   bands (ev):

     9.5806  10.2975  11.2396  12.6665  13.5853  15.1989  24.6753  28.3805
    30.1334  34.9457

          k = 0.6364-0.2727 0.8182 (   243 PWs)   bands (ev):

     9.6948  10.5843  11.3378  12.4514  13.9497  17.1693  21.3617  27.9779
    29.1254  34.4511

          k = 0.5455-0.1818 0.7273 (   245 PWs)   bands (ev):

     9.8201  10.5716  11.5629  12.2864  13.8405  18.5957  19.7728  27.0906
    29.6703  34.3677

          k = 0.4545-0.0909 0.6364 (   240 PWs)   bands (ev):

     9.9523  10.7081  11.0563  12.3816  13.3988  16.5594  22.8026  26.6195
    30.8947  35.0784

          k = 0.3636 0.0000 0.5455 (   239 PWs)   bands (ev):

     9.6813  10.5076  11.0410  12.5072  12.7828  15.1162  25.5531  27.4809
    32.1426  36.5324

          k =-0.1818 0.7273 0.0000 (   237 PWs)   bands (ev):

     9.3879   9.7251  12.1901  13.5559  13.6217  15.2864  25.4029  27.2079
    28.1931  34.7676

          k = 0.7273-0.1818 0.9091 (   239 PWs)   bands (ev):

     9.5530   9.9320  11.9585  13.2277  14.0614  17.3974  22.7230  25.8971
    27.4516  35.3112

          k = 0.6364-0.0909 0.8182 (   240 PWs)   bands (ev):

     9.7719  10.3350  11.6153  12.8501  14.0020  19.6376  20.6656  24.4530
    28.1370  35.1882

          k = 0.5455 0.0000 0.7273 (   238 PWs)   bands (ev):

    10.1086  10.6364  11.0776  12.6372  13.6445  18.1391  23.2473  23.3118
    29.5215  35.1357

          k = 0.8182-0.0909 1.0000 (   240 PWs)   bands (ev):

     9.1949   9.4777  13.1061  13.7218  14.2662  17.6266  22.3239  25.7996
    26.1859  34.9383

          k = 0.7273 0.0000 0.9091 (   238 PWs)   bands (ev):

     9.4402   9.7988  12.4579  13.3102  14.2607  19.6904  20.9492  24.2737
    26.7281  35.6229

          k = 0.6364-0.2727 1.0000 (   243 PWs)   bands (ev):

    10.0922  10.2604  10.9834  13.0114  13.6131  16.8108  23.8779  25.4621
    28.6835  36.9108

          k = 0.5455-0.1818 0.9091 (   241 PWs)   bands (ev):

    10.1917  10.4241  11.0245  12.7204  13.9751  18.7959  21.5923  25.0090
    27.5292  36.6880

          k = 0.6364-0.0909 1.0000 (   241 PWs)   bands (ev):

     9.7987  10.1029  11.6468  13.0240  14.2647  19.3672  22.0700  24.1705
    26.0256  38.0458

          k = 0.5455 0.0000 0.9091 (   245 PWs)   bands (ev):

    10.0109  10.5402  11.1204  12.7192  14.2607  20.2881  21.9816  22.9764
    26.2303  37.8840

     the Fermi energy is    16.0348 ev

!    total energy              =    -775.13133890 Ry
     Harris-Foulkes estimate   =    -775.13133891 Ry
     estimated scf accuracy    <          6.4E-09 Ry

     total all-electron energy =    -38023.977430 Ry

     The total energy is the sum of the following terms:

     one-electron contribution =      13.83912284 Ry
     hartree contribution      =       7.64595380 Ry
     xc contribution           =     -32.12975699 Ry
     ewald contribution        =     -71.95438543 Ry
     one-center paw contrib.   =    -692.53215849 Ry
     smearing contrib. (-TS)   =      -0.00011463 Ry

     convergence has been achieved in   8 iterations

     Forces acting on atoms (cartesian axes, Ry/au):

     atom    1 type  1   force =     0.00000000    0.00000000    0.00000000

     Total force =     0.000000     Total SCF correction =     0.000000


     Computing stress (Cartesian axis) and pressure

          total   stress  (Ry/bohr**3)                   (kbar)     P=   97.68
   0.00066403   0.00000000  -0.00000000         97.68      0.00     -0.00
   0.00000000   0.00066403  -0.00000000          0.00     97.68     -0.00
  -0.00000000  -0.00000000   0.00066403         -0.00     -0.00     97.68


     Writing output data file Au.save/

     init_run     :      0.27s CPU      0.30s WALL (       1 calls)
     electrons    :      3.21s CPU      3.56s WALL (       1 calls)
     forces       :      0.02s CPU      0.02s WALL (       1 calls)
     stress       :      0.06s CPU      0.06s WALL (       1 calls)

     Called by init_run:
     wfcinit      :      0.06s CPU      0.07s WALL (       1 calls)
     potinit      :      0.10s CPU      0.12s WALL (       1 calls)
     hinit0       :      0.10s CPU      0.10s WALL (       1 calls)

     Called by electrons:
     c_bands      :      2.02s CPU      2.22s WALL (       9 calls)
     sum_band     :      0.32s CPU      0.34s WALL (       9 calls)
     v_of_rho     :      0.01s CPU      0.01s WALL (       9 calls)
     newd         :      0.02s CPU      0.02s WALL (       9 calls)
     PAW_pot      :      0.92s CPU      1.06s WALL (       9 calls)
     mix_rho      :      0.00s CPU      0.00s WALL (       9 calls)

     Called by c_bands:
     init_us_2    :      0.05s CPU      0.05s WALL (    1176 calls)
     cegterg      :      1.94s CPU      2.12s WALL (     504 calls)

     Called by sum_band:
     sum_band:bec :      0.00s CPU      0.00s WALL (     504 calls)
     addusdens    :      0.02s CPU      0.02s WALL (       9 calls)

     Called by *egterg:
     h_psi        :      1.34s CPU      1.48s WALL (    1777 calls)
     s_psi        :      0.03s CPU      0.04s WALL (    1777 calls)
     g_psi        :      0.00s CPU      0.00s WALL (    1217 calls)
     cdiaghg      :      0.37s CPU      0.40s WALL (    1665 calls)

     Called by h_psi:
     h_psi:pot    :      1.33s CPU      1.47s WALL (    1777 calls)
     h_psi:calbec :      0.07s CPU      0.08s WALL (    1777 calls)
     vloc_psi     :      1.21s CPU      1.34s WALL (    1777 calls)
     add_vuspsi   :      0.03s CPU      0.04s WALL (    1777 calls)

     General routines
     calbec       :      0.10s CPU      0.11s WALL (    2561 calls)
     fft          :      0.01s CPU      0.01s WALL (     126 calls)
     ffts         :      0.00s CPU      0.00s WALL (       9 calls)
     fftw         :      1.35s CPU      1.49s WALL (   31718 calls)

     Parallel routines
     fft_scatt_xy :      0.11s CPU      0.12s WALL (   31853 calls)
     fft_scatt_yz :      0.55s CPU      0.59s WALL (   31853 calls)

     PWSCF        :     4.58s CPU         5.04s WALL


   This run was terminated on:  11:20:47  26Mar2024            

=------------------------------------------------------------------------------=
   JOB DONE.
=------------------------------------------------------------------------------=
