
     Program PWSCF v.6.3MaX starts on 26Mar2024 at 11:48:58 

     This program is part of the open-source Quantum ESPRESSO suite
     for quantum simulation of materials; please cite
         "P. Giannozzi et al., J. Phys.:Condens. Matter 21 395502 (2009);
         "P. Giannozzi et al., J. Phys.:Condens. Matter 29 465901 (2017);
          URL http://www.quantum-espresso.org", 
     in publications or presentations arising from this work. More details at
     http://www.quantum-espresso.org/quote

     Parallel version (MPI), running on     5 processors

     MPI processes distributed on     1 nodes
     R & G space division:  proc/nbgrp/npool/nimage =       5
     Waiting for input...
     Reading input from standard input

     Current dimensions of program PWSCF are:
     Max number of different atomic species (ntypx) = 10
     Max number of k-points (npk) =  40000
     Max angular momentum in pseudopotentials (lmaxx) =  3
               file Au.pbe-n-kjpaw_psl.1.0.0.UPF: wavefunction(s)  6S 5D renormalized

     Subspace diagonalization in iterative solution of the eigenvalue problem:
     a serial algorithm will be used


     Parallelization info
     --------------------
     sticks:   dense  smooth     PW     G-vecs:    dense   smooth      PW
     Min          89      89     30                 1260     1260     227
     Max          92      92     31                 1261     1261     228
     Sum         451     451    151                 6303     6303    1139



     bravais-lattice index     =            2
     lattice parameter (alat)  =       7.7100  a.u.
     unit-cell volume          =     114.5785 (a.u.)^3
     number of atoms/cell      =            1
     number of atomic types    =            1
     number of electrons       =        11.00
     number of Kohn-Sham states=           10
     kinetic-energy cutoff     =      55.0000  Ry
     charge density cutoff     =     220.0000  Ry
     convergence threshold     =      1.0E-08
     mixing beta               =       0.7000
     number of iterations used =            8  plain     mixing
     Exchange-correlation      = SLA PW PBX PBC ( 1  4  3  4 0 0)

     celldm(1)=   7.710000  celldm(2)=   0.000000  celldm(3)=   0.000000
     celldm(4)=   0.000000  celldm(5)=   0.000000  celldm(6)=   0.000000

     crystal axes: (cart. coord. in units of alat)
               a(1) = (  -0.500000   0.000000   0.500000 )  
               a(2) = (   0.000000   0.500000   0.500000 )  
               a(3) = (  -0.500000   0.500000   0.000000 )  

     reciprocal axes: (cart. coord. in units 2 pi/alat)
               b(1) = ( -1.000000 -1.000000  1.000000 )  
               b(2) = (  1.000000  1.000000  1.000000 )  
               b(3) = ( -1.000000  1.000000 -1.000000 )  


     PseudoPot. # 1 for Au read from file:
     /home/lorenzo/pseudos/Au/Au.pbe-n-kjpaw_psl.1.0.0.UPF
     MD5 check sum: 4db85c736373c707a97ce4c36c2a9d23
     Pseudo is Projector augmented-wave + core cor, Zval = 11.0
     Generated using "atomic" code by A. Dal Corso v.6.3
     Shape of augmentation charge: PSQ
     Using radial grid of 1279 points,  6 beta functions with: 
                l(1) =   0
                l(2) =   0
                l(3) =   1
                l(4) =   1
                l(5) =   2
                l(6) =   2
     Q(r) pseudized with 0 coefficients 


     atomic species   valence    mass     pseudopotential
        Au            11.00   196.96600     Au( 1.00)

     48 Sym. Ops., with inversion, found



   Cartesian axes

     site n.     atom                  positions (alat units)
         1           Au  tau(   1) = (   0.0000000   0.0000000   0.0000000  )

     number of k points=    20  gaussian smearing, width (Ry)=  0.0100
                       cart. coord. in units 2pi/alat
        k(    1) = (   0.0000000   0.0000000   0.0000000), wk =   0.0058309
        k(    2) = (  -0.1428571   0.1428571  -0.1428571), wk =   0.0466472
        k(    3) = (  -0.2857143   0.2857143  -0.2857143), wk =   0.0466472
        k(    4) = (  -0.4285714   0.4285714  -0.4285714), wk =   0.0466472
        k(    5) = (   0.0000000   0.2857143   0.0000000), wk =   0.0349854
        k(    6) = (  -0.1428571   0.4285714  -0.1428571), wk =   0.1399417
        k(    7) = (  -0.2857143   0.5714286  -0.2857143), wk =   0.1399417
        k(    8) = (   0.5714286  -0.2857143   0.5714286), wk =   0.1399417
        k(    9) = (   0.4285714  -0.1428571   0.4285714), wk =   0.1399417
        k(   10) = (   0.2857143  -0.0000000   0.2857143), wk =   0.0699708
        k(   11) = (   0.0000000   0.5714286   0.0000000), wk =   0.0349854
        k(   12) = (  -0.1428571   0.7142857  -0.1428571), wk =   0.1399417
        k(   13) = (   0.7142857  -0.1428571   0.7142857), wk =   0.1399417
        k(   14) = (   0.5714286   0.0000000   0.5714286), wk =   0.0699708
        k(   15) = (   0.0000000   0.8571429   0.0000000), wk =   0.0349854
        k(   16) = (   0.8571429  -0.0000000   0.8571429), wk =   0.0699708
        k(   17) = (  -0.2857143   0.5714286   0.0000000), wk =   0.1399417
        k(   18) = (   0.5714286  -0.2857143   0.8571429), wk =   0.2798834
        k(   19) = (   0.7142857  -0.1428571   1.0000000), wk =   0.1399417
        k(   20) = (   0.5714286   0.0000000   0.8571429), wk =   0.1399417

     Dense  grid:     6303 G-vectors     FFT dimensions: (  25,  25,  25)

     Estimated max dynamical RAM per process >       6.61 MB

     Estimated total dynamical RAM >      33.07 MB

     Initial potential from superposition of free atoms

     starting charge   10.99989, renormalised to   11.00000
     Starting wfcs are    9 randomized atomic wfcs +    1 random wfcs
     Checking if some PAW data can be deallocated... 

     total cpu time spent up to now is        1.5 secs

     Self-consistent Calculation

     iteration #  1     ecut=    55.00 Ry     beta= 0.70
     Davidson diagonalization with overlap
     ethr =  1.00E-02,  avg # of iterations =  5.4

     Threshold (ethr) on eigenvalues was too large:
     Diagonalizing with lowered threshold

     Davidson diagonalization with overlap
     ethr =  4.67E-04,  avg # of iterations =  1.8

     total cpu time spent up to now is        2.2 secs

     total energy              =    -775.12139538 Ry
     Harris-Foulkes estimate   =    -775.15653525 Ry
     estimated scf accuracy    <       0.05189560 Ry

     iteration #  2     ecut=    55.00 Ry     beta= 0.70
     Davidson diagonalization with overlap
     ethr =  4.72E-04,  avg # of iterations =  2.9

     total cpu time spent up to now is        2.5 secs

     total energy              =    -775.13729857 Ry
     Harris-Foulkes estimate   =    -775.14652810 Ry
     estimated scf accuracy    <       0.01516720 Ry

     iteration #  3     ecut=    55.00 Ry     beta= 0.70
     Davidson diagonalization with overlap
     ethr =  1.38E-04,  avg # of iterations =  1.9

     total cpu time spent up to now is        2.8 secs

     total energy              =    -775.14056733 Ry
     Harris-Foulkes estimate   =    -775.14060170 Ry
     estimated scf accuracy    <       0.00025167 Ry

     iteration #  4     ecut=    55.00 Ry     beta= 0.70
     Davidson diagonalization with overlap
     ethr =  2.29E-06,  avg # of iterations =  3.5

     total cpu time spent up to now is        3.2 secs

     total energy              =    -775.14085271 Ry
     Harris-Foulkes estimate   =    -775.14098499 Ry
     estimated scf accuracy    <       0.00029604 Ry

     iteration #  5     ecut=    55.00 Ry     beta= 0.70
     Davidson diagonalization with overlap
     ethr =  2.29E-06,  avg # of iterations =  1.0

     total cpu time spent up to now is        3.5 secs

     total energy              =    -775.14085348 Ry
     Harris-Foulkes estimate   =    -775.14087691 Ry
     estimated scf accuracy    <       0.00003756 Ry

     iteration #  6     ecut=    55.00 Ry     beta= 0.70
     Davidson diagonalization with overlap
     ethr =  3.41E-07,  avg # of iterations =  2.4

     total cpu time spent up to now is        3.8 secs

     total energy              =    -775.14087034 Ry
     Harris-Foulkes estimate   =    -775.14087066 Ry
     estimated scf accuracy    <       0.00000183 Ry

     iteration #  7     ecut=    55.00 Ry     beta= 0.70
     Davidson diagonalization with overlap
     ethr =  1.67E-08,  avg # of iterations =  1.9

     total cpu time spent up to now is        4.1 secs

     total energy              =    -775.14087013 Ry
     Harris-Foulkes estimate   =    -775.14087055 Ry
     estimated scf accuracy    <       0.00000092 Ry

     iteration #  8     ecut=    55.00 Ry     beta= 0.70
     Davidson diagonalization with overlap
     ethr =  8.36E-09,  avg # of iterations =  1.1

     total cpu time spent up to now is        4.3 secs

     total energy              =    -775.14087016 Ry
     Harris-Foulkes estimate   =    -775.14087022 Ry
     estimated scf accuracy    <       0.00000010 Ry

     iteration #  9     ecut=    55.00 Ry     beta= 0.70
     Davidson diagonalization with overlap
     ethr =  8.66E-10,  avg # of iterations =  3.1

     total cpu time spent up to now is        4.7 secs

     total energy              =    -775.14087022 Ry
     Harris-Foulkes estimate   =    -775.14087023 Ry
     estimated scf accuracy    <       0.00000002 Ry

     iteration # 10     ecut=    55.00 Ry     beta= 0.70
     Davidson diagonalization with overlap
     ethr =  2.08E-10,  avg # of iterations =  1.0

     total cpu time spent up to now is        4.9 secs

     End of self-consistent calculation

          k = 0.0000 0.0000 0.0000 (   749 PWs)   bands (ev):

     6.0743  11.2753  11.2753  11.2753  12.7995  12.7995  31.3897  35.2420
    35.2420  35.2420

          k =-0.1429 0.1429-0.1429 (   797 PWs)   bands (ev):

     6.7612  11.0914  11.4788  11.4788  12.7393  12.7393  31.2533  32.3881
    35.8559  35.8559

          k =-0.2857 0.2857-0.2857 (   796 PWs)   bands (ev):

     8.2013  11.3856  11.5119  11.5119  13.1485  13.1485  25.8306  32.0235
    35.8123  35.8123

          k =-0.4286 0.4286-0.4286 (   784 PWs)   bands (ev):

     8.6292  11.2759  11.2759  13.8833  13.8833  13.9779  20.4165  30.8478
    33.9181  33.9181

          k = 0.0000 0.2857 0.0000 (   797 PWs)   bands (ev):

     6.9968  10.8236  11.7015  11.7015  12.3325  13.0042  32.3640  33.2366
    33.8910  33.8910

          k =-0.1429 0.4286-0.1429 (   800 PWs)   bands (ev):

     8.3034  10.5513  11.5644  11.9721  12.8474  13.3730  28.1222  32.5436
    32.6620  34.7032

          k =-0.2857 0.5714-0.2857 (   792 PWs)   bands (ev):

     9.0814  11.0508  11.5640  11.7754  13.9799  14.9194  22.3124  31.0988
    31.7790  32.9176

          k = 0.5714-0.2857 0.5714 (   790 PWs)   bands (ev):

     9.1316  10.9483  11.6217  12.4492  13.8441  16.9243  19.3538  29.7900
    32.0024  32.7681

          k = 0.4286-0.1429 0.4286 (   796 PWs)   bands (ev):

     9.0594  11.0918  11.4139  11.7701  12.9193  14.6569  24.2754  29.7223
    32.9035  35.9300

          k = 0.2857-0.0000 0.2857 (   801 PWs)   bands (ev):

     7.7984  10.7843  11.6125  11.8419  12.3225  13.3476  29.4259  30.9679
    34.9409  35.7943

          k = 0.0000 0.5714 0.0000 (   801 PWs)   bands (ev):

     8.8880   9.9232  12.1848  12.8539  12.8539  13.4873  29.9033  29.9033
    30.7959  32.5939

          k =-0.1429 0.7143-0.1429 (   782 PWs)   bands (ev):

     9.3414   9.8382  12.1007  12.9256  14.0419  15.2197  24.6207  27.9864
    28.7006  33.5968

          k = 0.7143-0.1429 0.7143 (   783 PWs)   bands (ev):

     9.6094  10.4125  11.7251  12.6330  13.9295  19.1474  19.9554  25.5117
    29.7104  33.3152

          k = 0.5714 0.0000 0.5714 (   792 PWs)   bands (ev):

    10.0204  10.9159  10.9569  12.3447  13.1400  16.8065  23.6643  24.5993
    32.6615  33.0047

          k = 0.0000 0.8571 0.0000 (   785 PWs)   bands (ev):

     8.9576   9.2879  13.9007  14.1089  14.1089  15.6093  23.5870  26.6932
    26.6932  33.0705

          k = 0.8571-0.0000 0.8571 (   776 PWs)   bands (ev):

     9.1435   9.4994  13.2079  13.6169  14.1844  18.6152  21.2437  24.6483
    27.1129  34.0848

          k =-0.2857 0.5714 0.0000 (   788 PWs)   bands (ev):

     9.5203  10.2609  11.1224  12.7785  12.8505  14.7462  26.1511  27.9128
    31.2876  36.3219

          k = 0.5714-0.2857 0.8571 (   784 PWs)   bands (ev):

     9.8836  10.5441  11.1940  12.4378  13.7576  17.3333  21.4548  27.0699
    29.1693  35.1219

          k = 0.7143-0.1429 1.0000 (   783 PWs)   bands (ev):

     9.5568   9.7964  12.0321  13.3467  14.1039  17.8819  22.7928  25.1773
    26.3888  36.9257

          k = 0.5714 0.0000 0.8571 (   779 PWs)   bands (ev):

     9.9508  10.4245  11.2609  12.7395  14.0964  19.8102  21.8782  23.0733
    26.9920  36.5536

     the Fermi energy is    15.5892 ev

!    total energy              =    -775.14087022 Ry
     Harris-Foulkes estimate   =    -775.14087022 Ry
     estimated scf accuracy    <          5.0E-09 Ry

     total all-electron energy =    -38023.986961 Ry

     The total energy is the sum of the following terms:

     one-electron contribution =      13.82373240 Ry
     hartree contribution      =       7.63668760 Ry
     xc contribution           =     -32.12271023 Ry
     ewald contribution        =     -71.95438542 Ry
     one-center paw contrib.   =    -692.52409778 Ry
     smearing contrib. (-TS)   =      -0.00009679 Ry

     convergence has been achieved in  10 iterations

     Forces acting on atoms (cartesian axes, Ry/au):

     atom    1 type  1   force =     0.00000000    0.00000000    0.00000000

     Total force =     0.000000     Total SCF correction =     0.000000


     Computing stress (Cartesian axis) and pressure

          total   stress  (Ry/bohr**3)                   (kbar)     P=   98.50
   0.00066957  -0.00000000  -0.00000000         98.50     -0.00     -0.00
  -0.00000000   0.00066957   0.00000000         -0.00     98.50      0.00
  -0.00000000   0.00000000   0.00066957         -0.00      0.00     98.50


     Writing output data file Au.save/

     init_run     :      0.35s CPU      0.37s WALL (       1 calls)
     electrons    :      3.19s CPU      3.43s WALL (       1 calls)
     forces       :      0.03s CPU      0.03s WALL (       1 calls)
     stress       :      0.13s CPU      0.13s WALL (       1 calls)

     Called by init_run:
     wfcinit      :      0.06s CPU      0.06s WALL (       1 calls)
     potinit      :      0.11s CPU      0.13s WALL (       1 calls)
     hinit0       :      0.15s CPU      0.15s WALL (       1 calls)

     Called by electrons:
     c_bands      :      1.62s CPU      1.70s WALL (      11 calls)
     sum_band     :      0.36s CPU      0.37s WALL (      11 calls)
     v_of_rho     :      0.04s CPU      0.04s WALL (      11 calls)
     newd         :      0.08s CPU      0.10s WALL (      11 calls)
     PAW_pot      :      1.18s CPU      1.33s WALL (      11 calls)
     mix_rho      :      0.00s CPU      0.01s WALL (      11 calls)

     Called by c_bands:
     init_us_2    :      0.05s CPU      0.06s WALL (     500 calls)
     cegterg      :      1.55s CPU      1.62s WALL (     220 calls)

     Called by sum_band:
     sum_band:bec :      0.00s CPU      0.00s WALL (     220 calls)
     addusdens    :      0.07s CPU      0.07s WALL (      11 calls)

     Called by *egterg:
     h_psi        :      1.18s CPU      1.24s WALL (     759 calls)
     s_psi        :      0.04s CPU      0.04s WALL (     759 calls)
     g_psi        :      0.00s CPU      0.00s WALL (     519 calls)
     cdiaghg      :      0.17s CPU      0.17s WALL (     719 calls)

     Called by h_psi:
     h_psi:pot    :      1.17s CPU      1.23s WALL (     759 calls)
     h_psi:calbec :      0.06s CPU      0.06s WALL (     759 calls)
     vloc_psi     :      1.07s CPU      1.12s WALL (     759 calls)
     add_vuspsi   :      0.04s CPU      0.04s WALL (     759 calls)

     General routines
     calbec       :      0.10s CPU      0.10s WALL (    1079 calls)
     fft          :      0.03s CPU      0.03s WALL (     148 calls)
     ffts         :      0.00s CPU      0.00s WALL (      11 calls)
     fftw         :      1.21s CPU      1.27s WALL (   13686 calls)

     Parallel routines
     fft_scatt_xy :      0.09s CPU      0.10s WALL (   13845 calls)
     fft_scatt_yz :      0.38s CPU      0.39s WALL (   13845 calls)

     PWSCF        :     4.86s CPU         5.19s WALL


   This run was terminated on:  11:49: 3  26Mar2024            

=------------------------------------------------------------------------------=
   JOB DONE.
=------------------------------------------------------------------------------=
