
     Program PWSCF v.6.3MaX starts on 26Mar2024 at 11:22:44 

     This program is part of the open-source Quantum ESPRESSO suite
     for quantum simulation of materials; please cite
         "P. Giannozzi et al., J. Phys.:Condens. Matter 21 395502 (2009);
         "P. Giannozzi et al., J. Phys.:Condens. Matter 29 465901 (2017);
          URL http://www.quantum-espresso.org", 
     in publications or presentations arising from this work. More details at
     http://www.quantum-espresso.org/quote

     Parallel version (MPI), running on     5 processors

     MPI processes distributed on     1 nodes
     R & G space division:  proc/nbgrp/npool/nimage =       5
     Waiting for input...
     Reading input from standard input

     Current dimensions of program PWSCF are:
     Max number of different atomic species (ntypx) = 10
     Max number of k-points (npk) =  40000
     Max angular momentum in pseudopotentials (lmaxx) =  3
               file Au.pbe-n-kjpaw_psl.1.0.0.UPF: wavefunction(s)  6S 5D renormalized

     Subspace diagonalization in iterative solution of the eigenvalue problem:
     a serial algorithm will be used


     Parallelization info
     --------------------
     sticks:   dense  smooth     PW     G-vecs:    dense   smooth      PW
     Min          39      39     14                  381      381      82
     Max          40      40     15                  384      384      83
     Sum         199     199     73                 1917     1917     411



     bravais-lattice index     =            2
     lattice parameter (alat)  =       7.7100  a.u.
     unit-cell volume          =     114.5785 (a.u.)^3
     number of atoms/cell      =            1
     number of atomic types    =            1
     number of electrons       =        11.00
     number of Kohn-Sham states=           10
     kinetic-energy cutoff     =      25.0000  Ry
     charge density cutoff     =     100.0000  Ry
     convergence threshold     =      1.0E-08
     mixing beta               =       0.7000
     number of iterations used =            8  plain     mixing
     Exchange-correlation      = SLA PW PBX PBC ( 1  4  3  4 0 0)

     celldm(1)=   7.710000  celldm(2)=   0.000000  celldm(3)=   0.000000
     celldm(4)=   0.000000  celldm(5)=   0.000000  celldm(6)=   0.000000

     crystal axes: (cart. coord. in units of alat)
               a(1) = (  -0.500000   0.000000   0.500000 )  
               a(2) = (   0.000000   0.500000   0.500000 )  
               a(3) = (  -0.500000   0.500000   0.000000 )  

     reciprocal axes: (cart. coord. in units 2 pi/alat)
               b(1) = ( -1.000000 -1.000000  1.000000 )  
               b(2) = (  1.000000  1.000000  1.000000 )  
               b(3) = ( -1.000000  1.000000 -1.000000 )  


     PseudoPot. # 1 for Au read from file:
     /home/lorenzo/pseudos/Au/Au.pbe-n-kjpaw_psl.1.0.0.UPF
     MD5 check sum: 4db85c736373c707a97ce4c36c2a9d23
     Pseudo is Projector augmented-wave + core cor, Zval = 11.0
     Generated using "atomic" code by A. Dal Corso v.6.3
     Shape of augmentation charge: PSQ
     Using radial grid of 1279 points,  6 beta functions with: 
                l(1) =   0
                l(2) =   0
                l(3) =   1
                l(4) =   1
                l(5) =   2
                l(6) =   2
     Q(r) pseudized with 0 coefficients 


     atomic species   valence    mass     pseudopotential
        Au            11.00   196.96600     Au( 1.00)

     48 Sym. Ops., with inversion, found



   Cartesian axes

     site n.     atom                  positions (alat units)
         1           Au  tau(   1) = (   0.0000000   0.0000000   0.0000000  )

     number of k points=    29  gaussian smearing, width (Ry)=  0.0100
                       cart. coord. in units 2pi/alat
        k(    1) = (   0.0000000   0.0000000   0.0000000), wk =   0.0039062
        k(    2) = (  -0.1250000   0.1250000  -0.1250000), wk =   0.0312500
        k(    3) = (  -0.2500000   0.2500000  -0.2500000), wk =   0.0312500
        k(    4) = (  -0.3750000   0.3750000  -0.3750000), wk =   0.0312500
        k(    5) = (   0.5000000  -0.5000000   0.5000000), wk =   0.0156250
        k(    6) = (   0.0000000   0.2500000   0.0000000), wk =   0.0234375
        k(    7) = (  -0.1250000   0.3750000  -0.1250000), wk =   0.0937500
        k(    8) = (  -0.2500000   0.5000000  -0.2500000), wk =   0.0937500
        k(    9) = (   0.6250000  -0.3750000   0.6250000), wk =   0.0937500
        k(   10) = (   0.5000000  -0.2500000   0.5000000), wk =   0.0937500
        k(   11) = (   0.3750000  -0.1250000   0.3750000), wk =   0.0937500
        k(   12) = (   0.2500000   0.0000000   0.2500000), wk =   0.0468750
        k(   13) = (   0.0000000   0.5000000   0.0000000), wk =   0.0234375
        k(   14) = (  -0.1250000   0.6250000  -0.1250000), wk =   0.0937500
        k(   15) = (   0.7500000  -0.2500000   0.7500000), wk =   0.0937500
        k(   16) = (   0.6250000  -0.1250000   0.6250000), wk =   0.0937500
        k(   17) = (   0.5000000   0.0000000   0.5000000), wk =   0.0468750
        k(   18) = (   0.0000000   0.7500000   0.0000000), wk =   0.0234375
        k(   19) = (   0.8750000  -0.1250000   0.8750000), wk =   0.0937500
        k(   20) = (   0.7500000   0.0000000   0.7500000), wk =   0.0468750
        k(   21) = (   0.0000000  -1.0000000   0.0000000), wk =   0.0117188
        k(   22) = (  -0.2500000   0.5000000   0.0000000), wk =   0.0937500
        k(   23) = (   0.6250000  -0.3750000   0.8750000), wk =   0.1875000
        k(   24) = (   0.5000000  -0.2500000   0.7500000), wk =   0.0937500
        k(   25) = (   0.7500000  -0.2500000   1.0000000), wk =   0.0937500
        k(   26) = (   0.6250000  -0.1250000   0.8750000), wk =   0.1875000
        k(   27) = (   0.5000000   0.0000000   0.7500000), wk =   0.0937500
        k(   28) = (  -0.2500000  -1.0000000   0.0000000), wk =   0.0468750
        k(   29) = (  -0.5000000  -1.0000000   0.0000000), wk =   0.0234375

     Dense  grid:     1917 G-vectors     FFT dimensions: (  18,  18,  18)

     Estimated max dynamical RAM per process >       2.63 MB

     Estimated total dynamical RAM >      13.17 MB

     Initial potential from superposition of free atoms

     starting charge   10.99989, renormalised to   11.00000
     Starting wfcs are    9 randomized atomic wfcs +    1 random wfcs
     Checking if some PAW data can be deallocated... 

     total cpu time spent up to now is        1.2 secs

     Self-consistent Calculation

     iteration #  1     ecut=    25.00 Ry     beta= 0.70
     Davidson diagonalization with overlap
     ethr =  1.00E-02,  avg # of iterations =  5.0

     Threshold (ethr) on eigenvalues was too large:
     Diagonalizing with lowered threshold

     Davidson diagonalization with overlap
     ethr =  4.30E-04,  avg # of iterations =  1.7

     total cpu time spent up to now is        1.7 secs

     total energy              =    -775.11157264 Ry
     Harris-Foulkes estimate   =    -775.14254716 Ry
     estimated scf accuracy    <       0.04734461 Ry

     iteration #  2     ecut=    25.00 Ry     beta= 0.70
     Davidson diagonalization with overlap
     ethr =  4.30E-04,  avg # of iterations =  2.1

     total cpu time spent up to now is        1.9 secs

     total energy              =    -775.12506244 Ry
     Harris-Foulkes estimate   =    -775.13231213 Ry
     estimated scf accuracy    <       0.01177631 Ry

     iteration #  3     ecut=    25.00 Ry     beta= 0.70
     Davidson diagonalization with overlap
     ethr =  1.07E-04,  avg # of iterations =  2.3

     total cpu time spent up to now is        2.2 secs

     total energy              =    -775.12779836 Ry
     Harris-Foulkes estimate   =    -775.12779425 Ry
     estimated scf accuracy    <       0.00019695 Ry

     iteration #  4     ecut=    25.00 Ry     beta= 0.70
     Davidson diagonalization with overlap
     ethr =  1.79E-06,  avg # of iterations =  3.5

     total cpu time spent up to now is        2.5 secs

     total energy              =    -775.12792015 Ry
     Harris-Foulkes estimate   =    -775.12795773 Ry
     estimated scf accuracy    <       0.00008123 Ry

     iteration #  5     ecut=    25.00 Ry     beta= 0.70
     Davidson diagonalization with overlap
     ethr =  7.38E-07,  avg # of iterations =  1.0

     total cpu time spent up to now is        2.7 secs

     total energy              =    -775.12792340 Ry
     Harris-Foulkes estimate   =    -775.12792798 Ry
     estimated scf accuracy    <       0.00000700 Ry

     iteration #  6     ecut=    25.00 Ry     beta= 0.70
     Davidson diagonalization with overlap
     ethr =  6.36E-08,  avg # of iterations =  2.5

     total cpu time spent up to now is        3.0 secs

     total energy              =    -775.12792694 Ry
     Harris-Foulkes estimate   =    -775.12792739 Ry
     estimated scf accuracy    <       0.00000107 Ry

     iteration #  7     ecut=    25.00 Ry     beta= 0.70
     Davidson diagonalization with overlap
     ethr =  9.77E-09,  avg # of iterations =  1.7

     total cpu time spent up to now is        3.2 secs

     total energy              =    -775.12792701 Ry
     Harris-Foulkes estimate   =    -775.12792707 Ry
     estimated scf accuracy    <       0.00000012 Ry

     iteration #  8     ecut=    25.00 Ry     beta= 0.70
     Davidson diagonalization with overlap
     ethr =  1.08E-09,  avg # of iterations =  2.8

     total cpu time spent up to now is        3.5 secs

     End of self-consistent calculation

          k = 0.0000 0.0000 0.0000 (   259 PWs)   bands (ev):

     6.0761  11.3058  11.3058  11.3058  12.8288  12.8288  31.3855  35.2442
    35.2442  35.2442

          k =-0.1250 0.1250-0.1250 (   256 PWs)   bands (ev):

     6.6089  11.1536  11.4719  11.4719  12.7717  12.7717  31.6821  32.5400
    35.7690  35.7690

          k =-0.2500 0.2500-0.2500 (   244 PWs)   bands (ev):

     7.8882  11.1664  11.5866  11.5866  13.0002  13.0002  27.3746  32.3664
    36.2547  36.2547

          k =-0.3750 0.3750-0.3750 (   241 PWs)   bands (ev):

     8.6140  11.3820  11.3820  12.8034  13.6826  13.6826  22.3475  31.2003
    34.5797  34.5797

          k = 0.5000-0.5000 0.5000 (   242 PWs)   bands (ev):

     8.6624  11.2659  11.2659  14.0443  14.0443  15.0051  19.1116  30.6693
    33.6039  33.6039

          k = 0.0000 0.2500 0.0000 (   254 PWs)   bands (ev):

     6.7903  10.9516  11.6330  11.6330  12.4569  12.9881  32.1949  33.5102
    34.3233  34.3233

          k =-0.1250 0.3750-0.1250 (   237 PWs)   bands (ev):

     7.8765  10.6787  11.6979  11.9019  12.5996  13.2407  29.3636  32.8526
    33.3533  35.4884

          k =-0.2500 0.5000-0.2500 (   240 PWs)   bands (ev):

     8.9045  11.1941  11.2911  11.7948  13.8103  13.9567  24.1918  31.8010
    32.4236  34.0219

          k = 0.6250-0.3750 0.6250 (   243 PWs)   bands (ev):

     9.0413  11.0341  11.5986  12.4876  14.0685  16.3241  19.7006  30.6849
    32.3291  32.3692

          k = 0.5000-0.2500 0.5000 (   247 PWs)   bands (ev):

     9.0649  11.1138  11.5922  12.3545  13.5871  15.6197  21.1064  30.2187
    32.1116  34.0867

          k = 0.3750-0.1250 0.3750 (   246 PWs)   bands (ev):

     8.7141  10.9727  11.4890  11.8091  12.7208  14.0902  25.9111  30.6659
    33.5108  37.2572

          k = 0.2500 0.0000 0.2500 (   249 PWs)   bands (ev):

     7.4347  10.8916  11.6512  11.7453  12.4288  13.1662  30.3587  31.6705
    34.6304  36.7543

          k = 0.0000 0.5000 0.0000 (   234 PWs)   bands (ev):

     8.5152  10.1800  11.9955  12.5476  12.5476  13.3891  31.0713  31.0713
    32.4890  33.1434

          k =-0.1250 0.6250-0.1250 (   237 PWs)   bands (ev):

     9.2751  10.0007  11.7856  12.7197  13.8688  14.1090  26.3189  29.6790
    30.0110  33.6328

          k = 0.7500-0.2500 0.7500 (   238 PWs)   bands (ev):

     9.5292  10.4402  11.6486  12.4941  14.1349  17.0487  21.4924  27.7236
    29.7377  33.3634

          k = 0.6250-0.1250 0.6250 (   241 PWs)   bands (ev):

     9.8044  10.7147  11.5462  12.3111  13.6297  17.9308  20.9185  26.0321
    31.5582  33.0124

          k = 0.5000 0.0000 0.5000 (   248 PWs)   bands (ev):

     9.8792  10.7647  11.1002  12.2269  12.8266  15.7327  24.6562  26.3781
    33.1269  34.5676

          k = 0.0000 0.7500 0.0000 (   242 PWs)   bands (ev):

     9.0982   9.4986  13.7369  13.7369  13.8120  14.0286  26.1150  27.6579
    27.6579  32.9889

          k = 0.8750-0.1250 0.8750 (   236 PWs)   bands (ev):

     9.1843   9.5259  13.1680  13.5625  14.2305  17.1513  22.7042  25.5779
    27.2653  34.1767

          k = 0.7500 0.0000 0.7500 (   240 PWs)   bands (ev):

     9.5292  10.1478  12.1581  13.1198  13.9213  19.9238  20.7171  23.5344
    28.8275  34.0150

          k = 0.0000-1.0000 0.0000 (   230 PWs)   bands (ev):

     8.9158   9.2393  13.9969  14.3724  14.3724  17.0139  21.8527  26.2134
    26.2134  33.5094

          k =-0.2500 0.5000 0.0000 (   239 PWs)   bands (ev):

     9.0076  10.3889  11.3454  12.5493  12.6351  14.1291  27.4947  29.3100
    32.6876  35.7667

          k = 0.6250-0.3750 0.8750 (   241 PWs)   bands (ev):

     9.6802  10.8095  11.0114  12.3499  13.5485  15.8821  23.1045  28.1355
    30.6979  35.0614

          k = 0.5000-0.2500 0.7500 (   242 PWs)   bands (ev):

     9.6849  10.6290  11.7337  12.1437  13.9055  18.6656  19.1191  28.3621
    29.4551  34.2775

          k = 0.7500-0.2500 1.0000 (   247 PWs)   bands (ev):

     9.6005   9.8530  11.8179  13.4296  13.7271  16.1474  24.4531  26.4095
    27.9363  35.8710

          k = 0.6250-0.1250 0.8750 (   240 PWs)   bands (ev):

     9.8452  10.2879  11.4943  12.9038  14.0909  19.1872  21.2318  24.8733
    27.3025  36.0484

          k = 0.5000 0.0000 0.7500 (   239 PWs)   bands (ev):

    10.2886  10.5803  10.8589  12.6936  13.7310  18.0918  23.2353  23.6496
    28.8523  36.0469

          k =-0.2500-1.0000 0.0000 (   240 PWs)   bands (ev):

     9.3687   9.6406  12.7125  13.4488  14.3711  19.1757  21.2663  25.0987
    25.8119  36.1849

          k =-0.5000-1.0000 0.0000 (   252 PWs)   bands (ev):

    10.0180  10.8321  10.8321  12.6816  14.3707  20.8001  22.3650  22.3650
    25.5544  39.6186

     the Fermi energy is    15.9765 ev

!    total energy              =    -775.12792706 Ry
     Harris-Foulkes estimate   =    -775.12792706 Ry
     estimated scf accuracy    <          2.6E-09 Ry

     total all-electron energy =    -38023.974018 Ry

     The total energy is the sum of the following terms:

     one-electron contribution =      13.84006380 Ry
     hartree contribution      =       7.65086359 Ry
     xc contribution           =     -32.13163114 Ry
     ewald contribution        =     -71.95438543 Ry
     one-center paw contrib.   =    -692.53245033 Ry
     smearing contrib. (-TS)   =      -0.00038754 Ry

     convergence has been achieved in   8 iterations

     Forces acting on atoms (cartesian axes, Ry/au):

     atom    1 type  1   force =     0.00000000    0.00000000    0.00000000

     Total force =     0.000000     Total SCF correction =     0.000000


     Computing stress (Cartesian axis) and pressure

          total   stress  (Ry/bohr**3)                   (kbar)     P=  107.84
   0.00073309  -0.00000000  -0.00000000        107.84     -0.00     -0.00
  -0.00000000   0.00073309  -0.00000000         -0.00    107.84     -0.00
  -0.00000000  -0.00000000   0.00073309         -0.00     -0.00    107.84


     Writing output data file Au.save/

     init_run     :      0.30s CPU      0.33s WALL (       1 calls)
     electrons    :      2.01s CPU      2.27s WALL (       1 calls)
     forces       :      0.01s CPU      0.01s WALL (       1 calls)
     stress       :      0.04s CPU      0.04s WALL (       1 calls)

     Called by init_run:
     wfcinit      :      0.04s CPU      0.04s WALL (       1 calls)
     potinit      :      0.13s CPU      0.15s WALL (       1 calls)
     hinit0       :      0.11s CPU      0.12s WALL (       1 calls)

     Called by electrons:
     c_bands      :      0.99s CPU      1.11s WALL (       9 calls)
     sum_band     :      0.15s CPU      0.17s WALL (       9 calls)
     v_of_rho     :      0.01s CPU      0.01s WALL (       9 calls)
     newd         :      0.02s CPU      0.02s WALL (       9 calls)
     PAW_pot      :      0.95s CPU      1.09s WALL (       9 calls)
     mix_rho      :      0.00s CPU      0.00s WALL (       9 calls)

     Called by c_bands:
     init_us_2    :      0.02s CPU      0.02s WALL (     609 calls)
     cegterg      :      0.95s CPU      1.06s WALL (     261 calls)

     Called by sum_band:
     sum_band:bec :      0.00s CPU      0.00s WALL (     261 calls)
     addusdens    :      0.02s CPU      0.02s WALL (       9 calls)

     Called by *egterg:
     h_psi        :      0.64s CPU      0.73s WALL (     942 calls)
     s_psi        :      0.02s CPU      0.02s WALL (     942 calls)
     g_psi        :      0.00s CPU      0.00s WALL (     652 calls)
     cdiaghg      :      0.19s CPU      0.21s WALL (     884 calls)

     Called by h_psi:
     h_psi:pot    :      0.64s CPU      0.72s WALL (     942 calls)
     h_psi:calbec :      0.03s CPU      0.04s WALL (     942 calls)
     vloc_psi     :      0.58s CPU      0.66s WALL (     942 calls)
     add_vuspsi   :      0.02s CPU      0.02s WALL (     942 calls)

     General routines
     calbec       :      0.05s CPU      0.05s WALL (    1348 calls)
     fft          :      0.01s CPU      0.01s WALL (     126 calls)
     ffts         :      0.00s CPU      0.00s WALL (       9 calls)
     fftw         :      0.64s CPU      0.72s WALL (   16468 calls)

     Parallel routines
     fft_scatt_xy :      0.06s CPU      0.07s WALL (   16603 calls)
     fft_scatt_yz :      0.22s CPU      0.24s WALL (   16603 calls)

     PWSCF        :     3.27s CPU         3.63s WALL


   This run was terminated on:  11:22:47  26Mar2024            

=------------------------------------------------------------------------------=
   JOB DONE.
=------------------------------------------------------------------------------=
