
     Program PWSCF v.6.3MaX starts on 26Mar2024 at 12:20:57 

     This program is part of the open-source Quantum ESPRESSO suite
     for quantum simulation of materials; please cite
         "P. Giannozzi et al., J. Phys.:Condens. Matter 21 395502 (2009);
         "P. Giannozzi et al., J. Phys.:Condens. Matter 29 465901 (2017);
          URL http://www.quantum-espresso.org", 
     in publications or presentations arising from this work. More details at
     http://www.quantum-espresso.org/quote

     Parallel version (MPI), running on     5 processors

     MPI processes distributed on     1 nodes
     R & G space division:  proc/nbgrp/npool/nimage =       5
     Waiting for input...
     Reading input from standard input

     Current dimensions of program PWSCF are:
     Max number of different atomic species (ntypx) = 10
     Max number of k-points (npk) =  40000
     Max angular momentum in pseudopotentials (lmaxx) =  3

     Subspace diagonalization in iterative solution of the eigenvalue problem:
     a serial algorithm will be used


     Parallelization info
     --------------------
     sticks:   dense  smooth     PW     G-vecs:    dense   smooth      PW
     Min         129     129     39                 2201     2201     365
     Max         130     130     40                 2204     2204     368
     Sum         649     649    199                11017    11017    1837



     bravais-lattice index     =            2
     lattice parameter (alat)  =       7.7100  a.u.
     unit-cell volume          =     114.5785 (a.u.)^3
     number of atoms/cell      =            1
     number of atomic types    =            1
     number of electrons       =        11.00
     number of Kohn-Sham states=           10
     kinetic-energy cutoff     =      80.0000  Ry
     charge density cutoff     =     320.0000  Ry
     convergence threshold     =      1.0E-08
     mixing beta               =       0.7000
     number of iterations used =            8  plain     mixing
     Exchange-correlation      = PBESOL ( 1  4 10  8 0 0)

     celldm(1)=   7.710000  celldm(2)=   0.000000  celldm(3)=   0.000000
     celldm(4)=   0.000000  celldm(5)=   0.000000  celldm(6)=   0.000000

     crystal axes: (cart. coord. in units of alat)
               a(1) = (  -0.500000   0.000000   0.500000 )  
               a(2) = (   0.000000   0.500000   0.500000 )  
               a(3) = (  -0.500000   0.500000   0.000000 )  

     reciprocal axes: (cart. coord. in units 2 pi/alat)
               b(1) = ( -1.000000 -1.000000  1.000000 )  
               b(2) = (  1.000000  1.000000  1.000000 )  
               b(3) = ( -1.000000  1.000000 -1.000000 )  


     PseudoPot. # 1 for Au read from file:
     /home/lorenzo/pseudos/Au/Au.pbesol-n-rrkjus_psl.1.0.0.UPF
     MD5 check sum: 09626e9411213730b9a56fcc59c03ca8
     Pseudo is Ultrasoft + core correction, Zval = 11.0
     Generated using "atomic" code by A. Dal Corso v.6.3
     Using radial grid of 1279 points,  6 beta functions with: 
                l(1) =   0
                l(2) =   0
                l(3) =   1
                l(4) =   1
                l(5) =   2
                l(6) =   2
     Q(r) pseudized with 0 coefficients 


     atomic species   valence    mass     pseudopotential
        Au            11.00   196.96600     Au( 1.00)

     48 Sym. Ops., with inversion, found



   Cartesian axes

     site n.     atom                  positions (alat units)
         1           Au  tau(   1) = (   0.0000000   0.0000000   0.0000000  )

     number of k points=     8  gaussian smearing, width (Ry)=  0.0100
                       cart. coord. in units 2pi/alat
        k(    1) = (   0.0000000   0.0000000   0.0000000), wk =   0.0312500
        k(    2) = (  -0.2500000   0.2500000  -0.2500000), wk =   0.2500000
        k(    3) = (   0.5000000  -0.5000000   0.5000000), wk =   0.1250000
        k(    4) = (   0.0000000   0.5000000   0.0000000), wk =   0.1875000
        k(    5) = (   0.7500000  -0.2500000   0.7500000), wk =   0.7500000
        k(    6) = (   0.5000000   0.0000000   0.5000000), wk =   0.3750000
        k(    7) = (   0.0000000  -1.0000000   0.0000000), wk =   0.0937500
        k(    8) = (  -0.5000000  -1.0000000   0.0000000), wk =   0.1875000

     Dense  grid:    11017 G-vectors     FFT dimensions: (  32,  32,  32)

     Estimated max dynamical RAM per process >      10.37 MB

     Estimated total dynamical RAM >      51.87 MB

     Initial potential from superposition of free atoms

     starting charge   10.99990, renormalised to   11.00000
     Starting wfcs are    9 randomized atomic wfcs +    1 random wfcs

     total cpu time spent up to now is        1.5 secs

     Self-consistent Calculation

     iteration #  1     ecut=    80.00 Ry     beta= 0.70
     Davidson diagonalization with overlap
     ethr =  1.00E-02,  avg # of iterations =  6.0

     Threshold (ethr) on eigenvalues was too large:
     Diagonalizing with lowered threshold

     Davidson diagonalization with overlap
     ethr =  5.45E-04,  avg # of iterations =  2.2

     negative rho (up, down):  2.601E-04 0.000E+00

     total cpu time spent up to now is        1.8 secs

     total energy              =     -85.17476544 Ry
     Harris-Foulkes estimate   =     -85.21351625 Ry
     estimated scf accuracy    <       0.06317919 Ry

     iteration #  2     ecut=    80.00 Ry     beta= 0.70
     Davidson diagonalization with overlap
     ethr =  5.74E-04,  avg # of iterations =  4.4

     negative rho (up, down):  8.078E-04 0.000E+00

     total cpu time spent up to now is        2.0 secs

     total energy              =     -85.24842379 Ry
     Harris-Foulkes estimate   =     -85.23627776 Ry
     estimated scf accuracy    <       3.92445628 Ry

     iteration #  3     ecut=    80.00 Ry     beta= 0.70
     Davidson diagonalization with overlap
     ethr =  5.74E-04,  avg # of iterations =  2.4

     total cpu time spent up to now is        2.1 secs

     total energy              =     -85.12664041 Ry
     Harris-Foulkes estimate   =     -85.25142391 Ry
     estimated scf accuracy    <       9.29258347 Ry

     iteration #  4     ecut=    80.00 Ry     beta= 0.70
     Davidson diagonalization with overlap
     ethr =  5.74E-04,  avg # of iterations =  3.2

     total cpu time spent up to now is        2.2 secs

     total energy              =     -85.20025139 Ry
     Harris-Foulkes estimate   =     -85.20059313 Ry
     estimated scf accuracy    <       0.18812926 Ry

     iteration #  5     ecut=    80.00 Ry     beta= 0.70
     Davidson diagonalization with overlap
     ethr =  5.74E-04,  avg # of iterations =  1.0

     total cpu time spent up to now is        2.3 secs

     total energy              =     -85.19913710 Ry
     Harris-Foulkes estimate   =     -85.20034362 Ry
     estimated scf accuracy    <       0.18115327 Ry

     iteration #  6     ecut=    80.00 Ry     beta= 0.70
     Davidson diagonalization with overlap
     ethr =  5.74E-04,  avg # of iterations =  1.5

     total cpu time spent up to now is        2.5 secs

     total energy              =     -85.19852976 Ry
     Harris-Foulkes estimate   =     -85.19921488 Ry
     estimated scf accuracy    <       0.14826208 Ry

     iteration #  7     ecut=    80.00 Ry     beta= 0.70
     Davidson diagonalization with overlap
     ethr =  5.74E-04,  avg # of iterations =  1.0

     total cpu time spent up to now is        2.6 secs

     total energy              =     -85.19782129 Ry
     Harris-Foulkes estimate   =     -85.19856515 Ry
     estimated scf accuracy    <       0.13412940 Ry

     iteration #  8     ecut=    80.00 Ry     beta= 0.70
     Davidson diagonalization with overlap
     ethr =  5.74E-04,  avg # of iterations =  1.0

     total cpu time spent up to now is        2.7 secs

     total energy              =     -85.19680317 Ry
     Harris-Foulkes estimate   =     -85.19787266 Ry
     estimated scf accuracy    <       0.11807580 Ry

     iteration #  9     ecut=    80.00 Ry     beta= 0.70
     Davidson diagonalization with overlap
     ethr =  5.74E-04,  avg # of iterations =  1.5

     total cpu time spent up to now is        2.8 secs

     total energy              =     -85.19464972 Ry
     Harris-Foulkes estimate   =     -85.19690878 Ry
     estimated scf accuracy    <       0.09623939 Ry

     iteration # 10     ecut=    80.00 Ry     beta= 0.70
     Davidson diagonalization with overlap
     ethr =  5.74E-04,  avg # of iterations =  2.5

     total cpu time spent up to now is        3.0 secs

     total energy              =     -85.19527855 Ry
     Harris-Foulkes estimate   =     -85.19505973 Ry
     estimated scf accuracy    <       0.05712332 Ry

     iteration # 11     ecut=    80.00 Ry     beta= 0.70
     Davidson diagonalization with overlap
     ethr =  5.19E-04,  avg # of iterations =  1.0

     total cpu time spent up to now is        3.2 secs

     total energy              =     -85.18847560 Ry
     Harris-Foulkes estimate   =     -85.19537210 Ry
     estimated scf accuracy    <       0.05500530 Ry

     iteration # 12     ecut=    80.00 Ry     beta= 0.70
     Davidson diagonalization with overlap
     ethr =  5.00E-04,  avg # of iterations =  2.6

     total cpu time spent up to now is        3.3 secs

     total energy              =     -85.19322377 Ry
     Harris-Foulkes estimate   =     -85.19334633 Ry
     estimated scf accuracy    <       0.00465405 Ry

     iteration # 13     ecut=    80.00 Ry     beta= 0.70
     Davidson diagonalization with overlap
     ethr =  4.23E-05,  avg # of iterations =  2.2

     total cpu time spent up to now is        3.5 secs

     total energy              =     -85.19311789 Ry
     Harris-Foulkes estimate   =     -85.19327507 Ry
     estimated scf accuracy    <       0.00342044 Ry

     iteration # 14     ecut=    80.00 Ry     beta= 0.70
     Davidson diagonalization with overlap
     ethr =  3.11E-05,  avg # of iterations =  2.2

     total cpu time spent up to now is        3.6 secs

     total energy              =     -85.19317411 Ry
     Harris-Foulkes estimate   =     -85.19317782 Ry
     estimated scf accuracy    <       0.00082746 Ry

     iteration # 15     ecut=    80.00 Ry     beta= 0.70
     Davidson diagonalization with overlap
     ethr =  7.52E-06,  avg # of iterations =  1.0

     total cpu time spent up to now is        3.7 secs

     total energy              =     -85.19310211 Ry
     Harris-Foulkes estimate   =     -85.19318216 Ry
     estimated scf accuracy    <       0.00070168 Ry

     iteration # 16     ecut=    80.00 Ry     beta= 0.70
     Davidson diagonalization with overlap
     ethr =  6.38E-06,  avg # of iterations =  2.5

     total cpu time spent up to now is        3.9 secs

     total energy              =     -85.19318839 Ry
     Harris-Foulkes estimate   =     -85.19316845 Ry
     estimated scf accuracy    <       0.00007759 Ry

     iteration # 17     ecut=    80.00 Ry     beta= 0.70
     Davidson diagonalization with overlap
     ethr =  7.05E-07,  avg # of iterations =  3.2

     total cpu time spent up to now is        4.0 secs

     total energy              =     -85.19322962 Ry
     Harris-Foulkes estimate   =     -85.19322816 Ry
     estimated scf accuracy    <       0.00122746 Ry

     iteration # 18     ecut=    80.00 Ry     beta= 0.70
     Davidson diagonalization with overlap
     ethr =  7.05E-07,  avg # of iterations =  1.0

     total cpu time spent up to now is        4.2 secs

     total energy              =     -85.19340369 Ry
     Harris-Foulkes estimate   =     -85.19322969 Ry
     estimated scf accuracy    <       0.00123902 Ry

     iteration # 19     ecut=    80.00 Ry     beta= 0.70
     Davidson diagonalization with overlap
     ethr =  7.05E-07,  avg # of iterations =  3.5

     total cpu time spent up to now is        4.3 secs

     total energy              =     -85.19295665 Ry
     Harris-Foulkes estimate   =     -85.19353640 Ry
     estimated scf accuracy    <       0.00693124 Ry

     iteration # 20     ecut=    80.00 Ry     beta= 0.70
     Davidson diagonalization with overlap
     ethr =  7.05E-07,  avg # of iterations =  3.9

     total cpu time spent up to now is        4.5 secs

     total energy              =     -85.19308731 Ry
     Harris-Foulkes estimate   =     -85.19318350 Ry
     estimated scf accuracy    <       0.00037955 Ry

     iteration # 21     ecut=    80.00 Ry     beta= 0.70
     Davidson diagonalization with overlap
     ethr =  7.05E-07,  avg # of iterations =  3.4

     total cpu time spent up to now is        4.7 secs

     total energy              =     -85.19318870 Ry
     Harris-Foulkes estimate   =     -85.19320164 Ry
     estimated scf accuracy    <       0.00080053 Ry

     iteration # 22     ecut=    80.00 Ry     beta= 0.70
     Davidson diagonalization with overlap
     ethr =  7.05E-07,  avg # of iterations =  1.4

     total cpu time spent up to now is        4.8 secs

     total energy              =     -85.19314562 Ry
     Harris-Foulkes estimate   =     -85.19318983 Ry
     estimated scf accuracy    <       0.00057105 Ry

     iteration # 23     ecut=    80.00 Ry     beta= 0.70
     Davidson diagonalization with overlap
     ethr =  7.05E-07,  avg # of iterations =  2.5

     total cpu time spent up to now is        4.9 secs

     total energy              =     -85.19316485 Ry
     Harris-Foulkes estimate   =     -85.19316498 Ry
     estimated scf accuracy    <       0.00001926 Ry

     iteration # 24     ecut=    80.00 Ry     beta= 0.70
     Davidson diagonalization with overlap
     ethr =  1.75E-07,  avg # of iterations =  1.0

     total cpu time spent up to now is        5.0 secs

     total energy              =     -85.19316363 Ry
     Harris-Foulkes estimate   =     -85.19316497 Ry
     estimated scf accuracy    <       0.00001856 Ry

     iteration # 25     ecut=    80.00 Ry     beta= 0.70
     Davidson diagonalization with overlap
     ethr =  1.69E-07,  avg # of iterations =  1.4

     total cpu time spent up to now is        5.1 secs

     total energy              =     -85.19316383 Ry
     Harris-Foulkes estimate   =     -85.19316413 Ry
     estimated scf accuracy    <       0.00000316 Ry

     iteration # 26     ecut=    80.00 Ry     beta= 0.70
     Davidson diagonalization with overlap
     ethr =  2.87E-08,  avg # of iterations =  2.0

     total cpu time spent up to now is        5.2 secs

     total energy              =     -85.19316413 Ry
     Harris-Foulkes estimate   =     -85.19316413 Ry
     estimated scf accuracy    <       0.00000002 Ry

     iteration # 27     ecut=    80.00 Ry     beta= 0.70
     Davidson diagonalization with overlap
     ethr =  1.59E-10,  avg # of iterations =  4.0

     total cpu time spent up to now is        5.4 secs

     total energy              =     -85.19316414 Ry
     Harris-Foulkes estimate   =     -85.19316416 Ry
     estimated scf accuracy    <       0.00000017 Ry

     iteration # 28     ecut=    80.00 Ry     beta= 0.70
     Davidson diagonalization with overlap
     ethr =  1.59E-10,  avg # of iterations =  2.4

     total cpu time spent up to now is        5.6 secs

     End of self-consistent calculation

          k = 0.0000 0.0000 0.0000 (  1411 PWs)   bands (ev):

     5.8333  11.1221  11.1221  11.1221  12.6697  12.6697  31.1324  35.0052
    35.0052  35.0052

          k =-0.2500 0.2500-0.2500 (  1378 PWs)   bands (ev):

     7.6474  10.9696  11.4085  11.4085  12.8374  12.8374  27.1089  32.0932
    35.9676  35.9676

          k = 0.5000-0.5000 0.5000 (  1380 PWs)   bands (ev):

     8.4422  11.0874  11.0874  13.8846  13.8846  14.7567  18.9156  30.4209
    33.3563  33.3563

          k = 0.0000 0.5000 0.0000 (  1387 PWs)   bands (ev):

     8.2747   9.9843  11.8147  12.3728  12.3728  13.2299  30.7791  30.7791
    31.9294  32.9004

          k = 0.7500-0.2500 0.7500 (  1383 PWs)   bands (ev):

     9.3192  10.2433  11.4518  12.3263  13.9753  16.8394  21.2529  27.3212
    29.4273  32.9889

          k = 0.5000 0.0000 0.5000 (  1368 PWs)   bands (ev):

     9.6571  10.5684  10.9115  12.0611  12.6561  15.5465  24.3735  26.1261
    32.7961  34.0796

          k = 0.0000-1.0000 0.0000 (  1362 PWs)   bands (ev):

     8.6967   9.0327  13.8383  14.2145  14.2145  16.7625  21.5392  25.9664
    25.9664  32.7838

          k =-0.5000-1.0000 0.0000 (  1384 PWs)   bands (ev):

     9.8190  10.6351  10.6351  12.5152  14.2165  20.5514  22.1381  22.1381
    25.1182  39.3390

     the Fermi energy is    16.6523 ev

!    total energy              =     -85.19316415 Ry
     Harris-Foulkes estimate   =     -85.19316415 Ry
     estimated scf accuracy    <          8.1E-10 Ry

     The total energy is the sum of the following terms:

     one-electron contribution =      11.03390746 Ry
     hartree contribution      =       7.53303418 Ry
     xc contribution           =     -31.80526381 Ry
     ewald contribution        =     -71.95438534 Ry
     smearing contrib. (-TS)   =      -0.00045664 Ry

     convergence has been achieved in  28 iterations

     Forces acting on atoms (cartesian axes, Ry/au):

     atom    1 type  1   force =     0.00000000    0.00000000    0.00000000

     Total force =     0.000000     Total SCF correction =     0.000000


     Computing stress (Cartesian axis) and pressure

          total   stress  (Ry/bohr**3)                   (kbar)     P=   38.44
   0.00026133  -0.00000000  -0.00000000         38.44     -0.00     -0.00
  -0.00000000   0.00026133   0.00000000         -0.00     38.44      0.00
  -0.00000000   0.00000000   0.00026133         -0.00      0.00     38.44


     Writing output data file Au.save/

     init_run     :      0.25s CPU      0.26s WALL (       1 calls)
     electrons    :      3.83s CPU      4.10s WALL (       1 calls)
     forces       :      0.04s CPU      0.04s WALL (       1 calls)
     stress       :      0.12s CPU      0.13s WALL (       1 calls)

     Called by init_run:
     wfcinit      :      0.03s CPU      0.04s WALL (       1 calls)
     potinit      :      0.01s CPU      0.01s WALL (       1 calls)
     hinit0       :      0.19s CPU      0.19s WALL (       1 calls)

     Called by electrons:
     c_bands      :      2.48s CPU      2.69s WALL (      29 calls)
     sum_band     :      0.78s CPU      0.83s WALL (      29 calls)
     v_of_rho     :      0.20s CPU      0.21s WALL (      29 calls)
     newd         :      0.34s CPU      0.34s WALL (      29 calls)
     mix_rho      :      0.03s CPU      0.03s WALL (      29 calls)

     Called by c_bands:
     init_us_2    :      0.08s CPU      0.09s WALL (     488 calls)
     cegterg      :      2.34s CPU      2.54s WALL (     232 calls)

     Called by sum_band:
     sum_band:bec :      0.00s CPU      0.00s WALL (     232 calls)
     addusdens    :      0.30s CPU      0.30s WALL (      29 calls)

     Called by *egterg:
     h_psi        :      1.78s CPU      1.95s WALL (     784 calls)
     s_psi        :      0.06s CPU      0.06s WALL (     784 calls)
     g_psi        :      0.01s CPU      0.01s WALL (     544 calls)
     cdiaghg      :      0.18s CPU      0.19s WALL (     768 calls)

     Called by h_psi:
     h_psi:pot    :      1.77s CPU      1.94s WALL (     784 calls)
     h_psi:calbec :      0.10s CPU      0.11s WALL (     784 calls)
     vloc_psi     :      1.60s CPU      1.75s WALL (     784 calls)
     add_vuspsi   :      0.06s CPU      0.07s WALL (     784 calls)

     General routines
     calbec       :      0.14s CPU      0.16s WALL (    1056 calls)
     fft          :      0.11s CPU      0.11s WALL (     346 calls)
     ffts         :      0.00s CPU      0.01s WALL (      29 calls)
     fftw         :      1.77s CPU      1.95s WALL (   13896 calls)

     Parallel routines
     fft_scatt_xy :      0.18s CPU      0.19s WALL (   14271 calls)
     fft_scatt_yz :      0.70s CPU      0.76s WALL (   14271 calls)

     PWSCF        :     5.46s CPU         5.79s WALL


   This run was terminated on:  12:21: 3  26Mar2024            

=------------------------------------------------------------------------------=
   JOB DONE.
=------------------------------------------------------------------------------=
