
     Program PWSCF v.6.3MaX starts on 26Mar2024 at 12:20:28 

     This program is part of the open-source Quantum ESPRESSO suite
     for quantum simulation of materials; please cite
         "P. Giannozzi et al., J. Phys.:Condens. Matter 21 395502 (2009);
         "P. Giannozzi et al., J. Phys.:Condens. Matter 29 465901 (2017);
          URL http://www.quantum-espresso.org", 
     in publications or presentations arising from this work. More details at
     http://www.quantum-espresso.org/quote

     Parallel version (MPI), running on     5 processors

     MPI processes distributed on     1 nodes
     R & G space division:  proc/nbgrp/npool/nimage =       5
     Waiting for input...
     Reading input from standard input

     Current dimensions of program PWSCF are:
     Max number of different atomic species (ntypx) = 10
     Max number of k-points (npk) =  40000
     Max angular momentum in pseudopotentials (lmaxx) =  3

     Subspace diagonalization in iterative solution of the eigenvalue problem:
     a serial algorithm will be used


     Parallelization info
     --------------------
     sticks:   dense  smooth     PW     G-vecs:    dense   smooth      PW
     Min         129     129     39                 2201     2201     361
     Max         130     130     40                 2204     2204     363
     Sum         649     649    199                11017    11017    1807



     bravais-lattice index     =            2
     lattice parameter (alat)  =       7.7100  a.u.
     unit-cell volume          =     114.5785 (a.u.)^3
     number of atoms/cell      =            1
     number of atomic types    =            1
     number of electrons       =        11.00
     number of Kohn-Sham states=           10
     kinetic-energy cutoff     =      80.0000  Ry
     charge density cutoff     =     320.0000  Ry
     convergence threshold     =      1.0E-08
     mixing beta               =       0.7000
     number of iterations used =            8  plain     mixing
     Exchange-correlation      = PBE ( 1  4  3  4 0 0)

     celldm(1)=   7.710000  celldm(2)=   0.000000  celldm(3)=   0.000000
     celldm(4)=   0.000000  celldm(5)=   0.000000  celldm(6)=   0.000000

     crystal axes: (cart. coord. in units of alat)
               a(1) = (  -0.500000   0.000000   0.500000 )  
               a(2) = (   0.000000   0.500000   0.500000 )  
               a(3) = (  -0.500000   0.500000   0.000000 )  

     reciprocal axes: (cart. coord. in units 2 pi/alat)
               b(1) = ( -1.000000 -1.000000  1.000000 )  
               b(2) = (  1.000000  1.000000  1.000000 )  
               b(3) = ( -1.000000  1.000000 -1.000000 )  


     PseudoPot. # 1 for Au read from file:
     /home/lorenzo/pseudos/Au/Au.pbe-n-rrkjus_psl.1.0.0.UPF
     MD5 check sum: d7e77ba19504afed2c9b41c931dde4f0
     Pseudo is Ultrasoft + core correction, Zval = 11.0
     Generated using "atomic" code by A. Dal Corso v.6.3
     Using radial grid of 1279 points,  6 beta functions with: 
                l(1) =   0
                l(2) =   0
                l(3) =   1
                l(4) =   1
                l(5) =   2
                l(6) =   2
     Q(r) pseudized with 0 coefficients 


     atomic species   valence    mass     pseudopotential
        Au            11.00   196.96600     Au( 1.00)

     48 Sym. Ops., with inversion, found



   Cartesian axes

     site n.     atom                  positions (alat units)
         1           Au  tau(   1) = (   0.0000000   0.0000000   0.0000000  )

     number of k points=     4  gaussian smearing, width (Ry)=  0.0100
                       cart. coord. in units 2pi/alat
        k(    1) = (   0.0000000   0.0000000   0.0000000), wk =   0.0740741
        k(    2) = (  -0.3333333   0.3333333  -0.3333333), wk =   0.5925926
        k(    3) = (   0.0000000   0.6666667   0.0000000), wk =   0.4444444
        k(    4) = (   0.6666667  -0.0000000   0.6666667), wk =   0.8888889

     Dense  grid:    11017 G-vectors     FFT dimensions: (  32,  32,  32)

     Estimated max dynamical RAM per process >      10.21 MB

     Estimated total dynamical RAM >      51.03 MB

     Initial potential from superposition of free atoms

     starting charge   10.99989, renormalised to   11.00000
     Starting wfcs are    9 randomized atomic wfcs +    1 random wfcs

     total cpu time spent up to now is        1.1 secs

     Self-consistent Calculation

     iteration #  1     ecut=    80.00 Ry     beta= 0.70
     Davidson diagonalization with overlap
     ethr =  1.00E-02,  avg # of iterations =  6.5

     Threshold (ethr) on eigenvalues was too large:
     Diagonalizing with lowered threshold

     Davidson diagonalization with overlap
     ethr =  5.22E-04,  avg # of iterations =  1.5

     total cpu time spent up to now is        1.2 secs

     total energy              =     -85.39941645 Ry
     Harris-Foulkes estimate   =     -85.43518755 Ry
     estimated scf accuracy    <       0.05676386 Ry

     iteration #  2     ecut=    80.00 Ry     beta= 0.70
     Davidson diagonalization with overlap
     ethr =  5.16E-04,  avg # of iterations =  2.5

     total cpu time spent up to now is        1.3 secs

     total energy              =     -85.41423308 Ry
     Harris-Foulkes estimate   =     -85.42026819 Ry
     estimated scf accuracy    <       0.00935305 Ry

     iteration #  3     ecut=    80.00 Ry     beta= 0.70
     Davidson diagonalization with overlap
     ethr =  8.50E-05,  avg # of iterations =  2.0

     total cpu time spent up to now is        1.4 secs

     total energy              =     -85.41653331 Ry
     Harris-Foulkes estimate   =     -85.41657829 Ry
     estimated scf accuracy    <       0.00016872 Ry

     iteration #  4     ecut=    80.00 Ry     beta= 0.70
     Davidson diagonalization with overlap
     ethr =  1.53E-06,  avg # of iterations =  3.2

     total cpu time spent up to now is        1.6 secs

     total energy              =     -85.41662515 Ry
     Harris-Foulkes estimate   =     -85.41665658 Ry
     estimated scf accuracy    <       0.00005673 Ry

     iteration #  5     ecut=    80.00 Ry     beta= 0.70
     Davidson diagonalization with overlap
     ethr =  5.16E-07,  avg # of iterations =  1.0

     total cpu time spent up to now is        1.6 secs

     total energy              =     -85.41663020 Ry
     Harris-Foulkes estimate   =     -85.41663182 Ry
     estimated scf accuracy    <       0.00000268 Ry

     iteration #  6     ecut=    80.00 Ry     beta= 0.70
     Davidson diagonalization with overlap
     ethr =  2.44E-08,  avg # of iterations =  3.2

     total cpu time spent up to now is        1.7 secs

     total energy              =     -85.41663281 Ry
     Harris-Foulkes estimate   =     -85.41663303 Ry
     estimated scf accuracy    <       0.00000064 Ry

     iteration #  7     ecut=    80.00 Ry     beta= 0.70
     Davidson diagonalization with overlap
     ethr =  5.83E-09,  avg # of iterations =  1.0

     total cpu time spent up to now is        1.8 secs

     total energy              =     -85.41663273 Ry
     Harris-Foulkes estimate   =     -85.41663284 Ry
     estimated scf accuracy    <       0.00000017 Ry

     iteration #  8     ecut=    80.00 Ry     beta= 0.70
     Davidson diagonalization with overlap
     ethr =  1.50E-09,  avg # of iterations =  3.0

     total cpu time spent up to now is        2.0 secs

     total energy              =     -85.41663279 Ry
     Harris-Foulkes estimate   =     -85.41663280 Ry
     estimated scf accuracy    <       0.00000002 Ry

     iteration #  9     ecut=    80.00 Ry     beta= 0.70
     Davidson diagonalization with overlap
     ethr =  1.48E-10,  avg # of iterations =  2.0

     total cpu time spent up to now is        2.0 secs

     End of self-consistent calculation

          k = 0.0000 0.0000 0.0000 (  1411 PWs)   bands (ev):

     6.0883  11.2532  11.2532  11.2532  12.7671  12.7671  31.4031  35.2513
    35.2513  35.2513

          k =-0.3333 0.3333-0.3333 (  1399 PWs)   bands (ev):

     8.4790  11.4020  11.4020  12.0010  13.3906  13.3906  23.9151  31.5759
    35.1458  35.1458

          k = 0.0000 0.6667 0.0000 (  1379 PWs)   bands (ev):

     9.0865   9.6377  12.9585  13.2937  13.2937  13.6196  28.2166  28.6103
    28.6103  32.6879

          k = 0.6667-0.0000 0.6667 (  1382 PWs)   bands (ev):

     9.7772  10.5884  11.4591  12.6590  13.5436  18.4606  22.4528  23.1784
    30.4673  33.3271

     the Fermi energy is    13.7119 ev

!    total energy              =     -85.41663279 Ry
     Harris-Foulkes estimate   =     -85.41663279 Ry
     estimated scf accuracy    <          6.9E-10 Ry

     The total energy is the sum of the following terms:

     one-electron contribution =      11.08037011 Ry
     hartree contribution      =       7.54652423 Ry
     xc contribution           =     -32.08779486 Ry
     ewald contribution        =     -71.95438534 Ry
     smearing contrib. (-TS)   =      -0.00134694 Ry

     convergence has been achieved in   9 iterations

     Forces acting on atoms (cartesian axes, Ry/au):

     atom    1 type  1   force =     0.00000000    0.00000000    0.00000000

     Total force =     0.000000     Total SCF correction =     0.000000


     Computing stress (Cartesian axis) and pressure

          total   stress  (Ry/bohr**3)                   (kbar)     P=   45.23
   0.00030746   0.00000000   0.00000000         45.23      0.00      0.00
   0.00000000   0.00030746  -0.00000000          0.00     45.23     -0.00
   0.00000000  -0.00000000   0.00030746          0.00     -0.00     45.23


     Writing output data file Au.save/

     init_run     :      0.23s CPU      0.24s WALL (       1 calls)
     electrons    :      0.92s CPU      0.97s WALL (       1 calls)
     forces       :      0.05s CPU      0.05s WALL (       1 calls)
     stress       :      0.12s CPU      0.12s WALL (       1 calls)

     Called by init_run:
     wfcinit      :      0.01s CPU      0.02s WALL (       1 calls)
     potinit      :      0.01s CPU      0.01s WALL (       1 calls)
     hinit0       :      0.19s CPU      0.19s WALL (       1 calls)

     Called by electrons:
     c_bands      :      0.50s CPU      0.54s WALL (      10 calls)
     sum_band     :      0.23s CPU      0.24s WALL (      10 calls)
     v_of_rho     :      0.07s CPU      0.07s WALL (      10 calls)
     newd         :      0.12s CPU      0.13s WALL (      10 calls)
     mix_rho      :      0.01s CPU      0.01s WALL (      10 calls)

     Called by c_bands:
     init_us_2    :      0.02s CPU      0.02s WALL (      92 calls)
     cegterg      :      0.47s CPU      0.51s WALL (      40 calls)

     Called by sum_band:
     sum_band:bec :      0.00s CPU      0.00s WALL (      40 calls)
     addusdens    :      0.11s CPU      0.11s WALL (      10 calls)

     Called by *egterg:
     h_psi        :      0.37s CPU      0.40s WALL (     148 calls)
     s_psi        :      0.01s CPU      0.01s WALL (     148 calls)
     g_psi        :      0.00s CPU      0.00s WALL (     104 calls)
     cdiaghg      :      0.03s CPU      0.04s WALL (     140 calls)

     Called by h_psi:
     h_psi:pot    :      0.37s CPU      0.40s WALL (     148 calls)
     h_psi:calbec :      0.02s CPU      0.02s WALL (     148 calls)
     vloc_psi     :      0.34s CPU      0.36s WALL (     148 calls)
     add_vuspsi   :      0.01s CPU      0.01s WALL (     148 calls)

     General routines
     calbec       :      0.03s CPU      0.03s WALL (     208 calls)
     fft          :      0.05s CPU      0.05s WALL (     137 calls)
     ffts         :      0.00s CPU      0.00s WALL (      10 calls)
     fftw         :      0.38s CPU      0.41s WALL (    2574 calls)

     Parallel routines
     fft_scatt_xy :      0.03s CPU      0.04s WALL (    2721 calls)
     fft_scatt_yz :      0.19s CPU      0.20s WALL (    2721 calls)

     PWSCF        :     2.16s CPU         2.26s WALL


   This run was terminated on:  12:20:30  26Mar2024            

=------------------------------------------------------------------------------=
   JOB DONE.
=------------------------------------------------------------------------------=
