
     Program PWSCF v.6.3MaX starts on 26Mar2024 at 11:53:50 

     This program is part of the open-source Quantum ESPRESSO suite
     for quantum simulation of materials; please cite
         "P. Giannozzi et al., J. Phys.:Condens. Matter 21 395502 (2009);
         "P. Giannozzi et al., J. Phys.:Condens. Matter 29 465901 (2017);
          URL http://www.quantum-espresso.org", 
     in publications or presentations arising from this work. More details at
     http://www.quantum-espresso.org/quote

     Parallel version (MPI), running on     5 processors

     MPI processes distributed on     1 nodes
     R & G space division:  proc/nbgrp/npool/nimage =       5
     Waiting for input...
     Reading input from standard input

     Current dimensions of program PWSCF are:
     Max number of different atomic species (ntypx) = 10
     Max number of k-points (npk) =  40000
     Max angular momentum in pseudopotentials (lmaxx) =  3
               file Au.pbesol-n-kjpaw_psl.1.0.0.UPF: wavefunction(s)  6S 5D renormalized

     Subspace diagonalization in iterative solution of the eigenvalue problem:
     a serial algorithm will be used


     Parallelization info
     --------------------
     sticks:   dense  smooth     PW     G-vecs:    dense   smooth      PW
     Min          99      99     30                 1446     1446     248
     Max         100     100     31                 1449     1449     251
     Sum         499     499    151                 7239     7239    1243



     bravais-lattice index     =            2
     lattice parameter (alat)  =       7.7100  a.u.
     unit-cell volume          =     114.5785 (a.u.)^3
     number of atoms/cell      =            1
     number of atomic types    =            1
     number of electrons       =        11.00
     number of Kohn-Sham states=           10
     kinetic-energy cutoff     =      60.0000  Ry
     charge density cutoff     =     240.0000  Ry
     convergence threshold     =      1.0E-08
     mixing beta               =       0.7000
     number of iterations used =            8  plain     mixing
     Exchange-correlation      = SLA PW PSX PSC ( 1  4 10  8 0 0)

     celldm(1)=   7.710000  celldm(2)=   0.000000  celldm(3)=   0.000000
     celldm(4)=   0.000000  celldm(5)=   0.000000  celldm(6)=   0.000000

     crystal axes: (cart. coord. in units of alat)
               a(1) = (  -0.500000   0.000000   0.500000 )  
               a(2) = (   0.000000   0.500000   0.500000 )  
               a(3) = (  -0.500000   0.500000   0.000000 )  

     reciprocal axes: (cart. coord. in units 2 pi/alat)
               b(1) = ( -1.000000 -1.000000  1.000000 )  
               b(2) = (  1.000000  1.000000  1.000000 )  
               b(3) = ( -1.000000  1.000000 -1.000000 )  


     PseudoPot. # 1 for Au read from file:
     /home/lorenzo/pseudos/Au/Au.pbesol-n-kjpaw_psl.1.0.0.UPF
     MD5 check sum: abc371be705c47a6b6a6b4088b452d3e
     Pseudo is Projector augmented-wave + core cor, Zval = 11.0
     Generated using "atomic" code by A. Dal Corso v.6.3
     Shape of augmentation charge: PSQ
     Using radial grid of 1279 points,  6 beta functions with: 
                l(1) =   0
                l(2) =   0
                l(3) =   1
                l(4) =   1
                l(5) =   2
                l(6) =   2
     Q(r) pseudized with 0 coefficients 


     atomic species   valence    mass     pseudopotential
        Au            11.00   196.96600     Au( 1.00)

     48 Sym. Ops., with inversion, found



   Cartesian axes

     site n.     atom                  positions (alat units)
         1           Au  tau(   1) = (   0.0000000   0.0000000   0.0000000  )

     number of k points=     4  gaussian smearing, width (Ry)=  0.0100
                       cart. coord. in units 2pi/alat
        k(    1) = (   0.0000000   0.0000000   0.0000000), wk =   0.0740741
        k(    2) = (  -0.3333333   0.3333333  -0.3333333), wk =   0.5925926
        k(    3) = (   0.0000000   0.6666667   0.0000000), wk =   0.4444444
        k(    4) = (   0.6666667  -0.0000000   0.6666667), wk =   0.8888889

     Dense  grid:     7239 G-vectors     FFT dimensions: (  27,  27,  27)

     Estimated max dynamical RAM per process >       7.06 MB

     Estimated total dynamical RAM >      35.29 MB

     Initial potential from superposition of free atoms

     starting charge   10.99990, renormalised to   11.00000
     Starting wfcs are    9 randomized atomic wfcs +    1 random wfcs
     Checking if some PAW data can be deallocated... 

     total cpu time spent up to now is        1.3 secs

     Self-consistent Calculation

     iteration #  1     ecut=    60.00 Ry     beta= 0.70
     Davidson diagonalization with overlap
     ethr =  1.00E-02,  avg # of iterations =  6.5

     Threshold (ethr) on eigenvalues was too large:
     Diagonalizing with lowered threshold

     Davidson diagonalization with overlap
     ethr =  6.08E-04,  avg # of iterations =  1.5

     total cpu time spent up to now is        1.6 secs

     total energy              =    -764.69464517 Ry
     Harris-Foulkes estimate   =    -764.73427557 Ry
     estimated scf accuracy    <       0.06752499 Ry

     iteration #  2     ecut=    60.00 Ry     beta= 0.70
     Davidson diagonalization with overlap
     ethr =  6.14E-04,  avg # of iterations =  4.8

     total cpu time spent up to now is        1.8 secs

     total energy              =    -717.85964485 Ry
     Harris-Foulkes estimate   =    -846.24711286 Ry
     estimated scf accuracy    <  194483.02928806 Ry

     iteration #  3     ecut=    60.00 Ry     beta= 0.70
     Davidson diagonalization with overlap
     ethr =  6.14E-04,  avg # of iterations =  6.2

     total cpu time spent up to now is        2.0 secs

     total energy              =    -764.70750501 Ry
     Harris-Foulkes estimate   =    -764.71913612 Ry
     estimated scf accuracy    <       0.02201173 Ry

     iteration #  4     ecut=    60.00 Ry     beta= 0.70
     Davidson diagonalization with overlap
     ethr =  2.00E-04,  avg # of iterations =  3.8

     total cpu time spent up to now is        2.2 secs

     total energy              =    -764.71130858 Ry
     Harris-Foulkes estimate   =    -764.71134939 Ry
     estimated scf accuracy    <       0.00263946 Ry

     iteration #  5     ecut=    60.00 Ry     beta= 0.70
     Davidson diagonalization with overlap
     ethr =  2.40E-05,  avg # of iterations =  3.8

     total cpu time spent up to now is        2.4 secs

     total energy              =    -764.71176803 Ry
     Harris-Foulkes estimate   =    -764.71181235 Ry
     estimated scf accuracy    <       0.00268956 Ry

     iteration #  6     ecut=    60.00 Ry     beta= 0.70
     Davidson diagonalization with overlap
     ethr =  2.40E-05,  avg # of iterations =  1.0

     total cpu time spent up to now is        2.6 secs

     total energy              =    -764.71178544 Ry
     Harris-Foulkes estimate   =    -764.71179322 Ry
     estimated scf accuracy    <       0.00264776 Ry

     iteration #  7     ecut=    60.00 Ry     beta= 0.70
     Davidson diagonalization with overlap
     ethr =  2.40E-05,  avg # of iterations =  1.0

     total cpu time spent up to now is        2.8 secs

     total energy              =    -764.71178359 Ry
     Harris-Foulkes estimate   =    -764.71181674 Ry
     estimated scf accuracy    <       0.00281608 Ry

     iteration #  8     ecut=    60.00 Ry     beta= 0.70
     Davidson diagonalization with overlap
     ethr =  2.40E-05,  avg # of iterations =  1.0

     total cpu time spent up to now is        3.0 secs

     total energy              =    -764.71179039 Ry
     Harris-Foulkes estimate   =    -764.71179236 Ry
     estimated scf accuracy    <       0.00278199 Ry

     iteration #  9     ecut=    60.00 Ry     beta= 0.70
     Davidson diagonalization with overlap
     ethr =  2.40E-05,  avg # of iterations =  1.0

     total cpu time spent up to now is        3.2 secs

     total energy              =    -764.71178792 Ry
     Harris-Foulkes estimate   =    -764.71179110 Ry
     estimated scf accuracy    <       0.00276857 Ry

     iteration # 10     ecut=    60.00 Ry     beta= 0.70
     Davidson diagonalization with overlap
     ethr =  2.40E-05,  avg # of iterations =  1.0

     total cpu time spent up to now is        3.4 secs

     total energy              =    -764.71178779 Ry
     Harris-Foulkes estimate   =    -764.71178849 Ry
     estimated scf accuracy    <       0.00274489 Ry

     iteration # 11     ecut=    60.00 Ry     beta= 0.70
     Davidson diagonalization with overlap
     ethr =  2.40E-05,  avg # of iterations =  1.0

     total cpu time spent up to now is        3.5 secs

     total energy              =    -764.71202986 Ry
     Harris-Foulkes estimate   =    -764.71178796 Ry
     estimated scf accuracy    <       0.00273340 Ry

     iteration # 12     ecut=    60.00 Ry     beta= 0.70
     Davidson diagonalization with overlap
     ethr =  2.40E-05,  avg # of iterations =  2.2

     total cpu time spent up to now is        3.7 secs

     total energy              =    -764.71139115 Ry
     Harris-Foulkes estimate   =    -764.71255256 Ry
     estimated scf accuracy    <       0.00236796 Ry

     iteration # 13     ecut=    60.00 Ry     beta= 0.70
     Davidson diagonalization with overlap
     ethr =  2.15E-05,  avg # of iterations =  2.0

     total cpu time spent up to now is        3.9 secs

     total energy              =    -764.71154544 Ry
     Harris-Foulkes estimate   =    -764.71164461 Ry
     estimated scf accuracy    <       0.00021589 Ry

     iteration # 14     ecut=    60.00 Ry     beta= 0.70
     Davidson diagonalization with overlap
     ethr =  1.96E-06,  avg # of iterations =  3.0

     total cpu time spent up to now is        4.1 secs

     total energy              =    -764.71159674 Ry
     Harris-Foulkes estimate   =    -764.71160115 Ry
     estimated scf accuracy    <       0.00002090 Ry

     iteration # 15     ecut=    60.00 Ry     beta= 0.70
     Davidson diagonalization with overlap
     ethr =  1.90E-07,  avg # of iterations =  3.0

     total cpu time spent up to now is        4.3 secs

     total energy              =    -764.71159937 Ry
     Harris-Foulkes estimate   =    -764.71160863 Ry
     estimated scf accuracy    <       0.00001743 Ry

     iteration # 16     ecut=    60.00 Ry     beta= 0.70
     Davidson diagonalization with overlap
     ethr =  1.58E-07,  avg # of iterations =  1.8

     total cpu time spent up to now is        4.5 secs

     total energy              =    -764.71160184 Ry
     Harris-Foulkes estimate   =    -764.71160193 Ry
     estimated scf accuracy    <       0.00000032 Ry

     iteration # 17     ecut=    60.00 Ry     beta= 0.70
     Davidson diagonalization with overlap
     ethr =  2.93E-09,  avg # of iterations =  4.8

     total cpu time spent up to now is        4.7 secs

     total energy              =    -764.71160230 Ry
     Harris-Foulkes estimate   =    -764.71160227 Ry
     estimated scf accuracy    <       0.00000005 Ry

     iteration # 18     ecut=    60.00 Ry     beta= 0.70
     Davidson diagonalization with overlap
     ethr =  4.63E-10,  avg # of iterations =  3.0

     total cpu time spent up to now is        4.9 secs

     total energy              =    -764.71160232 Ry
     Harris-Foulkes estimate   =    -764.71160237 Ry
     estimated scf accuracy    <       0.00000030 Ry

     iteration # 19     ecut=    60.00 Ry     beta= 0.70
     Davidson diagonalization with overlap
     ethr =  4.63E-10,  avg # of iterations =  1.2

     total cpu time spent up to now is        5.1 secs

     total energy              =    -764.71160226 Ry
     Harris-Foulkes estimate   =    -764.71160233 Ry
     estimated scf accuracy    <       0.00000017 Ry

     iteration # 20     ecut=    60.00 Ry     beta= 0.70
     Davidson diagonalization with overlap
     ethr =  4.63E-10,  avg # of iterations =  2.5

     total cpu time spent up to now is        5.3 secs

     End of self-consistent calculation

          k = 0.0000 0.0000 0.0000 (   893 PWs)   bands (ev):

     5.8067  11.0244  11.0244  11.0244  12.5448  12.5448  31.1459  34.9744
    34.9744  34.9744

          k =-0.3333 0.3333-0.3333 (   896 PWs)   bands (ev):

     8.2206  11.1751  11.1751  11.7427  13.1666  13.1666  23.6630  31.3150
    34.8823  34.8823

          k = 0.0000 0.6667 0.0000 (   906 PWs)   bands (ev):

     8.8316   9.4076  12.6980  13.0677  13.0677  13.3963  27.8933  28.3422
    28.3422  32.3288

          k = 0.6667-0.0000 0.6667 (   901 PWs)   bands (ev):

     9.5420  10.3479  11.2222  12.4347  13.3198  18.1952  22.2048  22.8678
    30.1395  33.0665

     the Fermi energy is    13.4884 ev

!    total energy              =    -764.71160227 Ry
     Harris-Foulkes estimate   =    -764.71160228 Ry
     estimated scf accuracy    <          5.7E-09 Ry

     total all-electron energy =    -38013.546065 Ry

     The total energy is the sum of the following terms:

     one-electron contribution =      13.85963453 Ry
     hartree contribution      =       7.53366135 Ry
     xc contribution           =     -31.80631933 Ry
     ewald contribution        =     -71.95438535 Ry
     one-center paw contrib.   =    -682.34284787 Ry
     smearing contrib. (-TS)   =      -0.00134560 Ry

     convergence has been achieved in  20 iterations

     Forces acting on atoms (cartesian axes, Ry/au):

     atom    1 type  1   force =     0.00000000    0.00000000    0.00000000

     Total force =     0.000000     Total SCF correction =     0.000000


     Computing stress (Cartesian axis) and pressure

          total   stress  (Ry/bohr**3)                   (kbar)     P=  -46.44
  -0.00031573  -0.00000000  -0.00000000        -46.44     -0.00     -0.00
  -0.00000000  -0.00031573   0.00000000         -0.00    -46.44      0.00
  -0.00000000   0.00000000  -0.00031573         -0.00      0.00    -46.44


     Writing output data file Au.save/

     init_run     :      0.32s CPU      0.35s WALL (       1 calls)
     electrons    :      3.62s CPU      3.99s WALL (       1 calls)
     forces       :      0.03s CPU      0.03s WALL (       1 calls)
     stress       :      0.08s CPU      0.08s WALL (       1 calls)

     Called by init_run:
     wfcinit      :      0.02s CPU      0.02s WALL (       1 calls)
     potinit      :      0.11s CPU      0.13s WALL (       1 calls)
     hinit0       :      0.17s CPU      0.17s WALL (       1 calls)

     Called by electrons:
     c_bands      :      0.82s CPU      0.86s WALL (      21 calls)
     sum_band     :      0.33s CPU      0.35s WALL (      21 calls)
     v_of_rho     :      0.11s CPU      0.11s WALL (      21 calls)
     newd         :      0.16s CPU      0.20s WALL (      21 calls)
     PAW_pot      :      2.28s CPU      2.57s WALL (      21 calls)
     mix_rho      :      0.02s CPU      0.02s WALL (      21 calls)

     Called by c_bands:
     init_us_2    :      0.03s CPU      0.03s WALL (     180 calls)
     cegterg      :      0.78s CPU      0.82s WALL (      84 calls)

     Called by sum_band:
     sum_band:bec :      0.00s CPU      0.00s WALL (      84 calls)
     addusdens    :      0.15s CPU      0.15s WALL (      21 calls)

     Called by *egterg:
     h_psi        :      0.57s CPU      0.60s WALL (     312 calls)
     s_psi        :      0.02s CPU      0.02s WALL (     312 calls)
     g_psi        :      0.00s CPU      0.00s WALL (     224 calls)
     cdiaghg      :      0.08s CPU      0.09s WALL (     304 calls)

     Called by h_psi:
     h_psi:pot    :      0.57s CPU      0.60s WALL (     312 calls)
     h_psi:calbec :      0.03s CPU      0.03s WALL (     312 calls)
     vloc_psi     :      0.52s CPU      0.55s WALL (     312 calls)
     add_vuspsi   :      0.02s CPU      0.02s WALL (     312 calls)

     General routines
     calbec       :      0.04s CPU      0.04s WALL (     416 calls)
     fft          :      0.07s CPU      0.07s WALL (     258 calls)
     ffts         :      0.00s CPU      0.00s WALL (      21 calls)
     fftw         :      0.58s CPU      0.62s WALL (    5226 calls)

     Parallel routines
     fft_scatt_xy :      0.05s CPU      0.05s WALL (    5505 calls)
     fft_scatt_yz :      0.22s CPU      0.23s WALL (    5505 calls)

     PWSCF        :     5.00s CPU         5.45s WALL


   This run was terminated on:  11:53:55  26Mar2024            

=------------------------------------------------------------------------------=
   JOB DONE.
=------------------------------------------------------------------------------=
