
     Program PWSCF v.6.3MaX starts on 26Mar2024 at 11:26:22 

     This program is part of the open-source Quantum ESPRESSO suite
     for quantum simulation of materials; please cite
         "P. Giannozzi et al., J. Phys.:Condens. Matter 21 395502 (2009);
         "P. Giannozzi et al., J. Phys.:Condens. Matter 29 465901 (2017);
          URL http://www.quantum-espresso.org", 
     in publications or presentations arising from this work. More details at
     http://www.quantum-espresso.org/quote

     Parallel version (MPI), running on     5 processors

     MPI processes distributed on     1 nodes
     R & G space division:  proc/nbgrp/npool/nimage =       5
     Waiting for input...
     Reading input from standard input

     Current dimensions of program PWSCF are:
     Max number of different atomic species (ntypx) = 10
     Max number of k-points (npk) =  40000
     Max angular momentum in pseudopotentials (lmaxx) =  3
               file Au.pbe-n-kjpaw_psl.1.0.0.UPF: wavefunction(s)  6S 5D renormalized

     Subspace diagonalization in iterative solution of the eigenvalue problem:
     a serial algorithm will be used


     Parallelization info
     --------------------
     sticks:   dense  smooth     PW     G-vecs:    dense   smooth      PW
     Min          50      50     17                  527      527     106
     Max          51      51     17                  528      528     107
     Sum         253     253     85                 2637     2637     531



     bravais-lattice index     =            2
     lattice parameter (alat)  =       7.7100  a.u.
     unit-cell volume          =     114.5785 (a.u.)^3
     number of atoms/cell      =            1
     number of atomic types    =            1
     number of electrons       =        11.00
     number of Kohn-Sham states=           10
     kinetic-energy cutoff     =      30.0000  Ry
     charge density cutoff     =     120.0000  Ry
     convergence threshold     =      1.0E-08
     mixing beta               =       0.7000
     number of iterations used =            8  plain     mixing
     Exchange-correlation      = SLA PW PBX PBC ( 1  4  3  4 0 0)

     celldm(1)=   7.710000  celldm(2)=   0.000000  celldm(3)=   0.000000
     celldm(4)=   0.000000  celldm(5)=   0.000000  celldm(6)=   0.000000

     crystal axes: (cart. coord. in units of alat)
               a(1) = (  -0.500000   0.000000   0.500000 )  
               a(2) = (   0.000000   0.500000   0.500000 )  
               a(3) = (  -0.500000   0.500000   0.000000 )  

     reciprocal axes: (cart. coord. in units 2 pi/alat)
               b(1) = ( -1.000000 -1.000000  1.000000 )  
               b(2) = (  1.000000  1.000000  1.000000 )  
               b(3) = ( -1.000000  1.000000 -1.000000 )  


     PseudoPot. # 1 for Au read from file:
     /home/lorenzo/pseudos/Au/Au.pbe-n-kjpaw_psl.1.0.0.UPF
     MD5 check sum: 4db85c736373c707a97ce4c36c2a9d23
     Pseudo is Projector augmented-wave + core cor, Zval = 11.0
     Generated using "atomic" code by A. Dal Corso v.6.3
     Shape of augmentation charge: PSQ
     Using radial grid of 1279 points,  6 beta functions with: 
                l(1) =   0
                l(2) =   0
                l(3) =   1
                l(4) =   1
                l(5) =   2
                l(6) =   2
     Q(r) pseudized with 0 coefficients 


     atomic species   valence    mass     pseudopotential
        Au            11.00   196.96600     Au( 1.00)

     48 Sym. Ops., with inversion, found



   Cartesian axes

     site n.     atom                  positions (alat units)
         1           Au  tau(   1) = (   0.0000000   0.0000000   0.0000000  )

     number of k points=    29  gaussian smearing, width (Ry)=  0.0100
                       cart. coord. in units 2pi/alat
        k(    1) = (   0.0000000   0.0000000   0.0000000), wk =   0.0039062
        k(    2) = (  -0.1250000   0.1250000  -0.1250000), wk =   0.0312500
        k(    3) = (  -0.2500000   0.2500000  -0.2500000), wk =   0.0312500
        k(    4) = (  -0.3750000   0.3750000  -0.3750000), wk =   0.0312500
        k(    5) = (   0.5000000  -0.5000000   0.5000000), wk =   0.0156250
        k(    6) = (   0.0000000   0.2500000   0.0000000), wk =   0.0234375
        k(    7) = (  -0.1250000   0.3750000  -0.1250000), wk =   0.0937500
        k(    8) = (  -0.2500000   0.5000000  -0.2500000), wk =   0.0937500
        k(    9) = (   0.6250000  -0.3750000   0.6250000), wk =   0.0937500
        k(   10) = (   0.5000000  -0.2500000   0.5000000), wk =   0.0937500
        k(   11) = (   0.3750000  -0.1250000   0.3750000), wk =   0.0937500
        k(   12) = (   0.2500000   0.0000000   0.2500000), wk =   0.0468750
        k(   13) = (   0.0000000   0.5000000   0.0000000), wk =   0.0234375
        k(   14) = (  -0.1250000   0.6250000  -0.1250000), wk =   0.0937500
        k(   15) = (   0.7500000  -0.2500000   0.7500000), wk =   0.0937500
        k(   16) = (   0.6250000  -0.1250000   0.6250000), wk =   0.0937500
        k(   17) = (   0.5000000   0.0000000   0.5000000), wk =   0.0468750
        k(   18) = (   0.0000000   0.7500000   0.0000000), wk =   0.0234375
        k(   19) = (   0.8750000  -0.1250000   0.8750000), wk =   0.0937500
        k(   20) = (   0.7500000   0.0000000   0.7500000), wk =   0.0468750
        k(   21) = (   0.0000000  -1.0000000   0.0000000), wk =   0.0117188
        k(   22) = (  -0.2500000   0.5000000   0.0000000), wk =   0.0937500
        k(   23) = (   0.6250000  -0.3750000   0.8750000), wk =   0.1875000
        k(   24) = (   0.5000000  -0.2500000   0.7500000), wk =   0.0937500
        k(   25) = (   0.7500000  -0.2500000   1.0000000), wk =   0.0937500
        k(   26) = (   0.6250000  -0.1250000   0.8750000), wk =   0.1875000
        k(   27) = (   0.5000000   0.0000000   0.7500000), wk =   0.0937500
        k(   28) = (  -0.2500000  -1.0000000   0.0000000), wk =   0.0468750
        k(   29) = (  -0.5000000  -1.0000000   0.0000000), wk =   0.0234375

     Dense  grid:     2637 G-vectors     FFT dimensions: (  20,  20,  20)

     Estimated max dynamical RAM per process >       3.33 MB

     Estimated total dynamical RAM >      16.67 MB

     Initial potential from superposition of free atoms

     starting charge   10.99989, renormalised to   11.00000
     Starting wfcs are    9 randomized atomic wfcs +    1 random wfcs
     Checking if some PAW data can be deallocated... 

     total cpu time spent up to now is        1.2 secs

     Self-consistent Calculation

     iteration #  1     ecut=    30.00 Ry     beta= 0.70
     Davidson diagonalization with overlap
     ethr =  1.00E-02,  avg # of iterations =  5.1

     Threshold (ethr) on eigenvalues was too large:
     Diagonalizing with lowered threshold

     Davidson diagonalization with overlap
     ethr =  4.52E-04,  avg # of iterations =  2.0

     total cpu time spent up to now is        1.7 secs

     total energy              =    -775.11310586 Ry
     Harris-Foulkes estimate   =    -775.14615639 Ry
     estimated scf accuracy    <       0.04953883 Ry

     iteration #  2     ecut=    30.00 Ry     beta= 0.70
     Davidson diagonalization with overlap
     ethr =  4.50E-04,  avg # of iterations =  2.7

     total cpu time spent up to now is        2.0 secs

     total energy              =    -775.12756505 Ry
     Harris-Foulkes estimate   =    -775.13585534 Ry
     estimated scf accuracy    <       0.01354647 Ry

     iteration #  3     ecut=    30.00 Ry     beta= 0.70
     Davidson diagonalization with overlap
     ethr =  1.23E-04,  avg # of iterations =  2.0

     total cpu time spent up to now is        2.2 secs

     total energy              =    -775.13067687 Ry
     Harris-Foulkes estimate   =    -775.13069233 Ry
     estimated scf accuracy    <       0.00022797 Ry

     iteration #  4     ecut=    30.00 Ry     beta= 0.70
     Davidson diagonalization with overlap
     ethr =  2.07E-06,  avg # of iterations =  3.9

     total cpu time spent up to now is        2.6 secs

     total energy              =    -775.13086343 Ry
     Harris-Foulkes estimate   =    -775.13093574 Ry
     estimated scf accuracy    <       0.00015750 Ry

     iteration #  5     ecut=    30.00 Ry     beta= 0.70
     Davidson diagonalization with overlap
     ethr =  1.43E-06,  avg # of iterations =  1.0

     total cpu time spent up to now is        2.8 secs

     total energy              =    -775.13086708 Ry
     Harris-Foulkes estimate   =    -775.13087734 Ry
     estimated scf accuracy    <       0.00001574 Ry

     iteration #  6     ecut=    30.00 Ry     beta= 0.70
     Davidson diagonalization with overlap
     ethr =  1.43E-07,  avg # of iterations =  2.7

     total cpu time spent up to now is        3.1 secs

     total energy              =    -775.13087528 Ry
     Harris-Foulkes estimate   =    -775.13087608 Ry
     estimated scf accuracy    <       0.00000208 Ry

     iteration #  7     ecut=    30.00 Ry     beta= 0.70
     Davidson diagonalization with overlap
     ethr =  1.89E-08,  avg # of iterations =  1.4

     total cpu time spent up to now is        3.3 secs

     total energy              =    -775.13087528 Ry
     Harris-Foulkes estimate   =    -775.13087549 Ry
     estimated scf accuracy    <       0.00000035 Ry

     iteration #  8     ecut=    30.00 Ry     beta= 0.70
     Davidson diagonalization with overlap
     ethr =  3.20E-09,  avg # of iterations =  3.0

     total cpu time spent up to now is        3.5 secs

     total energy              =    -775.13087542 Ry
     Harris-Foulkes estimate   =    -775.13087543 Ry
     estimated scf accuracy    <       0.00000003 Ry

     iteration #  9     ecut=    30.00 Ry     beta= 0.70
     Davidson diagonalization with overlap
     ethr =  2.45E-10,  avg # of iterations =  2.2

     total cpu time spent up to now is        3.8 secs

     End of self-consistent calculation

          k = 0.0000 0.0000 0.0000 (   331 PWs)   bands (ev):

     6.0766  11.2904  11.2904  11.2904  12.8140  12.8140  31.3879  35.2451
    35.2451  35.2451

          k =-0.1250 0.1250-0.1250 (   320 PWs)   bands (ev):

     6.6092  11.1395  11.4574  11.4574  12.7568  12.7568  31.6265  32.5403
    35.7408  35.7408

          k =-0.2500 0.2500-0.2500 (   311 PWs)   bands (ev):

     7.8839  11.1551  11.5729  11.5729  12.9850  12.9850  27.2920  32.3196
    36.1684  36.1684

          k =-0.3750 0.3750-0.3750 (   320 PWs)   bands (ev):

     8.5995  11.3678  11.3678  12.7994  13.6643  13.6643  22.3023  31.1949
    34.5386  34.5386

          k = 0.5000-0.5000 0.5000 (   332 PWs)   bands (ev):

     8.6450  11.2506  11.2506  14.0247  14.0247  15.0059  19.0810  30.6732
    33.6031  33.6031

          k = 0.0000 0.2500 0.0000 (   323 PWs)   bands (ev):

     6.7906  10.9360  11.6191  11.6191  12.4429  12.9728  32.1570  33.4884
    34.2645  34.2645

          k =-0.1250 0.3750-0.1250 (   318 PWs)   bands (ev):

     7.8747  10.6635  11.6845  11.8881  12.5859  13.2238  29.2659  32.7445
    33.2388  35.3789

          k =-0.2500 0.5000-0.2500 (   317 PWs)   bands (ev):

     8.8932  11.1840  11.2777  11.7809  13.7912  13.9429  24.1394  31.7427
    32.3461  33.8972

          k = 0.6250-0.3750 0.6250 (   321 PWs)   bands (ev):

     9.0251  11.0195  11.5843  12.4776  14.0496  16.3112  19.6677  30.6288
    32.2844  32.3357

          k = 0.5000-0.2500 0.5000 (   318 PWs)   bands (ev):

     9.0505  11.0995  11.5780  12.3459  13.5706  15.6043  21.0718  30.1485
    32.1045  34.0375

          k = 0.3750-0.1250 0.3750 (   315 PWs)   bands (ev):

     8.7074  10.9609  11.4762  11.7951  12.7064  14.0717  25.8584  30.5440
    33.5010  37.2116

          k = 0.2500 0.0000 0.2500 (   317 PWs)   bands (ev):

     7.4340  10.8775  11.6377  11.7310  12.4146  13.1507  30.3161  31.5214
    34.6282  36.6974

          k = 0.0000 0.5000 0.0000 (   311 PWs)   bands (ev):

     8.5110  10.1634  11.9841  12.5340  12.5340  13.3717  30.9765  30.9765
    32.3416  33.1305

          k =-0.1250 0.6250-0.1250 (   320 PWs)   bands (ev):

     9.2635   9.9839  11.7751  12.7054  13.8493  14.0951  26.2734  29.6233
    29.8830  33.4831

          k = 0.7500-0.2500 0.7500 (   315 PWs)   bands (ev):

     9.5132  10.4266  11.6377  12.4802  14.1147  17.0284  21.4673  27.6198
    29.6953  33.1982

          k = 0.6250-0.1250 0.6250 (   315 PWs)   bands (ev):

     9.7898  10.7017  11.5350  12.2972  13.6131  17.9109  20.8764  25.9634
    31.4931  32.8988

          k = 0.5000 0.0000 0.5000 (   315 PWs)   bands (ev):

     9.8695  10.7514  11.0883  12.2131  12.8123  15.7132  24.6255  26.2871
    33.0754  34.4798

          k = 0.0000 0.7500 0.0000 (   322 PWs)   bands (ev):

     9.0822   9.4790  13.7201  13.7201  13.7945  14.0246  26.0691  27.6330
    27.6330  32.8676

          k = 0.8750-0.1250 0.8750 (   320 PWs)   bands (ev):

     9.1664   9.5071  13.1559  13.5451  14.2100  17.1364  22.6836  25.5105
    27.2468  33.9610

          k = 0.7500 0.0000 0.7500 (   327 PWs)   bands (ev):

     9.5109  10.1326  12.1463  13.1045  13.9030  19.9118  20.6843  23.4510
    28.7869  33.7938

          k = 0.0000-1.0000 0.0000 (   326 PWs)   bands (ev):

     8.8966   9.2161  13.9777  14.3508  14.3508  17.0137  21.7903  26.2130
    26.2130  33.2492

          k =-0.2500 0.5000 0.0000 (   315 PWs)   bands (ev):

     9.0031  10.3733  11.3318  12.5355  12.6219  14.1107  27.4461  29.1596
    32.5816  35.6627

          k = 0.6250-0.3750 0.8750 (   319 PWs)   bands (ev):

     9.6673  10.7958  10.9994  12.3364  13.5321  15.8630  23.0647  28.0536
    30.5755  35.0199

          k = 0.5000-0.2500 0.7500 (   314 PWs)   bands (ev):

     9.6714  10.6146  11.7231  12.1299  13.8878  18.6447  19.0930  28.3041
    29.3441  34.2581

          k = 0.7500-0.2500 1.0000 (   321 PWs)   bands (ev):

     9.5860   9.8360  11.8071  13.4144  13.7107  16.1317  24.4432  26.3548
    27.8379  35.8202

          k = 0.6250-0.1250 0.8750 (   320 PWs)   bands (ev):

     9.8291  10.2733  11.4825  12.8893  14.0722  19.1592  21.2071  24.8100
    27.1966  35.9139

          k = 0.5000 0.0000 0.7500 (   315 PWs)   bands (ev):

    10.2731  10.5691  10.8456  12.6795  13.7132  18.0699  23.1932  23.5914
    28.7282  35.9661

          k =-0.2500-1.0000 0.0000 (   320 PWs)   bands (ev):

     9.3524   9.6226  12.7005  13.4324  14.3517  19.1547  21.2412  25.0700
    25.7386  36.0584

          k =-0.5000-1.0000 0.0000 (   308 PWs)   bands (ev):

    10.0041  10.8197  10.8197  12.6682  14.3527  20.7868  22.3415  22.3415
    25.4631  39.5036

     the Fermi energy is    15.9578 ev

!    total energy              =    -775.13087542 Ry
     Harris-Foulkes estimate   =    -775.13087542 Ry
     estimated scf accuracy    <          4.0E-09 Ry

     total all-electron energy =    -38023.976966 Ry

     The total energy is the sum of the following terms:

     one-electron contribution =      13.83753314 Ry
     hartree contribution      =       7.64268020 Ry
     xc contribution           =     -32.12736925 Ry
     ewald contribution        =     -71.95438537 Ry
     one-center paw contrib.   =    -692.52895123 Ry
     smearing contrib. (-TS)   =      -0.00038291 Ry

     convergence has been achieved in   9 iterations

     Forces acting on atoms (cartesian axes, Ry/au):

     atom    1 type  1   force =     0.00000000    0.00000000    0.00000000

     Total force =     0.000000     Total SCF correction =     0.000000


     Computing stress (Cartesian axis) and pressure

          total   stress  (Ry/bohr**3)                   (kbar)     P=   98.01
   0.00066625   0.00000000   0.00000000         98.01      0.00      0.00
   0.00000000   0.00066625   0.00000000          0.00     98.01      0.00
   0.00000000   0.00000000   0.00066625          0.00      0.00     98.01


     Writing output data file Au.save/

     init_run     :      0.27s CPU      0.30s WALL (       1 calls)
     electrons    :      2.33s CPU      2.55s WALL (       1 calls)
     forces       :      0.01s CPU      0.02s WALL (       1 calls)
     stress       :      0.05s CPU      0.05s WALL (       1 calls)

     Called by init_run:
     wfcinit      :      0.04s CPU      0.04s WALL (       1 calls)
     potinit      :      0.11s CPU      0.13s WALL (       1 calls)
     hinit0       :      0.11s CPU      0.11s WALL (       1 calls)

     Called by electrons:
     c_bands      :      1.19s CPU      1.28s WALL (      10 calls)
     sum_band     :      0.20s CPU      0.21s WALL (      10 calls)
     v_of_rho     :      0.02s CPU      0.02s WALL (      10 calls)
     newd         :      0.03s CPU      0.03s WALL (      10 calls)
     PAW_pot      :      1.01s CPU      1.13s WALL (      10 calls)
     mix_rho      :      0.00s CPU      0.00s WALL (      10 calls)

     Called by c_bands:
     init_us_2    :      0.03s CPU      0.03s WALL (     667 calls)
     cegterg      :      1.14s CPU      1.22s WALL (     290 calls)

     Called by sum_band:
     sum_band:bec :      0.00s CPU      0.00s WALL (     290 calls)
     addusdens    :      0.03s CPU      0.03s WALL (      10 calls)

     Called by *egterg:
     h_psi        :      0.79s CPU      0.85s WALL (    1071 calls)
     s_psi        :      0.02s CPU      0.03s WALL (    1071 calls)
     g_psi        :      0.00s CPU      0.00s WALL (     752 calls)
     cdiaghg      :      0.21s CPU      0.22s WALL (    1013 calls)

     Called by h_psi:
     h_psi:pot    :      0.78s CPU      0.85s WALL (    1071 calls)
     h_psi:calbec :      0.05s CPU      0.05s WALL (    1071 calls)
     vloc_psi     :      0.71s CPU      0.76s WALL (    1071 calls)
     add_vuspsi   :      0.02s CPU      0.03s WALL (    1071 calls)

     General routines
     calbec       :      0.06s CPU      0.07s WALL (    1506 calls)
     fft          :      0.01s CPU      0.01s WALL (     137 calls)
     ffts         :      0.00s CPU      0.00s WALL (      10 calls)
     fftw         :      0.77s CPU      0.84s WALL (   18372 calls)

     Parallel routines
     fft_scatt_xy :      0.07s CPU      0.08s WALL (   18519 calls)
     fft_scatt_yz :      0.25s CPU      0.27s WALL (   18519 calls)

     PWSCF        :     3.60s CPU         3.92s WALL


   This run was terminated on:  11:26:26  26Mar2024            

=------------------------------------------------------------------------------=
   JOB DONE.
=------------------------------------------------------------------------------=
