
     Program PWSCF v.6.3MaX starts on 26Mar2024 at 11:20:37 

     This program is part of the open-source Quantum ESPRESSO suite
     for quantum simulation of materials; please cite
         "P. Giannozzi et al., J. Phys.:Condens. Matter 21 395502 (2009);
         "P. Giannozzi et al., J. Phys.:Condens. Matter 29 465901 (2017);
          URL http://www.quantum-espresso.org", 
     in publications or presentations arising from this work. More details at
     http://www.quantum-espresso.org/quote

     Parallel version (MPI), running on     5 processors

     MPI processes distributed on     1 nodes
     R & G space division:  proc/nbgrp/npool/nimage =       5
     Waiting for input...
     Reading input from standard input

     Current dimensions of program PWSCF are:
     Max number of different atomic species (ntypx) = 10
     Max number of k-points (npk) =  40000
     Max angular momentum in pseudopotentials (lmaxx) =  3

     Subspace diagonalization in iterative solution of the eigenvalue problem:
     a serial algorithm will be used


     Parallelization info
     --------------------
     sticks:   dense  smooth     PW     G-vecs:    dense   smooth      PW
     Min          39      39     14                  381      381      82
     Max          40      40     15                  384      384      83
     Sum         199     199     73                 1917     1917     411



     bravais-lattice index     =            2
     lattice parameter (alat)  =       7.7100  a.u.
     unit-cell volume          =     114.5785 (a.u.)^3
     number of atoms/cell      =            1
     number of atomic types    =            1
     number of electrons       =        11.00
     number of Kohn-Sham states=           10
     kinetic-energy cutoff     =      25.0000  Ry
     charge density cutoff     =     100.0000  Ry
     convergence threshold     =      1.0E-08
     mixing beta               =       0.7000
     number of iterations used =            8  plain     mixing
     Exchange-correlation      = PBESOL ( 1  4 10  8 0 0)

     celldm(1)=   7.710000  celldm(2)=   0.000000  celldm(3)=   0.000000
     celldm(4)=   0.000000  celldm(5)=   0.000000  celldm(6)=   0.000000

     crystal axes: (cart. coord. in units of alat)
               a(1) = (  -0.500000   0.000000   0.500000 )  
               a(2) = (   0.000000   0.500000   0.500000 )  
               a(3) = (  -0.500000   0.500000   0.000000 )  

     reciprocal axes: (cart. coord. in units 2 pi/alat)
               b(1) = ( -1.000000 -1.000000  1.000000 )  
               b(2) = (  1.000000  1.000000  1.000000 )  
               b(3) = ( -1.000000  1.000000 -1.000000 )  


     PseudoPot. # 1 for Au read from file:
     /home/lorenzo/pseudos/Au/Au.pbesol-n-rrkjus_psl.1.0.0.UPF
     MD5 check sum: 09626e9411213730b9a56fcc59c03ca8
     Pseudo is Ultrasoft + core correction, Zval = 11.0
     Generated using "atomic" code by A. Dal Corso v.6.3
     Using radial grid of 1279 points,  6 beta functions with: 
                l(1) =   0
                l(2) =   0
                l(3) =   1
                l(4) =   1
                l(5) =   2
                l(6) =   2
     Q(r) pseudized with 0 coefficients 


     atomic species   valence    mass     pseudopotential
        Au            11.00   196.96600     Au( 1.00)

     48 Sym. Ops., with inversion, found



   Cartesian axes

     site n.     atom                  positions (alat units)
         1           Au  tau(   1) = (   0.0000000   0.0000000   0.0000000  )

     number of k points=    47  gaussian smearing, width (Ry)=  0.0100
                       cart. coord. in units 2pi/alat
        k(    1) = (   0.0000000   0.0000000   0.0000000), wk =   0.0020000
        k(    2) = (  -0.1000000   0.1000000  -0.1000000), wk =   0.0160000
        k(    3) = (  -0.2000000   0.2000000  -0.2000000), wk =   0.0160000
        k(    4) = (  -0.3000000   0.3000000  -0.3000000), wk =   0.0160000
        k(    5) = (  -0.4000000   0.4000000  -0.4000000), wk =   0.0160000
        k(    6) = (   0.5000000  -0.5000000   0.5000000), wk =   0.0080000
        k(    7) = (   0.0000000   0.2000000   0.0000000), wk =   0.0120000
        k(    8) = (  -0.1000000   0.3000000  -0.1000000), wk =   0.0480000
        k(    9) = (  -0.2000000   0.4000000  -0.2000000), wk =   0.0480000
        k(   10) = (  -0.3000000   0.5000000  -0.3000000), wk =   0.0480000
        k(   11) = (   0.6000000  -0.4000000   0.6000000), wk =   0.0480000
        k(   12) = (   0.5000000  -0.3000000   0.5000000), wk =   0.0480000
        k(   13) = (   0.4000000  -0.2000000   0.4000000), wk =   0.0480000
        k(   14) = (   0.3000000  -0.1000000   0.3000000), wk =   0.0480000
        k(   15) = (   0.2000000   0.0000000   0.2000000), wk =   0.0240000
        k(   16) = (   0.0000000   0.4000000   0.0000000), wk =   0.0120000
        k(   17) = (  -0.1000000   0.5000000  -0.1000000), wk =   0.0480000
        k(   18) = (  -0.2000000   0.6000000  -0.2000000), wk =   0.0480000
        k(   19) = (   0.7000000  -0.3000000   0.7000000), wk =   0.0480000
        k(   20) = (   0.6000000  -0.2000000   0.6000000), wk =   0.0480000
        k(   21) = (   0.5000000  -0.1000000   0.5000000), wk =   0.0480000
        k(   22) = (   0.4000000   0.0000000   0.4000000), wk =   0.0240000
        k(   23) = (   0.0000000   0.6000000   0.0000000), wk =   0.0120000
        k(   24) = (  -0.1000000   0.7000000  -0.1000000), wk =   0.0480000
        k(   25) = (   0.8000000  -0.2000000   0.8000000), wk =   0.0480000
        k(   26) = (   0.7000000  -0.1000000   0.7000000), wk =   0.0480000
        k(   27) = (   0.6000000  -0.0000000   0.6000000), wk =   0.0240000
        k(   28) = (   0.0000000   0.8000000   0.0000000), wk =   0.0120000
        k(   29) = (   0.9000000  -0.1000000   0.9000000), wk =   0.0480000
        k(   30) = (   0.8000000   0.0000000   0.8000000), wk =   0.0240000
        k(   31) = (   0.0000000  -1.0000000   0.0000000), wk =   0.0060000
        k(   32) = (  -0.2000000   0.4000000   0.0000000), wk =   0.0480000
        k(   33) = (  -0.3000000   0.5000000  -0.1000000), wk =   0.0960000
        k(   34) = (   0.6000000  -0.4000000   0.8000000), wk =   0.0960000
        k(   35) = (   0.5000000  -0.3000000   0.7000000), wk =   0.0480000
        k(   36) = (  -0.2000000   0.6000000   0.0000000), wk =   0.0480000
        k(   37) = (   0.7000000  -0.3000000   0.9000000), wk =   0.0960000
        k(   38) = (   0.6000000  -0.2000000   0.8000000), wk =   0.0960000
        k(   39) = (   0.5000000  -0.1000000   0.7000000), wk =   0.0960000
        k(   40) = (   0.4000000   0.0000000   0.6000000), wk =   0.0480000
        k(   41) = (   0.8000000  -0.2000000   1.0000000), wk =   0.0480000
        k(   42) = (   0.7000000  -0.1000000   0.9000000), wk =   0.0960000
        k(   43) = (   0.6000000   0.0000000   0.8000000), wk =   0.0480000
        k(   44) = (  -0.2000000  -1.0000000   0.0000000), wk =   0.0240000
        k(   45) = (   0.6000000  -0.2000000   1.0000000), wk =   0.0480000
        k(   46) = (   0.5000000  -0.1000000   0.9000000), wk =   0.0480000
        k(   47) = (  -0.4000000  -1.0000000   0.0000000), wk =   0.0240000

     Dense  grid:     1917 G-vectors     FFT dimensions: (  18,  18,  18)

     Estimated max dynamical RAM per process >       2.77 MB

     Estimated total dynamical RAM >      13.83 MB

     Initial potential from superposition of free atoms

     starting charge   10.99990, renormalised to   11.00000
     Starting wfcs are    9 randomized atomic wfcs +    1 random wfcs

     total cpu time spent up to now is        1.1 secs

     Self-consistent Calculation

     iteration #  1     ecut=    25.00 Ry     beta= 0.70
     Davidson diagonalization with overlap
     ethr =  1.00E-02,  avg # of iterations =  4.9

     Threshold (ethr) on eigenvalues was too large:
     Diagonalizing with lowered threshold

     Davidson diagonalization with overlap
     ethr =  5.32E-04,  avg # of iterations =  1.3

     total cpu time spent up to now is        1.6 secs

     total energy              =     -85.18194723 Ry
     Harris-Foulkes estimate   =     -85.21976284 Ry
     estimated scf accuracy    <       0.05842227 Ry

     iteration #  2     ecut=    25.00 Ry     beta= 0.70
     Davidson diagonalization with overlap
     ethr =  5.31E-04,  avg # of iterations =  2.1

     total cpu time spent up to now is        1.8 secs

     total energy              =     -85.19801210 Ry
     Harris-Foulkes estimate   =     -85.20538936 Ry
     estimated scf accuracy    <       0.01302395 Ry

     iteration #  3     ecut=    25.00 Ry     beta= 0.70
     Davidson diagonalization with overlap
     ethr =  1.18E-04,  avg # of iterations =  3.8

     total cpu time spent up to now is        2.2 secs

     total energy              =     -85.19730757 Ry
     Harris-Foulkes estimate   =     -85.20707161 Ry
     estimated scf accuracy    <       0.03840337 Ry

     iteration #  4     ecut=    25.00 Ry     beta= 0.70
     Davidson diagonalization with overlap
     ethr =  1.18E-04,  avg # of iterations =  4.0

     total cpu time spent up to now is        2.4 secs

     total energy              =     -85.20102738 Ry
     Harris-Foulkes estimate   =     -85.20154823 Ry
     estimated scf accuracy    <       0.00310652 Ry

     iteration #  5     ecut=    25.00 Ry     beta= 0.70
     Davidson diagonalization with overlap
     ethr =  2.82E-05,  avg # of iterations =  2.2

     total cpu time spent up to now is        2.6 secs

     total energy              =     -85.20041554 Ry
     Harris-Foulkes estimate   =     -85.20108854 Ry
     estimated scf accuracy    <       0.00190780 Ry

     iteration #  6     ecut=    25.00 Ry     beta= 0.70
     Davidson diagonalization with overlap
     ethr =  1.73E-05,  avg # of iterations =  3.1

     total cpu time spent up to now is        2.9 secs

     total energy              =     -85.20056409 Ry
     Harris-Foulkes estimate   =     -85.20062321 Ry
     estimated scf accuracy    <       0.00048831 Ry

     iteration #  7     ecut=    25.00 Ry     beta= 0.70
     Davidson diagonalization with overlap
     ethr =  4.44E-06,  avg # of iterations =  1.8

     total cpu time spent up to now is        3.1 secs

     total energy              =     -85.20032350 Ry
     Harris-Foulkes estimate   =     -85.20056987 Ry
     estimated scf accuracy    <       0.00038896 Ry

     iteration #  8     ecut=    25.00 Ry     beta= 0.70
     Davidson diagonalization with overlap
     ethr =  3.54E-06,  avg # of iterations =  3.3

     total cpu time spent up to now is        3.4 secs

     total energy              =     -85.20039999 Ry
     Harris-Foulkes estimate   =     -85.20042271 Ry
     estimated scf accuracy    <       0.00003409 Ry

     iteration #  9     ecut=    25.00 Ry     beta= 0.70
     Davidson diagonalization with overlap
     ethr =  3.10E-07,  avg # of iterations =  2.2

     total cpu time spent up to now is        3.6 secs

     total energy              =     -85.20040092 Ry
     Harris-Foulkes estimate   =     -85.20040794 Ry
     estimated scf accuracy    <       0.00000436 Ry

     iteration # 10     ecut=    25.00 Ry     beta= 0.70
     Davidson diagonalization with overlap
     ethr =  3.97E-08,  avg # of iterations =  3.5

     total cpu time spent up to now is        4.0 secs

     total energy              =     -85.20040521 Ry
     Harris-Foulkes estimate   =     -85.20040651 Ry
     estimated scf accuracy    <       0.00000114 Ry

     iteration # 11     ecut=    25.00 Ry     beta= 0.70
     Davidson diagonalization with overlap
     ethr =  1.04E-08,  avg # of iterations =  2.3

     total cpu time spent up to now is        4.2 secs

     End of self-consistent calculation

          k = 0.0000 0.0000 0.0000 (   259 PWs)   bands (ev):

     5.8379  11.1615  11.1615  11.1615  12.7057  12.7057  31.1343  35.0038
    35.0038  35.0038

          k =-0.1000 0.1000-0.1000 (   256 PWs)   bands (ev):

     6.1835  11.0538  11.2762  11.2762  12.6601  12.6601  31.4845  32.9356
    35.3572  35.3572

          k =-0.2000 0.2000-0.2000 (   244 PWs)   bands (ev):

     7.1128  10.9102  11.4512  11.4512  12.7046  12.7046  29.1641  32.2988
    36.0662  36.0662

          k =-0.3000 0.3000-0.3000 (   247 PWs)   bands (ev):

     8.1046  11.3752  11.3782  11.3782  13.1347  13.1347  25.1470  31.6821
    35.5294  35.5294

          k =-0.4000 0.4000-0.4000 (   241 PWs)   bands (ev):

     8.4532  11.2020  11.2020  13.1323  13.6844  13.6844  21.2565  30.7661
    34.0213  34.0213

          k = 0.5000-0.5000 0.5000 (   242 PWs)   bands (ev):

     8.4782  11.1249  11.1249  13.9274  13.9274  14.7635  18.9603  30.4172
    33.3664  33.3664

          k = 0.0000 0.2000 0.0000 (   262 PWs)   bands (ev):

     6.3000  10.9254  11.3730  11.3730  12.4550  12.8097  31.6836  33.6374
    34.4812  34.4812

          k =-0.1000 0.3000-0.1000 (   245 PWs)   bands (ev):

     7.0495  10.6963  11.5684  11.6029  12.3327  12.9368  30.6257  32.4378
    33.9918  35.4662

          k =-0.2000 0.4000-0.2000 (   245 PWs)   bands (ev):

     8.1073  10.7312  11.3904  11.6404  12.8998  13.2982  26.6721  32.1842
    33.3353  35.4401

          k =-0.3000 0.5000-0.3000 (   242 PWs)   bands (ev):

     8.6654  11.1053  11.4802  11.6529  13.7721  14.0929  22.6156  31.2048
    32.6020  33.7757

          k = 0.6000-0.4000 0.6000 (   244 PWs)   bands (ev):

     8.7299  10.9653  11.3411  12.6846  13.9437  15.8657  19.3123  30.5719
    32.3317  32.5387

          k = 0.5000-0.3000 0.5000 (   243 PWs)   bands (ev):

     8.7375  11.0183  11.3388  12.5932  13.6213  15.3726  20.2772  30.4881
    31.9425  33.6781

          k = 0.4000-0.2000 0.4000 (   248 PWs)   bands (ev):

     8.5860  11.1572  11.4558  11.4870  12.9711  14.1204  23.9635  30.9053
    32.7329  35.9582

          k = 0.3000-0.1000 0.3000 (   243 PWs)   bands (ev):

     7.7693  10.7269  11.4743  11.6472  12.3973  13.3141  27.9936  31.5378
    34.2738  36.2783

          k = 0.2000 0.0000 0.2000 (   249 PWs)   bands (ev):

     6.7345  10.8600  11.4495  11.4601  12.4185  12.8497  31.3448  31.7893
    34.3105  36.8376

          k = 0.0000 0.4000 0.0000 (   242 PWs)   bands (ev):

     7.5572  10.3523  11.9349  11.9830  11.9830  13.0894  32.3638  32.3638
    32.4689  33.1081

          k =-0.1000 0.5000-0.1000 (   241 PWs)   bands (ev):

     8.4415  10.1126  11.5169  12.2238  12.8531  13.3888  28.4788  31.1324
    32.2197  33.6362

          k =-0.2000 0.6000-0.2000 (   245 PWs)   bands (ev):

     9.1086  10.3438  11.1945  12.1297  13.8413  14.4050  24.2486  30.4003
    30.4132  33.1564

          k = 0.7000-0.3000 0.7000 (   242 PWs)   bands (ev):

     9.2557  10.6144  11.4916  11.9496  13.9882  16.6922  20.4828  28.8054
    30.5953  32.5724

          k = 0.6000-0.2000 0.6000 (   244 PWs)   bands (ev):

     9.3640  10.6459  11.7401  11.8491  13.6236  17.4103  19.8191  27.7008
    31.9044  32.2866

          k = 0.5000-0.1000 0.5000 (   244 PWs)   bands (ev):

     9.4305  10.7911  11.1433  11.8943  12.9214  15.5711  23.2637  27.4763
    32.6073  34.1687

          k = 0.4000 0.0000 0.4000 (   242 PWs)   bands (ev):

     8.8291  10.5188  11.2560  12.0614  12.2155  14.3058  26.4689  28.6416
    33.5576  36.9065

          k = 0.0000 0.6000 0.0000 (   242 PWs)   bands (ev):

     8.7964   9.7158  12.1999  12.8909  12.8909  13.4524  29.3682  29.3682
    29.8179  32.3814

          k =-0.1000 0.7000-0.1000 (   237 PWs)   bands (ev):

     9.0875   9.5756  12.2420  13.0030  13.8537  14.4181  25.7071  28.0605
    28.3531  33.3986

          k = 0.8000-0.2000 0.8000 (   240 PWs)   bands (ev):

     9.2744   9.8571  11.9519  12.8097  14.0530  16.9617  22.0556  26.2186
    28.4148  33.6699

          k = 0.7000-0.1000 0.7000 (   238 PWs)   bands (ev):

     9.5303  10.3138  11.5541  12.5876  13.7261  19.0470  20.2219  24.5752
    29.6661  33.3517

          k = 0.6000-0.0000 0.6000 (   240 PWs)   bands (ev):

     9.8463  10.7056  10.9531  12.3304  13.1794  17.1407  23.2446  23.8722
    31.7819  32.9752

          k = 0.0000 0.8000 0.0000 (   242 PWs)   bands (ev):

     8.8687   9.2469  13.7572  13.8252  13.8252  14.5387  24.6567  26.9361
    26.9361  32.7570

          k = 0.9000-0.1000 0.9000 (   236 PWs)   bands (ev):

     8.9219   9.2568  13.3847  13.6071  14.1450  16.9264  22.2966  25.4189
    26.6654  33.7441

          k = 0.8000 0.0000 0.8000 (   236 PWs)   bands (ev):

     9.1904   9.6718  12.4815  13.2538  13.9625  19.5197  20.4438  23.7521
    27.7071  34.0709

          k = 0.0000-1.0000 0.0000 (   230 PWs)   bands (ev):

     8.7399   9.0787  13.8794  14.2606  14.2606  16.7734  21.6330  25.9746
    25.9746  33.1564

          k =-0.2000 0.4000 0.0000 (   238 PWs)   bands (ev):

     7.9142  10.4372  11.4764  11.9894  12.3051  13.3543  29.1508  30.8201
    34.1511  34.5773

          k =-0.3000 0.5000-0.1000 (   244 PWs)   bands (ev):

     8.8953  10.5093  11.1131  12.0097  12.8821  14.2480  25.5631  29.6461
    32.2741  35.3029

          k = 0.6000-0.4000 0.8000 (   243 PWs)   bands (ev):

     9.1848  10.7955  11.3659  11.8516  13.5926  15.6941  21.6998  29.3103
    30.8544  33.9768

          k = 0.5000-0.3000 0.7000 (   246 PWs)   bands (ev):

     9.1848  10.6737  11.7137  11.9724  13.8210  17.5825  18.9079  29.5943
    29.9478  33.3183

          k =-0.2000 0.6000 0.0000 (   237 PWs)   bands (ev):

     9.1362   9.8966  11.3554  12.8836  12.9663  14.2426  26.7794  28.3914
    30.3890  35.1539

          k = 0.7000-0.3000 0.9000 (   240 PWs)   bands (ev):

     9.5222  10.1242  11.1393  12.6880  13.6755  15.9354  23.3346  27.3395
    28.7800  34.9294

          k = 0.6000-0.2000 0.8000 (   245 PWs)   bands (ev):

     9.6720  10.3470  11.2529  12.3999  13.8419  18.4423  20.0304  26.5483
    28.4623  34.5621

          k = 0.5000-0.1000 0.7000 (   242 PWs)   bands (ev):

     9.9069  10.3951  11.0383  12.3385  13.5171  17.4452  21.5878  25.6616
    29.6130  34.8067

          k = 0.4000 0.0000 0.6000 (   243 PWs)   bands (ev):

     9.8450  10.3828  10.6961  12.4622  12.9155  15.6507  24.4480  26.2489
    31.0302  35.8072

          k = 0.8000-0.2000 1.0000 (   239 PWs)   bands (ev):

     9.1928   9.4859  12.3046  13.5203  13.8209  16.1468  23.8414  26.1751
    26.8698  34.7867

          k = 0.7000-0.1000 0.9000 (   238 PWs)   bands (ev):

     9.4054   9.7962  11.9170  13.0811  14.0660  18.7032  21.4418  24.4485
    26.7575  35.4964

          k = 0.6000 0.0000 0.8000 (   236 PWs)   bands (ev):

     9.7380  10.2895  11.2791  12.6640  13.8240  19.1405  21.8210  22.9838
    28.0169  35.2718

          k =-0.2000-1.0000 0.0000 (   240 PWs)   bands (ev):

     9.0415   9.3351  12.9942  13.5127  14.2593  18.3653  21.2072  25.2663
    25.6441  34.9445

          k = 0.6000-0.2000 1.0000 (   245 PWs)   bands (ev):

     9.9317  10.1864  10.8796  12.8252  13.8115  17.8483  22.9017  24.2347
    27.2077  37.2483

          k = 0.5000-0.1000 0.9000 (   240 PWs)   bands (ev):

     9.9715  10.4204  10.8140  12.5691  14.0410  19.6774  21.1508  23.9097
    26.4031  37.2906

          k =-0.4000-1.0000 0.0000 (   242 PWs)   bands (ev):

     9.7014  10.1033  11.3554  12.7260  14.2610  20.6593  20.9126  23.3903
    25.3205  38.3480

     the Fermi energy is    15.8183 ev

!    total energy              =     -85.20040592 Ry
     Harris-Foulkes estimate   =     -85.20040591 Ry
     estimated scf accuracy    <          7.8E-09 Ry

     The total energy is the sum of the following terms:

     one-electron contribution =      11.01639525 Ry
     hartree contribution      =       7.55347564 Ry
     xc contribution           =     -31.81548963 Ry
     ewald contribution        =     -71.95438543 Ry
     smearing contrib. (-TS)   =      -0.00040174 Ry

     convergence has been achieved in  11 iterations

     Forces acting on atoms (cartesian axes, Ry/au):

     atom    1 type  1   force =     0.00000000    0.00000000    0.00000000

     Total force =     0.000000     Total SCF correction =     0.000000


     Computing stress (Cartesian axis) and pressure

          total   stress  (Ry/bohr**3)                   (kbar)     P=   13.97
   0.00009496  -0.00000000   0.00000000         13.97     -0.00      0.00
  -0.00000000   0.00009496   0.00000000         -0.00     13.97      0.00
   0.00000000   0.00000000   0.00009496          0.00      0.00     13.97


     Writing output data file Au.save/

     init_run     :      0.19s CPU      0.20s WALL (       1 calls)
     electrons    :      2.81s CPU      3.12s WALL (       1 calls)
     forces       :      0.02s CPU      0.02s WALL (       1 calls)
     stress       :      0.06s CPU      0.06s WALL (       1 calls)

     Called by init_run:
     wfcinit      :      0.07s CPU      0.08s WALL (       1 calls)
     potinit      :      0.00s CPU      0.00s WALL (       1 calls)
     hinit0       :      0.11s CPU      0.12s WALL (       1 calls)

     Called by electrons:
     c_bands      :      2.42s CPU      2.67s WALL (      12 calls)
     sum_band     :      0.35s CPU      0.39s WALL (      12 calls)
     v_of_rho     :      0.02s CPU      0.02s WALL (      12 calls)
     newd         :      0.02s CPU      0.03s WALL (      12 calls)
     mix_rho      :      0.00s CPU      0.00s WALL (      12 calls)

     Called by c_bands:
     init_us_2    :      0.05s CPU      0.05s WALL (    1269 calls)
     cegterg      :      2.33s CPU      2.57s WALL (     564 calls)

     Called by sum_band:
     sum_band:bec :      0.01s CPU      0.01s WALL (     564 calls)
     addusdens    :      0.02s CPU      0.02s WALL (      12 calls)

     Called by *egterg:
     h_psi        :      1.55s CPU      1.72s WALL (    2233 calls)
     s_psi        :      0.04s CPU      0.05s WALL (    2233 calls)
     g_psi        :      0.01s CPU      0.01s WALL (    1622 calls)
     cdiaghg      :      0.50s CPU      0.54s WALL (    2139 calls)

     Called by h_psi:
     h_psi:pot    :      1.54s CPU      1.71s WALL (    2233 calls)
     h_psi:calbec :      0.09s CPU      0.10s WALL (    2233 calls)
     vloc_psi     :      1.39s CPU      1.54s WALL (    2233 calls)
     add_vuspsi   :      0.05s CPU      0.05s WALL (    2233 calls)

     General routines
     calbec       :      0.12s CPU      0.13s WALL (    3032 calls)
     fft          :      0.02s CPU      0.02s WALL (     159 calls)
     ffts         :      0.00s CPU      0.00s WALL (      12 calls)
     fftw         :      1.53s CPU      1.70s WALL (   36674 calls)

     Parallel routines
     fft_scatt_xy :      0.13s CPU      0.15s WALL (   36845 calls)
     fft_scatt_yz :      0.57s CPU      0.62s WALL (   36845 calls)

     PWSCF        :     4.04s CPU         4.43s WALL


   This run was terminated on:  11:20:42  26Mar2024            

=------------------------------------------------------------------------------=
   JOB DONE.
=------------------------------------------------------------------------------=
