
     Program PWSCF v.6.3MaX starts on 26Mar2024 at 12: 5:54 

     This program is part of the open-source Quantum ESPRESSO suite
     for quantum simulation of materials; please cite
         "P. Giannozzi et al., J. Phys.:Condens. Matter 21 395502 (2009);
         "P. Giannozzi et al., J. Phys.:Condens. Matter 29 465901 (2017);
          URL http://www.quantum-espresso.org", 
     in publications or presentations arising from this work. More details at
     http://www.quantum-espresso.org/quote

     Parallel version (MPI), running on     5 processors

     MPI processes distributed on     1 nodes
     R & G space division:  proc/nbgrp/npool/nimage =       5
     Waiting for input...
     Reading input from standard input

     Current dimensions of program PWSCF are:
     Max number of different atomic species (ntypx) = 10
     Max number of k-points (npk) =  40000
     Max angular momentum in pseudopotentials (lmaxx) =  3
               file Au.pbe-n-kjpaw_psl.1.0.0.UPF: wavefunction(s)  6S 5D renormalized

     Subspace diagonalization in iterative solution of the eigenvalue problem:
     a serial algorithm will be used


     Parallelization info
     --------------------
     sticks:   dense  smooth     PW     G-vecs:    dense   smooth      PW
     Min         116     116     30                 1836     1836     227
     Max         117     117     31                 1838     1838     228
     Sum         583     583    151                 9185     9185    1139



     bravais-lattice index     =            2
     lattice parameter (alat)  =       7.7100  a.u.
     unit-cell volume          =     114.5785 (a.u.)^3
     number of atoms/cell      =            1
     number of atomic types    =            1
     number of electrons       =        11.00
     number of Kohn-Sham states=           10
     kinetic-energy cutoff     =      70.0000  Ry
     charge density cutoff     =     280.0000  Ry
     convergence threshold     =      1.0E-08
     mixing beta               =       0.7000
     number of iterations used =            8  plain     mixing
     Exchange-correlation      = SLA PW PBX PBC ( 1  4  3  4 0 0)

     celldm(1)=   7.710000  celldm(2)=   0.000000  celldm(3)=   0.000000
     celldm(4)=   0.000000  celldm(5)=   0.000000  celldm(6)=   0.000000

     crystal axes: (cart. coord. in units of alat)
               a(1) = (  -0.500000   0.000000   0.500000 )  
               a(2) = (   0.000000   0.500000   0.500000 )  
               a(3) = (  -0.500000   0.500000   0.000000 )  

     reciprocal axes: (cart. coord. in units 2 pi/alat)
               b(1) = ( -1.000000 -1.000000  1.000000 )  
               b(2) = (  1.000000  1.000000  1.000000 )  
               b(3) = ( -1.000000  1.000000 -1.000000 )  


     PseudoPot. # 1 for Au read from file:
     /home/lorenzo/pseudos/Au/Au.pbe-n-kjpaw_psl.1.0.0.UPF
     MD5 check sum: 4db85c736373c707a97ce4c36c2a9d23
     Pseudo is Projector augmented-wave + core cor, Zval = 11.0
     Generated using "atomic" code by A. Dal Corso v.6.3
     Shape of augmentation charge: PSQ
     Using radial grid of 1279 points,  6 beta functions with: 
                l(1) =   0
                l(2) =   0
                l(3) =   1
                l(4) =   1
                l(5) =   2
                l(6) =   2
     Q(r) pseudized with 0 coefficients 


     atomic species   valence    mass     pseudopotential
        Au            11.00   196.96600     Au( 1.00)

     48 Sym. Ops., with inversion, found



   Cartesian axes

     site n.     atom                  positions (alat units)
         1           Au  tau(   1) = (   0.0000000   0.0000000   0.0000000  )

     number of k points=     1  gaussian smearing, width (Ry)=  0.0100
                       cart. coord. in units 2pi/alat
        k(    1) = (   0.0000000   0.0000000   0.0000000), wk =   2.0000000

     Dense  grid:     9185 G-vectors     FFT dimensions: (  30,  30,  30)

     Estimated max dynamical RAM per process >       8.52 MB

     Estimated total dynamical RAM >      42.58 MB

     Initial potential from superposition of free atoms

     starting charge   10.99989, renormalised to   11.00000
     Starting wfcs are    9 randomized atomic wfcs +    1 random wfcs
     Checking if some PAW data can be deallocated... 

     total cpu time spent up to now is        1.4 secs

     Self-consistent Calculation

     iteration #  1     ecut=    70.00 Ry     beta= 0.70
     Davidson diagonalization with overlap
     ethr =  1.00E-02,  avg # of iterations =  8.0

     Threshold (ethr) on eigenvalues was too large:
     Diagonalizing with lowered threshold

     Davidson diagonalization with overlap
     ethr =  8.40E-04,  avg # of iterations =  5.0

     total cpu time spent up to now is        1.6 secs

     total energy              =    -775.91138801 Ry
     Harris-Foulkes estimate   =    -775.96748949 Ry
     estimated scf accuracy    <       0.09276869 Ry

     iteration #  2     ecut=    70.00 Ry     beta= 0.70
     Davidson diagonalization with overlap
     ethr =  8.43E-04,  avg # of iterations =  3.0

     total cpu time spent up to now is        1.7 secs

     total energy              =    -775.93360901 Ry
     Harris-Foulkes estimate   =    -775.93772965 Ry
     estimated scf accuracy    <       0.00629221 Ry

     iteration #  3     ecut=    70.00 Ry     beta= 0.70
     Davidson diagonalization with overlap
     ethr =  5.72E-05,  avg # of iterations =  2.0

     total cpu time spent up to now is        1.9 secs

     total energy              =    -775.93532533 Ry
     Harris-Foulkes estimate   =    -775.93524448 Ry
     estimated scf accuracy    <       0.00028913 Ry

     iteration #  4     ecut=    70.00 Ry     beta= 0.70
     Davidson diagonalization with overlap
     ethr =  2.63E-06,  avg # of iterations =  4.0

     total cpu time spent up to now is        2.1 secs

     total energy              =    -775.93540596 Ry
     Harris-Foulkes estimate   =    -775.93541392 Ry
     estimated scf accuracy    <       0.00001060 Ry

     iteration #  5     ecut=    70.00 Ry     beta= 0.70
     Davidson diagonalization with overlap
     ethr =  9.64E-08,  avg # of iterations =  2.0

     total cpu time spent up to now is        2.3 secs

     total energy              =    -775.93540761 Ry
     Harris-Foulkes estimate   =    -775.93540783 Ry
     estimated scf accuracy    <       0.00000049 Ry

     iteration #  6     ecut=    70.00 Ry     beta= 0.70
     Davidson diagonalization with overlap
     ethr =  4.43E-09,  avg # of iterations =  4.0

     total cpu time spent up to now is        2.4 secs

     total energy              =    -775.93540798 Ry
     Harris-Foulkes estimate   =    -775.93540839 Ry
     estimated scf accuracy    <       0.00000070 Ry

     iteration #  7     ecut=    70.00 Ry     beta= 0.70
     Davidson diagonalization with overlap
     ethr =  4.43E-09,  avg # of iterations =  2.0

     total cpu time spent up to now is        2.6 secs

     total energy              =    -775.93540803 Ry
     Harris-Foulkes estimate   =    -775.93540806 Ry
     estimated scf accuracy    <       0.00000005 Ry

     iteration #  8     ecut=    70.00 Ry     beta= 0.70
     Davidson diagonalization with overlap
     ethr =  4.22E-10,  avg # of iterations =  3.0

     total cpu time spent up to now is        2.8 secs

     End of self-consistent calculation

          k = 0.0000 0.0000 0.0000 (  1139 PWs)   bands (ev):

     6.1357  10.9118  10.9118  10.9118  12.2716  12.2716  31.8853  35.3045
    35.3045  35.3045

     the Fermi energy is    12.3365 ev

!    total energy              =    -775.93540804 Ry
     Harris-Foulkes estimate   =    -775.93540805 Ry
     estimated scf accuracy    <          5.8E-10 Ry

     total all-electron energy =    -38024.781499 Ry

     The total energy is the sum of the following terms:

     one-electron contribution =      13.11669363 Ry
     hartree contribution      =       7.35649337 Ry
     xc contribution           =     -31.98914661 Ry
     ewald contribution        =     -71.95438534 Ry
     one-center paw contrib.   =    -692.45607501 Ry
     smearing contrib. (-TS)   =      -0.00898808 Ry

     convergence has been achieved in   8 iterations

     Forces acting on atoms (cartesian axes, Ry/au):

     atom    1 type  1   force =     0.00000000    0.00000000    0.00000000

     Total force =     0.000000     Total SCF correction =     0.000000


     Computing stress (Cartesian axis) and pressure

          total   stress  (Ry/bohr**3)                   (kbar)     P= -856.60
  -0.00582302   0.00000000  -0.00000000       -856.60      0.00     -0.00
   0.00000000  -0.00582302   0.00000000          0.00   -856.60      0.00
  -0.00000000   0.00000000  -0.00582302         -0.00      0.00   -856.60


     Writing output data file Au.save/

     init_run     :      0.37s CPU      0.39s WALL (       1 calls)
     electrons    :      1.31s CPU      1.43s WALL (       1 calls)
     forces       :      0.03s CPU      0.03s WALL (       1 calls)
     stress       :      0.10s CPU      0.10s WALL (       1 calls)

     Called by init_run:
     wfcinit      :      0.01s CPU      0.01s WALL (       1 calls)
     potinit      :      0.14s CPU      0.15s WALL (       1 calls)
     hinit0       :      0.18s CPU      0.19s WALL (       1 calls)

     Called by electrons:
     c_bands      :      0.13s CPU      0.13s WALL (       9 calls)
     sum_band     :      0.13s CPU      0.13s WALL (       9 calls)
     v_of_rho     :      0.05s CPU      0.06s WALL (       9 calls)
     newd         :      0.10s CPU      0.11s WALL (       9 calls)
     PAW_pot      :      1.04s CPU      1.14s WALL (       9 calls)
     mix_rho      :      0.01s CPU      0.01s WALL (       9 calls)

     Called by c_bands:
     init_us_2    :      0.00s CPU      0.00s WALL (      19 calls)
     cegterg      :      0.12s CPU      0.13s WALL (       9 calls)

     Called by sum_band:
     sum_band:bec :      0.00s CPU      0.00s WALL (       9 calls)
     addusdens    :      0.08s CPU      0.08s WALL (       9 calls)

     Called by *egterg:
     h_psi        :      0.09s CPU      0.10s WALL (      43 calls)
     s_psi        :      0.00s CPU      0.00s WALL (      43 calls)
     g_psi        :      0.00s CPU      0.00s WALL (      33 calls)
     cdiaghg      :      0.01s CPU      0.01s WALL (      41 calls)

     Called by h_psi:
     h_psi:pot    :      0.09s CPU      0.10s WALL (      43 calls)
     h_psi:calbec :      0.01s CPU      0.01s WALL (      43 calls)
     vloc_psi     :      0.08s CPU      0.09s WALL (      43 calls)
     add_vuspsi   :      0.00s CPU      0.00s WALL (      43 calls)

     General routines
     calbec       :      0.01s CPU      0.01s WALL (      57 calls)
     fft          :      0.05s CPU      0.05s WALL (     126 calls)
     ffts         :      0.00s CPU      0.00s WALL (       9 calls)
     fftw         :      0.09s CPU      0.09s WALL (     654 calls)

     Parallel routines
     fft_scatt_xy :      0.01s CPU      0.01s WALL (     789 calls)
     fft_scatt_yz :      0.06s CPU      0.07s WALL (     789 calls)

     PWSCF        :     2.78s CPU         2.95s WALL


   This run was terminated on:  12: 5:57  26Mar2024            

=------------------------------------------------------------------------------=
   JOB DONE.
=------------------------------------------------------------------------------=
