
     Program PWSCF v.6.3MaX starts on 26Mar2024 at 11:16:41 

     This program is part of the open-source Quantum ESPRESSO suite
     for quantum simulation of materials; please cite
         "P. Giannozzi et al., J. Phys.:Condens. Matter 21 395502 (2009);
         "P. Giannozzi et al., J. Phys.:Condens. Matter 29 465901 (2017);
          URL http://www.quantum-espresso.org", 
     in publications or presentations arising from this work. More details at
     http://www.quantum-espresso.org/quote

     Parallel version (MPI), running on     5 processors

     MPI processes distributed on     1 nodes
     R & G space division:  proc/nbgrp/npool/nimage =       5
     Waiting for input...
     Reading input from standard input

     Current dimensions of program PWSCF are:
     Max number of different atomic species (ntypx) = 10
     Max number of k-points (npk) =  40000
     Max angular momentum in pseudopotentials (lmaxx) =  3
               file Au.pbe-n-kjpaw_psl.1.0.0.UPF: wavefunction(s)  6S 5D renormalized

     Subspace diagonalization in iterative solution of the eigenvalue problem:
     a serial algorithm will be used


     Parallelization info
     --------------------
     sticks:   dense  smooth     PW     G-vecs:    dense   smooth      PW
     Min          24      24     11                  178      178      45
     Max          25      25     11                  181      181      46
     Sum         121     121     55                  893      893     229



     bravais-lattice index     =            2
     lattice parameter (alat)  =       7.7100  a.u.
     unit-cell volume          =     114.5785 (a.u.)^3
     number of atoms/cell      =            1
     number of atomic types    =            1
     number of electrons       =        11.00
     number of Kohn-Sham states=           10
     kinetic-energy cutoff     =      15.0000  Ry
     charge density cutoff     =      60.0000  Ry
     convergence threshold     =      1.0E-08
     mixing beta               =       0.7000
     number of iterations used =            8  plain     mixing
     Exchange-correlation      = SLA PW PBX PBC ( 1  4  3  4 0 0)

     celldm(1)=   7.710000  celldm(2)=   0.000000  celldm(3)=   0.000000
     celldm(4)=   0.000000  celldm(5)=   0.000000  celldm(6)=   0.000000

     crystal axes: (cart. coord. in units of alat)
               a(1) = (  -0.500000   0.000000   0.500000 )  
               a(2) = (   0.000000   0.500000   0.500000 )  
               a(3) = (  -0.500000   0.500000   0.000000 )  

     reciprocal axes: (cart. coord. in units 2 pi/alat)
               b(1) = ( -1.000000 -1.000000  1.000000 )  
               b(2) = (  1.000000  1.000000  1.000000 )  
               b(3) = ( -1.000000  1.000000 -1.000000 )  


     PseudoPot. # 1 for Au read from file:
     /home/lorenzo/pseudos/Au/Au.pbe-n-kjpaw_psl.1.0.0.UPF
     MD5 check sum: 4db85c736373c707a97ce4c36c2a9d23
     Pseudo is Projector augmented-wave + core cor, Zval = 11.0
     Generated using "atomic" code by A. Dal Corso v.6.3
     Shape of augmentation charge: PSQ
     Using radial grid of 1279 points,  6 beta functions with: 
                l(1) =   0
                l(2) =   0
                l(3) =   1
                l(4) =   1
                l(5) =   2
                l(6) =   2
     Q(r) pseudized with 0 coefficients 


     atomic species   valence    mass     pseudopotential
        Au            11.00   196.96600     Au( 1.00)

     48 Sym. Ops., with inversion, found



   Cartesian axes

     site n.     atom                  positions (alat units)
         1           Au  tau(   1) = (   0.0000000   0.0000000   0.0000000  )

     number of k points=    10  gaussian smearing, width (Ry)=  0.0100
                       cart. coord. in units 2pi/alat
        k(    1) = (   0.0000000   0.0000000   0.0000000), wk =   0.0160000
        k(    2) = (  -0.2000000   0.2000000  -0.2000000), wk =   0.1280000
        k(    3) = (  -0.4000000   0.4000000  -0.4000000), wk =   0.1280000
        k(    4) = (   0.0000000   0.4000000   0.0000000), wk =   0.0960000
        k(    5) = (  -0.2000000   0.6000000  -0.2000000), wk =   0.3840000
        k(    6) = (   0.6000000  -0.2000000   0.6000000), wk =   0.3840000
        k(    7) = (   0.4000000   0.0000000   0.4000000), wk =   0.1920000
        k(    8) = (   0.0000000   0.8000000   0.0000000), wk =   0.0960000
        k(    9) = (   0.8000000   0.0000000   0.8000000), wk =   0.1920000
        k(   10) = (   0.6000000  -0.2000000   1.0000000), wk =   0.3840000

     Dense  grid:      893 G-vectors     FFT dimensions: (  15,  15,  15)

     Estimated max dynamical RAM per process >       1.48 MB

     Estimated total dynamical RAM >       7.42 MB

     Check: negative/imaginary core charge=   -0.000006    0.000000

     Initial potential from superposition of free atoms

     starting charge   10.99989, renormalised to   11.00000
     Starting wfcs are    9 randomized atomic wfcs +    1 random wfcs
     Checking if some PAW data can be deallocated... 

     total cpu time spent up to now is        1.1 secs

     Self-consistent Calculation

     iteration #  1     ecut=    15.00 Ry     beta= 0.70
     Davidson diagonalization with overlap
     ethr =  1.00E-02,  avg # of iterations =  5.4

     total cpu time spent up to now is        1.3 secs

     total energy              =    -774.90439384 Ry
     Harris-Foulkes estimate   =    -775.00487674 Ry
     estimated scf accuracy    <       0.12848857 Ry

     iteration #  2     ecut=    15.00 Ry     beta= 0.70
     Davidson diagonalization with overlap
     ethr =  1.17E-03,  avg # of iterations =  2.0

     total cpu time spent up to now is        1.5 secs

     total energy              =    -774.94572142 Ry
     Harris-Foulkes estimate   =    -774.95465761 Ry
     estimated scf accuracy    <       0.01707449 Ry

     iteration #  3     ecut=    15.00 Ry     beta= 0.70
     Davidson diagonalization with overlap
     ethr =  1.55E-04,  avg # of iterations =  1.5

     total cpu time spent up to now is        1.7 secs

     total energy              =    -774.94840682 Ry
     Harris-Foulkes estimate   =    -774.94838431 Ry
     estimated scf accuracy    <       0.00019448 Ry

     iteration #  4     ecut=    15.00 Ry     beta= 0.70
     Davidson diagonalization with overlap
     ethr =  1.77E-06,  avg # of iterations =  2.9

     total cpu time spent up to now is        1.9 secs

     total energy              =    -774.94848442 Ry
     Harris-Foulkes estimate   =    -774.94848781 Ry
     estimated scf accuracy    <       0.00000825 Ry

     iteration #  5     ecut=    15.00 Ry     beta= 0.70
     Davidson diagonalization with overlap
     ethr =  7.50E-08,  avg # of iterations =  1.5

     total cpu time spent up to now is        2.0 secs

     total energy              =    -774.94848472 Ry
     Harris-Foulkes estimate   =    -774.94848526 Ry
     estimated scf accuracy    <       0.00000118 Ry

     iteration #  6     ecut=    15.00 Ry     beta= 0.70
     Davidson diagonalization with overlap
     ethr =  1.07E-08,  avg # of iterations =  2.0

     total cpu time spent up to now is        2.2 secs

     total energy              =    -774.94848501 Ry
     Harris-Foulkes estimate   =    -774.94848501 Ry
     estimated scf accuracy    <       0.00000002 Ry

     iteration #  7     ecut=    15.00 Ry     beta= 0.70
     Davidson diagonalization with overlap
     ethr =  1.56E-10,  avg # of iterations =  2.5

     total cpu time spent up to now is        2.4 secs

     End of self-consistent calculation

          k = 0.0000 0.0000 0.0000 (   113 PWs)   bands (ev):

     6.2389  10.9465  10.9465  10.9465  12.4149  12.4149  31.7230  35.4682
    35.4682  35.4682

          k =-0.2000 0.2000-0.2000 (   122 PWs)   bands (ev):

     7.4760  10.6765  11.1546  11.1546  12.3688  12.3688  29.7652  33.0277
    36.6919  36.6919

          k =-0.4000 0.4000-0.4000 (   114 PWs)   bands (ev):

     8.4597  10.9406  10.9406  13.4123  13.4801  13.4801  21.6468  31.4175
    34.3632  34.3632

          k = 0.0000 0.4000 0.0000 (   121 PWs)   bands (ev):

     7.9282  10.0420  11.6926  11.6926  11.7769  12.7131  32.9790  32.9790
    33.3297  34.0419

          k =-0.2000 0.6000-0.2000 (   113 PWs)   bands (ev):

     9.1422  10.2467  11.0049  11.8949  13.6726  14.4290  24.6942  30.9686
    31.3707  34.0944

          k = 0.6000-0.2000 0.6000 (   111 PWs)   bands (ev):

     9.2931  10.4290  11.6314  11.6802  13.4461  17.7186  20.1996  28.3917
    32.5278  33.1413

          k = 0.4000 0.0000 0.4000 (   117 PWs)   bands (ev):

     9.0909  10.2366  11.0515  11.8005  12.0346  14.2190  26.9502  29.3466
    34.2549  36.9925

          k = 0.0000 0.8000 0.0000 (   112 PWs)   bands (ev):

     8.7928   9.0197  13.4933  13.6896  13.6896  14.8167  25.0290  27.3601
    27.3601  34.2350

          k = 0.8000 0.0000 0.8000 (   110 PWs)   bands (ev):

     8.9985   9.5304  12.3838  13.0576  13.7595  19.9668  20.6128  24.5027
    28.1895  35.4742

          k = 0.6000-0.2000 1.0000 (   111 PWs)   bands (ev):

     9.7935  10.0061  10.7408  12.5985  13.6571  18.1301  23.2622  24.8085
    28.2156  37.8347

     the Fermi energy is    14.8370 ev

!    total energy              =    -774.94848501 Ry
     Harris-Foulkes estimate   =    -774.94848501 Ry
     estimated scf accuracy    <          7.5E-09 Ry

     total all-electron energy =    -38023.794576 Ry

     The total energy is the sum of the following terms:

     one-electron contribution =      14.02900296 Ry
     hartree contribution      =       7.25880807 Ry
     xc contribution           =     -31.93904441 Ry
     ewald contribution        =     -71.95438538 Ry
     one-center paw contrib.   =    -692.34260123 Ry
     smearing contrib. (-TS)   =      -0.00026501 Ry

     convergence has been achieved in   7 iterations

     Forces acting on atoms (cartesian axes, Ry/au):

     atom    1 type  1   force =     0.00000000    0.00000000    0.00000000

     Total force =     0.000000     Total SCF correction =     0.000000


     Computing stress (Cartesian axis) and pressure

          total   stress  (Ry/bohr**3)                   (kbar)     P= -921.66
  -0.00626532   0.00000000  -0.00000000       -921.66      0.00     -0.00
   0.00000000  -0.00626532   0.00000000          0.00   -921.66      0.00
   0.00000000  -0.00000000  -0.00626532          0.00     -0.00   -921.66


     Writing output data file Au.save/

     init_run     :      0.20s CPU      0.22s WALL (       1 calls)
     electrons    :      1.08s CPU      1.25s WALL (       1 calls)
     forces       :      0.01s CPU      0.02s WALL (       1 calls)
     stress       :      0.03s CPU      0.03s WALL (       1 calls)

     Called by init_run:
     wfcinit      :      0.01s CPU      0.01s WALL (       1 calls)
     potinit      :      0.11s CPU      0.12s WALL (       1 calls)
     hinit0       :      0.07s CPU      0.07s WALL (       1 calls)

     Called by electrons:
     c_bands      :      0.21s CPU      0.24s WALL (       7 calls)
     sum_band     :      0.04s CPU      0.04s WALL (       7 calls)
     v_of_rho     :      0.01s CPU      0.01s WALL (       8 calls)
     newd         :      0.02s CPU      0.02s WALL (       8 calls)
     PAW_pot      :      0.92s CPU      1.03s WALL (       8 calls)
     mix_rho      :      0.00s CPU      0.00s WALL (       7 calls)

     Called by c_bands:
     init_us_2    :      0.01s CPU      0.01s WALL (     170 calls)
     cegterg      :      0.20s CPU      0.23s WALL (      70 calls)

     Called by sum_band:
     sum_band:bec :      0.00s CPU      0.00s WALL (      70 calls)
     addusdens    :      0.01s CPU      0.01s WALL (       7 calls)

     Called by *egterg:
     h_psi        :      0.12s CPU      0.14s WALL (     258 calls)
     s_psi        :      0.00s CPU      0.00s WALL (     258 calls)
     g_psi        :      0.00s CPU      0.00s WALL (     178 calls)
     cdiaghg      :      0.06s CPU      0.06s WALL (     248 calls)

     Called by h_psi:
     h_psi:pot    :      0.12s CPU      0.14s WALL (     258 calls)
     h_psi:calbec :      0.01s CPU      0.01s WALL (     258 calls)
     vloc_psi     :      0.11s CPU      0.13s WALL (     258 calls)
     add_vuspsi   :      0.00s CPU      0.00s WALL (     258 calls)

     General routines
     calbec       :      0.01s CPU      0.02s WALL (     378 calls)
     fft          :      0.01s CPU      0.01s WALL (     114 calls)
     ffts         :      0.00s CPU      0.00s WALL (       7 calls)
     fftw         :      0.12s CPU      0.14s WALL (    4446 calls)

     Parallel routines
     fft_scatt_xy :      0.01s CPU      0.01s WALL (    4567 calls)
     fft_scatt_yz :      0.06s CPU      0.08s WALL (    4567 calls)

     PWSCF        :     2.26s CPU         2.50s WALL


   This run was terminated on:  11:16:43  26Mar2024            

=------------------------------------------------------------------------------=
   JOB DONE.
=------------------------------------------------------------------------------=
