
     Program PWSCF v.6.3MaX starts on 26Mar2024 at 12:17:22 

     This program is part of the open-source Quantum ESPRESSO suite
     for quantum simulation of materials; please cite
         "P. Giannozzi et al., J. Phys.:Condens. Matter 21 395502 (2009);
         "P. Giannozzi et al., J. Phys.:Condens. Matter 29 465901 (2017);
          URL http://www.quantum-espresso.org", 
     in publications or presentations arising from this work. More details at
     http://www.quantum-espresso.org/quote

     Parallel version (MPI), running on     5 processors

     MPI processes distributed on     1 nodes
     R & G space division:  proc/nbgrp/npool/nimage =       5
     Waiting for input...
     Reading input from standard input

     Current dimensions of program PWSCF are:
     Max number of different atomic species (ntypx) = 10
     Max number of k-points (npk) =  40000
     Max angular momentum in pseudopotentials (lmaxx) =  3

     Subspace diagonalization in iterative solution of the eigenvalue problem:
     a serial algorithm will be used


     Parallelization info
     --------------------
     sticks:   dense  smooth     PW     G-vecs:    dense   smooth      PW
     Min         129     129     39                 2201     2201     381
     Max         130     130     40                 2204     2204     384
     Sum         649     649    199                11017    11017    1917



     bravais-lattice index     =            2
     lattice parameter (alat)  =       7.7100  a.u.
     unit-cell volume          =     114.5785 (a.u.)^3
     number of atoms/cell      =            1
     number of atomic types    =            1
     number of electrons       =        11.00
     number of Kohn-Sham states=           10
     kinetic-energy cutoff     =      80.0000  Ry
     charge density cutoff     =     320.0000  Ry
     convergence threshold     =      1.0E-08
     mixing beta               =       0.7000
     number of iterations used =            8  plain     mixing
     Exchange-correlation      = PBE ( 1  4  3  4 0 0)

     celldm(1)=   7.710000  celldm(2)=   0.000000  celldm(3)=   0.000000
     celldm(4)=   0.000000  celldm(5)=   0.000000  celldm(6)=   0.000000

     crystal axes: (cart. coord. in units of alat)
               a(1) = (  -0.500000   0.000000   0.500000 )  
               a(2) = (   0.000000   0.500000   0.500000 )  
               a(3) = (  -0.500000   0.500000   0.000000 )  

     reciprocal axes: (cart. coord. in units 2 pi/alat)
               b(1) = ( -1.000000 -1.000000  1.000000 )  
               b(2) = (  1.000000  1.000000  1.000000 )  
               b(3) = ( -1.000000  1.000000 -1.000000 )  


     PseudoPot. # 1 for Au read from file:
     /home/lorenzo/pseudos/Au/Au.pbe-n-rrkjus_psl.1.0.0.UPF
     MD5 check sum: d7e77ba19504afed2c9b41c931dde4f0
     Pseudo is Ultrasoft + core correction, Zval = 11.0
     Generated using "atomic" code by A. Dal Corso v.6.3
     Using radial grid of 1279 points,  6 beta functions with: 
                l(1) =   0
                l(2) =   0
                l(3) =   1
                l(4) =   1
                l(5) =   2
                l(6) =   2
     Q(r) pseudized with 0 coefficients 


     atomic species   valence    mass     pseudopotential
        Au            11.00   196.96600     Au( 1.00)

     48 Sym. Ops., with inversion, found



   Cartesian axes

     site n.     atom                  positions (alat units)
         1           Au  tau(   1) = (   0.0000000   0.0000000   0.0000000  )

     number of k points=    47  gaussian smearing, width (Ry)=  0.0100
                       cart. coord. in units 2pi/alat
        k(    1) = (   0.0000000   0.0000000   0.0000000), wk =   0.0020000
        k(    2) = (  -0.1000000   0.1000000  -0.1000000), wk =   0.0160000
        k(    3) = (  -0.2000000   0.2000000  -0.2000000), wk =   0.0160000
        k(    4) = (  -0.3000000   0.3000000  -0.3000000), wk =   0.0160000
        k(    5) = (  -0.4000000   0.4000000  -0.4000000), wk =   0.0160000
        k(    6) = (   0.5000000  -0.5000000   0.5000000), wk =   0.0080000
        k(    7) = (   0.0000000   0.2000000   0.0000000), wk =   0.0120000
        k(    8) = (  -0.1000000   0.3000000  -0.1000000), wk =   0.0480000
        k(    9) = (  -0.2000000   0.4000000  -0.2000000), wk =   0.0480000
        k(   10) = (  -0.3000000   0.5000000  -0.3000000), wk =   0.0480000
        k(   11) = (   0.6000000  -0.4000000   0.6000000), wk =   0.0480000
        k(   12) = (   0.5000000  -0.3000000   0.5000000), wk =   0.0480000
        k(   13) = (   0.4000000  -0.2000000   0.4000000), wk =   0.0480000
        k(   14) = (   0.3000000  -0.1000000   0.3000000), wk =   0.0480000
        k(   15) = (   0.2000000   0.0000000   0.2000000), wk =   0.0240000
        k(   16) = (   0.0000000   0.4000000   0.0000000), wk =   0.0120000
        k(   17) = (  -0.1000000   0.5000000  -0.1000000), wk =   0.0480000
        k(   18) = (  -0.2000000   0.6000000  -0.2000000), wk =   0.0480000
        k(   19) = (   0.7000000  -0.3000000   0.7000000), wk =   0.0480000
        k(   20) = (   0.6000000  -0.2000000   0.6000000), wk =   0.0480000
        k(   21) = (   0.5000000  -0.1000000   0.5000000), wk =   0.0480000
        k(   22) = (   0.4000000   0.0000000   0.4000000), wk =   0.0240000
        k(   23) = (   0.0000000   0.6000000   0.0000000), wk =   0.0120000
        k(   24) = (  -0.1000000   0.7000000  -0.1000000), wk =   0.0480000
        k(   25) = (   0.8000000  -0.2000000   0.8000000), wk =   0.0480000
        k(   26) = (   0.7000000  -0.1000000   0.7000000), wk =   0.0480000
        k(   27) = (   0.6000000  -0.0000000   0.6000000), wk =   0.0240000
        k(   28) = (   0.0000000   0.8000000   0.0000000), wk =   0.0120000
        k(   29) = (   0.9000000  -0.1000000   0.9000000), wk =   0.0480000
        k(   30) = (   0.8000000   0.0000000   0.8000000), wk =   0.0240000
        k(   31) = (   0.0000000  -1.0000000   0.0000000), wk =   0.0060000
        k(   32) = (  -0.2000000   0.4000000   0.0000000), wk =   0.0480000
        k(   33) = (  -0.3000000   0.5000000  -0.1000000), wk =   0.0960000
        k(   34) = (   0.6000000  -0.4000000   0.8000000), wk =   0.0960000
        k(   35) = (   0.5000000  -0.3000000   0.7000000), wk =   0.0480000
        k(   36) = (  -0.2000000   0.6000000   0.0000000), wk =   0.0480000
        k(   37) = (   0.7000000  -0.3000000   0.9000000), wk =   0.0960000
        k(   38) = (   0.6000000  -0.2000000   0.8000000), wk =   0.0960000
        k(   39) = (   0.5000000  -0.1000000   0.7000000), wk =   0.0960000
        k(   40) = (   0.4000000   0.0000000   0.6000000), wk =   0.0480000
        k(   41) = (   0.8000000  -0.2000000   1.0000000), wk =   0.0480000
        k(   42) = (   0.7000000  -0.1000000   0.9000000), wk =   0.0960000
        k(   43) = (   0.6000000   0.0000000   0.8000000), wk =   0.0480000
        k(   44) = (  -0.2000000  -1.0000000   0.0000000), wk =   0.0240000
        k(   45) = (   0.6000000  -0.2000000   1.0000000), wk =   0.0480000
        k(   46) = (   0.5000000  -0.1000000   0.9000000), wk =   0.0480000
        k(   47) = (  -0.4000000  -1.0000000   0.0000000), wk =   0.0240000

     Dense  grid:    11017 G-vectors     FFT dimensions: (  32,  32,  32)

     Estimated max dynamical RAM per process >      12.02 MB

     Estimated total dynamical RAM >      60.08 MB

     Initial potential from superposition of free atoms

     starting charge   10.99989, renormalised to   11.00000
     Starting wfcs are    9 randomized atomic wfcs +    1 random wfcs

     total cpu time spent up to now is        1.2 secs

     Self-consistent Calculation

     iteration #  1     ecut=    80.00 Ry     beta= 0.70
     Davidson diagonalization with overlap
     ethr =  1.00E-02,  avg # of iterations =  5.4

     Threshold (ethr) on eigenvalues was too large:
     Diagonalizing with lowered threshold

     Davidson diagonalization with overlap
     ethr =  4.80E-04,  avg # of iterations =  1.8

     total cpu time spent up to now is        2.6 secs

     total energy              =     -85.36892055 Ry
     Harris-Foulkes estimate   =     -85.40226653 Ry
     estimated scf accuracy    <       0.05290825 Ry

     iteration #  2     ecut=    80.00 Ry     beta= 0.70
     Davidson diagonalization with overlap
     ethr =  4.81E-04,  avg # of iterations =  2.5

     total cpu time spent up to now is        3.2 secs

     total energy              =     -85.38299794 Ry
     Harris-Foulkes estimate   =     -85.39021533 Ry
     estimated scf accuracy    <       0.01159294 Ry

     iteration #  3     ecut=    80.00 Ry     beta= 0.70
     Davidson diagonalization with overlap
     ethr =  1.05E-04,  avg # of iterations =  2.2

     total cpu time spent up to now is        3.8 secs

     total energy              =     -85.38573619 Ry
     Harris-Foulkes estimate   =     -85.38578199 Ry
     estimated scf accuracy    <       0.00017363 Ry

     iteration #  4     ecut=    80.00 Ry     beta= 0.70
     Davidson diagonalization with overlap
     ethr =  1.58E-06,  avg # of iterations =  3.8

     total cpu time spent up to now is        4.7 secs

     total energy              =     -85.38587390 Ry
     Harris-Foulkes estimate   =     -85.38592700 Ry
     estimated scf accuracy    <       0.00010183 Ry

     iteration #  5     ecut=    80.00 Ry     beta= 0.70
     Davidson diagonalization with overlap
     ethr =  9.26E-07,  avg # of iterations =  1.0

     total cpu time spent up to now is        5.2 secs

     total energy              =     -85.38588136 Ry
     Harris-Foulkes estimate   =     -85.38588498 Ry
     estimated scf accuracy    <       0.00000599 Ry

     iteration #  6     ecut=    80.00 Ry     beta= 0.70
     Davidson diagonalization with overlap
     ethr =  5.44E-08,  avg # of iterations =  3.0

     total cpu time spent up to now is        5.8 secs

     total energy              =     -85.38588600 Ry
     Harris-Foulkes estimate   =     -85.38588634 Ry
     estimated scf accuracy    <       0.00000105 Ry

     iteration #  7     ecut=    80.00 Ry     beta= 0.70
     Davidson diagonalization with overlap
     ethr =  9.54E-09,  avg # of iterations =  1.0

     total cpu time spent up to now is        6.4 secs

     total energy              =     -85.38588586 Ry
     Harris-Foulkes estimate   =     -85.38588605 Ry
     estimated scf accuracy    <       0.00000030 Ry

     iteration #  8     ecut=    80.00 Ry     beta= 0.70
     Davidson diagonalization with overlap
     ethr =  2.74E-09,  avg # of iterations =  2.4

     total cpu time spent up to now is        7.0 secs

     total energy              =     -85.38588596 Ry
     Harris-Foulkes estimate   =     -85.38588597 Ry
     estimated scf accuracy    <       0.00000002 Ry

     iteration #  9     ecut=    80.00 Ry     beta= 0.70
     Davidson diagonalization with overlap
     ethr =  1.91E-10,  avg # of iterations =  2.2

     total cpu time spent up to now is        7.6 secs

     End of self-consistent calculation

          k = 0.0000 0.0000 0.0000 (  1411 PWs)   bands (ev):

     6.0951  11.3120  11.3120  11.3120  12.8432  12.8432  31.3948  35.2603
    35.2603  35.2603

          k =-0.1000 0.1000-0.1000 (  1393 PWs)   bands (ev):

     6.4404  11.2061  11.4265  11.4265  12.7977  12.7977  31.6924  33.1687
    35.5913  35.5913

          k =-0.2000 0.2000-0.2000 (  1387 PWs)   bands (ev):

     7.3641  11.0704  11.6005  11.6005  12.8428  12.8428  29.2793  32.4863
    36.2107  36.2107

          k =-0.3000 0.3000-0.3000 (  1387 PWs)   bands (ev):

     8.3275  11.5263  11.5263  11.5665  13.2719  13.2719  25.2836  31.8978
    35.6556  35.6556

          k =-0.4000 0.4000-0.4000 (  1389 PWs)   bands (ev):

     8.6421  11.3503  11.3503  13.3635  13.8160  13.8160  21.4100  31.0212
    34.2364  34.2364

          k = 0.5000-0.5000 0.5000 (  1380 PWs)   bands (ev):

     8.6588  11.2733  11.2733  14.0563  14.0563  15.0229  19.1095  30.6831
    33.6216  33.6216

          k = 0.0000 0.2000 0.0000 (  1399 PWs)   bands (ev):

     6.5571  11.0774  11.5235  11.5235  12.5945  12.9467  31.8991  33.8956
    34.6753  34.6753

          k =-0.1000 0.3000-0.1000 (  1382 PWs)   bands (ev):

     7.3038  10.8509  11.7183  11.7527  12.4755  13.0725  30.7557  32.6033
    34.0953  35.6677

          k =-0.2000 0.4000-0.2000 (  1381 PWs)   bands (ev):

     8.3436  10.8995  11.5395  11.7888  13.0485  13.4334  26.8074  32.3471
    33.4327  35.5808

          k =-0.3000 0.5000-0.3000 (  1390 PWs)   bands (ev):

     8.8617  11.2551  11.6281  11.8428  13.9031  14.2578  22.7723  31.4293
    32.7709  33.9136

          k = 0.6000-0.4000 0.6000 (  1391 PWs)   bands (ev):

     8.9107  11.1160  11.4890  12.8594  14.0725  16.0712  19.4723  30.8070
    32.5311  32.7745

          k = 0.5000-0.3000 0.5000 (  1385 PWs)   bands (ev):

     8.9209  11.1688  11.4864  12.7777  13.7543  15.5550  20.4378  30.6839
    32.1738  33.9169

          k = 0.4000-0.2000 0.4000 (  1382 PWs)   bands (ev):

     8.7954  11.3131  11.6341  11.6412  13.1107  14.2654  24.1190  31.0300
    32.9665  36.1687

          k = 0.3000-0.1000 0.3000 (  1373 PWs)   bands (ev):

     8.0152  10.8879  11.6259  11.7950  12.5385  13.4528  28.1226  31.5775
    34.4866  36.5167

          k = 0.2000 0.0000 0.2000 (  1387 PWs)   bands (ev):

     6.9900  11.0139  11.5992  11.6110  12.5575  12.9871  31.5454  31.8868
    34.5275  37.0669

          k = 0.0000 0.4000 0.0000 (  1375 PWs)   bands (ev):

     7.8092  10.5062  12.0838  12.1324  12.1324  13.2249  32.4569  32.4569
    32.6936  33.1387

          k =-0.1000 0.5000-0.1000 (  1375 PWs)   bands (ev):

     8.6798  10.2690  11.6725  12.3708  13.0075  13.5231  28.6119  31.2480
    32.4155  33.6535

          k =-0.2000 0.6000-0.2000 (  1395 PWs)   bands (ev):

     9.3066  10.5145  11.3590  12.2756  13.9716  14.5733  24.4236  30.5925
    30.6035  33.2022

          k = 0.7000-0.3000 0.7000 (  1391 PWs)   bands (ev):

     9.4324  10.7746  11.6672  12.0955  14.1168  16.8749  20.6709  28.9852
    30.8163  32.6704

          k = 0.6000-0.2000 0.6000 (  1382 PWs)   bands (ev):

     9.5412  10.8039  11.9150  11.9948  13.7570  17.6017  19.9955  27.8579
    32.1370  32.4559

          k = 0.5000-0.1000 0.5000 (  1381 PWs)   bands (ev):

     9.6257  10.9475  11.3239  12.0391  13.0615  15.7313  23.4426  27.5749
    32.8228  34.3939

          k = 0.4000 0.0000 0.4000 (  1384 PWs)   bands (ev):

     9.0638  10.6782  11.4120  12.2040  12.3614  14.4486  26.6736  28.6255
    33.8039  36.6275

          k = 0.0000 0.6000 0.0000 (  1371 PWs)   bands (ev):

     9.0124   9.8703  12.3914  13.0343  13.0343  13.5849  29.5252  29.5252
    30.0468  32.6224

          k =-0.1000 0.7000-0.1000 (  1384 PWs)   bands (ev):

     9.2763   9.7322  12.4226  13.1431  13.9831  14.5918  25.9211  28.2336
    28.5476  33.5324

          k = 0.8000-0.2000 0.8000 (  1378 PWs)   bands (ev):

     9.4430  10.0222  12.1261  12.9507  14.1798  17.1438  22.2774  26.4000
    28.6360  33.6608

          k = 0.7000-0.1000 0.7000 (  1381 PWs)   bands (ev):

     9.6943  10.4834  11.7229  12.7297  13.8574  19.2497  20.3953  24.7437
    29.8918  33.3774

          k = 0.6000-0.0000 0.6000 (  1380 PWs)   bands (ev):

    10.0162  10.8830  11.1189  12.4733  13.3168  17.3218  23.4569  23.9785
    32.0059  33.0798

          k = 0.0000 0.8000 0.0000 (  1383 PWs)   bands (ev):

     9.0481   9.4008  13.8905  13.9566  13.9566  14.7753  24.8839  27.1629
    27.1629  32.9835

          k = 0.9000-0.1000 0.9000 (  1382 PWs)   bands (ev):

     9.0938   9.4123  13.5408  13.7402  14.2696  17.1386  22.5188  25.6304
    26.9087  33.8628

          k = 0.8000 0.0000 0.8000 (  1374 PWs)   bands (ev):

     9.3548   9.8352  12.6467  13.3906  14.0898  19.7037  20.6684  23.9230
    27.9425  34.0191

          k = 0.0000-1.0000 0.0000 (  1362 PWs)   bands (ev):

     8.9098   9.2305  14.0109  14.3822  14.3822  17.0302  21.8159  26.2310
    26.2310  33.2364

          k =-0.2000 0.4000 0.0000 (  1379 PWs)   bands (ev):

     8.1629  10.5929  11.6258  12.1379  12.4518  13.4919  29.3181  30.7922
    34.3526  34.7496

          k =-0.3000 0.5000-0.1000 (  1383 PWs)   bands (ev):

     9.1182  10.6776  11.2647  12.1575  13.0276  14.3939  25.7262  29.7156
    32.5007  35.4266

          k = 0.6000-0.4000 0.8000 (  1391 PWs)   bands (ev):

     9.3708  10.9494  11.5428  12.0033  13.7283  15.8653  21.8732  29.4506
    31.0555  34.1869

          k = 0.5000-0.3000 0.7000 (  1396 PWs)   bands (ev):

     9.3632  10.8284  11.8606  12.1470  13.9526  17.7885  19.0738  29.7688
    30.1424  33.5648

          k =-0.2000 0.6000 0.0000 (  1387 PWs)   bands (ev):

     9.3511  10.0528  11.5208  13.0265  13.1160  14.3909  26.9871  28.4699
    30.5561  35.5451

          k = 0.7000-0.3000 0.9000 (  1381 PWs)   bands (ev):

     9.7011  10.2905  11.3106  12.8335  13.8097  16.1066  23.5394  27.4878
    28.9457  35.0244

          k = 0.6000-0.2000 0.8000 (  1393 PWs)   bands (ev):

     9.8420  10.5118  11.4231  12.5450  13.9735  18.6238  20.2340  26.7299
    28.6431  34.7088

          k = 0.5000-0.1000 0.7000 (  1385 PWs)   bands (ev):

    10.0817  10.5575  11.2100  12.4835  13.6519  17.6284  21.7715  25.8201
    29.7784  35.0060

          k = 0.4000 0.0000 0.6000 (  1378 PWs)   bands (ev):

    10.0532  10.5441  10.8524  12.6094  13.0569  15.8110  24.6687  26.3273
    31.2045  36.0506

          k = 0.8000-0.2000 1.0000 (  1378 PWs)   bands (ev):

     9.3698   9.6418  12.4741  13.6601  13.9519  16.3342  24.0808  26.3513
    27.0678  35.0104

          k = 0.7000-0.1000 0.9000 (  1385 PWs)   bands (ev):

     9.5718   9.9590  12.0847  13.2216  14.1928  18.8881  21.6672  24.6226
    26.9433  35.4883

          k = 0.6000 0.0000 0.8000 (  1390 PWs)   bands (ev):

     9.9002  10.4601  11.4457  12.8072  13.9534  19.3489  21.9652  23.1721
    28.1850  35.3268

          k =-0.2000-1.0000 0.0000 (  1380 PWs)   bands (ev):

     9.2130   9.4911  13.1530  13.6487  14.3828  18.5742  21.4260  25.4816
    25.8711  35.1435

          k = 0.6000-0.2000 1.0000 (  1382 PWs)   bands (ev):

    10.1018  10.3483  11.0520  12.9695  13.9426  18.0344  23.1384  24.3795
    27.3978  37.4763

          k = 0.5000-0.1000 0.9000 (  1396 PWs)   bands (ev):

    10.1360  10.5882  10.9801  12.7146  14.1687  19.8826  21.3210  24.0900
    26.5646  37.4094

          k =-0.4000-1.0000 0.0000 (  1392 PWs)   bands (ev):

     9.8691  10.2652  11.5216  12.8715  14.3839  20.8918  21.0839  23.5627
    25.5197  38.1642

     the Fermi energy is    15.9985 ev

!    total energy              =     -85.38588597 Ry
     Harris-Foulkes estimate   =     -85.38588597 Ry
     estimated scf accuracy    <          3.2E-09 Ry

     The total energy is the sum of the following terms:

     one-electron contribution =      11.08097262 Ry
     hartree contribution      =       7.59298667 Ry
     xc contribution           =     -32.10508696 Ry
     ewald contribution        =     -71.95438534 Ry
     smearing contrib. (-TS)   =      -0.00037295 Ry

     convergence has been achieved in   9 iterations

     Forces acting on atoms (cartesian axes, Ry/au):

     atom    1 type  1   force =     0.00000000    0.00000000    0.00000000

     Total force =     0.000000     Total SCF correction =     0.000000


     Computing stress (Cartesian axis) and pressure

          total   stress  (Ry/bohr**3)                   (kbar)     P=  108.66
   0.00073867   0.00000000   0.00000000        108.66      0.00      0.00
   0.00000000   0.00073867   0.00000000          0.00    108.66      0.00
   0.00000000  -0.00000000   0.00073867          0.00     -0.00    108.66


     Writing output data file Au.save/

     init_run     :      0.38s CPU      0.40s WALL (       1 calls)
     electrons    :      5.91s CPU      6.37s WALL (       1 calls)
     forces       :      0.11s CPU      0.11s WALL (       1 calls)
     stress       :      0.35s CPU      0.35s WALL (       1 calls)

     Called by init_run:
     wfcinit      :      0.16s CPU      0.17s WALL (       1 calls)
     potinit      :      0.01s CPU      0.01s WALL (       1 calls)
     hinit0       :      0.19s CPU      0.19s WALL (       1 calls)

     Called by electrons:
     c_bands      :      4.86s CPU      5.25s WALL (      10 calls)
     sum_band     :      0.89s CPU      0.96s WALL (      10 calls)
     v_of_rho     :      0.07s CPU      0.07s WALL (      10 calls)
     newd         :      0.10s CPU      0.10s WALL (      10 calls)
     mix_rho      :      0.01s CPU      0.01s WALL (      10 calls)

     Called by c_bands:
     init_us_2    :      0.16s CPU      0.17s WALL (    1081 calls)
     cegterg      :      4.62s CPU      4.99s WALL (     470 calls)

     Called by sum_band:
     sum_band:bec :      0.00s CPU      0.00s WALL (     470 calls)
     addusdens    :      0.10s CPU      0.11s WALL (      10 calls)

     Called by *egterg:
     h_psi        :      3.56s CPU      3.88s WALL (    1713 calls)
     s_psi        :      0.13s CPU      0.14s WALL (    1713 calls)
     g_psi        :      0.01s CPU      0.01s WALL (    1196 calls)
     cdiaghg      :      0.38s CPU      0.40s WALL (    1619 calls)

     Called by h_psi:
     h_psi:pot    :      3.54s CPU      3.86s WALL (    1713 calls)
     h_psi:calbec :      0.21s CPU      0.23s WALL (    1713 calls)
     vloc_psi     :      3.19s CPU      3.48s WALL (    1713 calls)
     add_vuspsi   :      0.13s CPU      0.14s WALL (    1713 calls)

     General routines
     calbec       :      0.32s CPU      0.35s WALL (    2418 calls)
     fft          :      0.04s CPU      0.04s WALL (     137 calls)
     ffts         :      0.00s CPU      0.00s WALL (      10 calls)
     fftw         :      3.53s CPU      3.85s WALL (   29976 calls)

     Parallel routines
     fft_scatt_xy :      0.35s CPU      0.38s WALL (   30123 calls)
     fft_scatt_yz :      1.11s CPU      1.22s WALL (   30123 calls)

     PWSCF        :     7.65s CPU         8.22s WALL


   This run was terminated on:  12:17:30  26Mar2024            

=------------------------------------------------------------------------------=
   JOB DONE.
=------------------------------------------------------------------------------=
