
     Program PWSCF v.6.3MaX starts on 26Mar2024 at 12:30:44 

     This program is part of the open-source Quantum ESPRESSO suite
     for quantum simulation of materials; please cite
         "P. Giannozzi et al., J. Phys.:Condens. Matter 21 395502 (2009);
         "P. Giannozzi et al., J. Phys.:Condens. Matter 29 465901 (2017);
          URL http://www.quantum-espresso.org", 
     in publications or presentations arising from this work. More details at
     http://www.quantum-espresso.org/quote

     Parallel version (MPI), running on     5 processors

     MPI processes distributed on     1 nodes
     R & G space division:  proc/nbgrp/npool/nimage =       5
     Waiting for input...
     Reading input from standard input

     Current dimensions of program PWSCF are:
     Max number of different atomic species (ntypx) = 10
     Max number of k-points (npk) =  40000
     Max angular momentum in pseudopotentials (lmaxx) =  3
               file Au.pbe-n-kjpaw_psl.1.0.0.UPF: wavefunction(s)  6S 5D renormalized

     Subspace diagonalization in iterative solution of the eigenvalue problem:
     a serial algorithm will be used


     Parallelization info
     --------------------
     sticks:   dense  smooth     PW     G-vecs:    dense   smooth      PW
     Min         137     137     42                 2407     2407     416
     Max         137     137     43                 2409     2409     418
     Sum         685     685    211                12039    12039    2085



     bravais-lattice index     =            2
     lattice parameter (alat)  =       7.7100  a.u.
     unit-cell volume          =     114.5785 (a.u.)^3
     number of atoms/cell      =            1
     number of atomic types    =            1
     number of electrons       =        11.00
     number of Kohn-Sham states=           10
     kinetic-energy cutoff     =      85.0000  Ry
     charge density cutoff     =     340.0000  Ry
     convergence threshold     =      1.0E-08
     mixing beta               =       0.7000
     number of iterations used =            8  plain     mixing
     Exchange-correlation      = SLA PW PBX PBC ( 1  4  3  4 0 0)

     celldm(1)=   7.710000  celldm(2)=   0.000000  celldm(3)=   0.000000
     celldm(4)=   0.000000  celldm(5)=   0.000000  celldm(6)=   0.000000

     crystal axes: (cart. coord. in units of alat)
               a(1) = (  -0.500000   0.000000   0.500000 )  
               a(2) = (   0.000000   0.500000   0.500000 )  
               a(3) = (  -0.500000   0.500000   0.000000 )  

     reciprocal axes: (cart. coord. in units 2 pi/alat)
               b(1) = ( -1.000000 -1.000000  1.000000 )  
               b(2) = (  1.000000  1.000000  1.000000 )  
               b(3) = ( -1.000000  1.000000 -1.000000 )  


     PseudoPot. # 1 for Au read from file:
     /home/lorenzo/pseudos/Au/Au.pbe-n-kjpaw_psl.1.0.0.UPF
     MD5 check sum: 4db85c736373c707a97ce4c36c2a9d23
     Pseudo is Projector augmented-wave + core cor, Zval = 11.0
     Generated using "atomic" code by A. Dal Corso v.6.3
     Shape of augmentation charge: PSQ
     Using radial grid of 1279 points,  6 beta functions with: 
                l(1) =   0
                l(2) =   0
                l(3) =   1
                l(4) =   1
                l(5) =   2
                l(6) =   2
     Q(r) pseudized with 0 coefficients 


     atomic species   valence    mass     pseudopotential
        Au            11.00   196.96600     Au( 1.00)

     48 Sym. Ops., with inversion, found



   Cartesian axes

     site n.     atom                  positions (alat units)
         1           Au  tau(   1) = (   0.0000000   0.0000000   0.0000000  )

     number of k points=    29  gaussian smearing, width (Ry)=  0.0100
                       cart. coord. in units 2pi/alat
        k(    1) = (   0.0000000   0.0000000   0.0000000), wk =   0.0039062
        k(    2) = (  -0.1250000   0.1250000  -0.1250000), wk =   0.0312500
        k(    3) = (  -0.2500000   0.2500000  -0.2500000), wk =   0.0312500
        k(    4) = (  -0.3750000   0.3750000  -0.3750000), wk =   0.0312500
        k(    5) = (   0.5000000  -0.5000000   0.5000000), wk =   0.0156250
        k(    6) = (   0.0000000   0.2500000   0.0000000), wk =   0.0234375
        k(    7) = (  -0.1250000   0.3750000  -0.1250000), wk =   0.0937500
        k(    8) = (  -0.2500000   0.5000000  -0.2500000), wk =   0.0937500
        k(    9) = (   0.6250000  -0.3750000   0.6250000), wk =   0.0937500
        k(   10) = (   0.5000000  -0.2500000   0.5000000), wk =   0.0937500
        k(   11) = (   0.3750000  -0.1250000   0.3750000), wk =   0.0937500
        k(   12) = (   0.2500000   0.0000000   0.2500000), wk =   0.0468750
        k(   13) = (   0.0000000   0.5000000   0.0000000), wk =   0.0234375
        k(   14) = (  -0.1250000   0.6250000  -0.1250000), wk =   0.0937500
        k(   15) = (   0.7500000  -0.2500000   0.7500000), wk =   0.0937500
        k(   16) = (   0.6250000  -0.1250000   0.6250000), wk =   0.0937500
        k(   17) = (   0.5000000   0.0000000   0.5000000), wk =   0.0468750
        k(   18) = (   0.0000000   0.7500000   0.0000000), wk =   0.0234375
        k(   19) = (   0.8750000  -0.1250000   0.8750000), wk =   0.0937500
        k(   20) = (   0.7500000   0.0000000   0.7500000), wk =   0.0468750
        k(   21) = (   0.0000000  -1.0000000   0.0000000), wk =   0.0117188
        k(   22) = (  -0.2500000   0.5000000   0.0000000), wk =   0.0937500
        k(   23) = (   0.6250000  -0.3750000   0.8750000), wk =   0.1875000
        k(   24) = (   0.5000000  -0.2500000   0.7500000), wk =   0.0937500
        k(   25) = (   0.7500000  -0.2500000   1.0000000), wk =   0.0937500
        k(   26) = (   0.6250000  -0.1250000   0.8750000), wk =   0.1875000
        k(   27) = (   0.5000000   0.0000000   0.7500000), wk =   0.0937500
        k(   28) = (  -0.2500000  -1.0000000   0.0000000), wk =   0.0468750
        k(   29) = (  -0.5000000  -1.0000000   0.0000000), wk =   0.0234375

     Dense  grid:    12039 G-vectors     FFT dimensions: (  32,  32,  32)

     Estimated max dynamical RAM per process >      12.17 MB

     Estimated total dynamical RAM >      60.84 MB

     Initial potential from superposition of free atoms

     starting charge   10.99989, renormalised to   11.00000
     Starting wfcs are    9 randomized atomic wfcs +    1 random wfcs
     Checking if some PAW data can be deallocated... 

     total cpu time spent up to now is        1.5 secs

     Self-consistent Calculation

     iteration #  1     ecut=    85.00 Ry     beta= 0.70
     Davidson diagonalization with overlap
     ethr =  1.00E-02,  avg # of iterations =  5.4

     Threshold (ethr) on eigenvalues was too large:
     Diagonalizing with lowered threshold

     Davidson diagonalization with overlap
     ethr =  4.63E-04,  avg # of iterations =  1.9

     total cpu time spent up to now is        2.4 secs

     total energy              =    -775.11549334 Ry
     Harris-Foulkes estimate   =    -775.15008604 Ry
     estimated scf accuracy    <       0.05105439 Ry

     iteration #  2     ecut=    85.00 Ry     beta= 0.70
     Davidson diagonalization with overlap
     ethr =  4.64E-04,  avg # of iterations =  2.8

     total cpu time spent up to now is        2.9 secs

     total energy              =    -775.13084144 Ry
     Harris-Foulkes estimate   =    -775.13958662 Ry
     estimated scf accuracy    <       0.01437288 Ry

     iteration #  3     ecut=    85.00 Ry     beta= 0.70
     Davidson diagonalization with overlap
     ethr =  1.31E-04,  avg # of iterations =  2.1

     total cpu time spent up to now is        3.4 secs

     total energy              =    -775.13408706 Ry
     Harris-Foulkes estimate   =    -775.13410253 Ry
     estimated scf accuracy    <       0.00023368 Ry

     iteration #  4     ecut=    85.00 Ry     beta= 0.70
     Davidson diagonalization with overlap
     ethr =  2.12E-06,  avg # of iterations =  3.8

     total cpu time spent up to now is        4.0 secs

     total energy              =    -775.13431156 Ry
     Harris-Foulkes estimate   =    -775.13440655 Ry
     estimated scf accuracy    <       0.00021020 Ry

     iteration #  5     ecut=    85.00 Ry     beta= 0.70
     Davidson diagonalization with overlap
     ethr =  1.91E-06,  avg # of iterations =  1.0

     total cpu time spent up to now is        4.5 secs

     total energy              =    -775.13431483 Ry
     Harris-Foulkes estimate   =    -775.13432952 Ry
     estimated scf accuracy    <       0.00002214 Ry

     iteration #  6     ecut=    85.00 Ry     beta= 0.70
     Davidson diagonalization with overlap
     ethr =  2.01E-07,  avg # of iterations =  2.6

     total cpu time spent up to now is        4.9 secs

     total energy              =    -775.13432645 Ry
     Harris-Foulkes estimate   =    -775.13432765 Ry
     estimated scf accuracy    <       0.00000306 Ry

     iteration #  7     ecut=    85.00 Ry     beta= 0.70
     Davidson diagonalization with overlap
     ethr =  2.78E-08,  avg # of iterations =  1.6

     total cpu time spent up to now is        5.4 secs

     total energy              =    -775.13432642 Ry
     Harris-Foulkes estimate   =    -775.13432675 Ry
     estimated scf accuracy    <       0.00000056 Ry

     iteration #  8     ecut=    85.00 Ry     beta= 0.70
     Davidson diagonalization with overlap
     ethr =  5.10E-09,  avg # of iterations =  3.0

     total cpu time spent up to now is        5.9 secs

     total energy              =    -775.13432663 Ry
     Harris-Foulkes estimate   =    -775.13432665 Ry
     estimated scf accuracy    <       0.00000003 Ry

     iteration #  9     ecut=    85.00 Ry     beta= 0.70
     Davidson diagonalization with overlap
     ethr =  2.84E-10,  avg # of iterations =  2.6

     total cpu time spent up to now is        6.4 secs

     End of self-consistent calculation

          k = 0.0000 0.0000 0.0000 (  1459 PWs)   bands (ev):

     6.0738  11.2714  11.2714  11.2714  12.7973  12.7973  31.3892  35.2433
    35.2433  35.2433

          k =-0.1250 0.1250-0.1250 (  1495 PWs)   bands (ev):

     6.6060  11.1198  11.4380  11.4380  12.7399  12.7399  31.6159  32.5391
    35.7340  35.7340

          k =-0.2500 0.2500-0.2500 (  1507 PWs)   bands (ev):

     7.8780  11.1379  11.5536  11.5536  12.9673  12.9673  27.2763  32.3133
    36.1423  36.1423

          k =-0.3750 0.3750-0.3750 (  1504 PWs)   bands (ev):

     8.5864  11.3493  11.3493  12.7902  13.6462  13.6462  22.2891  31.1935
    34.5262  34.5262

          k = 0.5000-0.5000 0.5000 (  1502 PWs)   bands (ev):

     8.6298  11.2331  11.2331  14.0062  14.0062  15.0006  19.0673  30.6734
    33.5964  33.5964

          k = 0.0000 0.2500 0.0000 (  1491 PWs)   bands (ev):

     6.7874  10.9171  11.5994  11.5994  12.4262  12.9562  32.1525  33.4829
    34.2507  34.2507

          k =-0.1250 0.3750-0.1250 (  1509 PWs)   bands (ev):

     7.8701  10.6446  11.6659  11.8691  12.5686  13.2066  29.2499  32.7323
    33.2193  35.3601

          k =-0.2500 0.5000-0.2500 (  1497 PWs)   bands (ev):

     8.8819  11.1686  11.2596  11.7626  13.7732  13.9276  24.1252  31.7318
    32.3293  33.8702

          k = 0.6250-0.3750 0.6250 (  1516 PWs)   bands (ev):

     9.0090  11.0018  11.5664  12.4627  14.0311  16.3002  19.6547  30.6169
    32.2709  32.3231

          k = 0.5000-0.2500 0.5000 (  1508 PWs)   bands (ev):

     9.0348  11.0814  11.5600  12.3323  13.5522  15.5911  21.0579  30.1314
    32.0998  34.0207

          k = 0.3750-0.1250 0.3750 (  1516 PWs)   bands (ev):

     8.6992  10.9430  11.4590  11.7768  12.6881  14.0549  25.8442  30.5198
    33.4968  37.2019

          k = 0.2500 0.0000 0.2500 (  1498 PWs)   bands (ev):

     7.4301  10.8576  11.6188  11.7116  12.3977  13.1335  30.3058  31.4964
    34.6262  36.6846

          k = 0.0000 0.5000 0.0000 (  1491 PWs)   bands (ev):

     8.5048  10.1435  11.9696  12.5142  12.5142  13.3549  30.9541  30.9541
    32.3180  33.1225

          k =-0.1250 0.6250-0.1250 (  1517 PWs)   bands (ev):

     9.2523   9.9653  11.7600  12.6870  13.8316  14.0802  26.2622  29.6077
    29.8623  33.4613

          k = 0.7500-0.2500 0.7500 (  1515 PWs)   bands (ev):

     9.4957  10.4093  11.6214  12.4625  14.0961  17.0154  21.4574  27.5969
    29.6802  33.1717

          k = 0.6250-0.1250 0.6250 (  1515 PWs)   bands (ev):

     9.7717  10.6853  11.5181  12.2800  13.5942  17.8994  20.8619  25.9438
    31.4725  32.8790

          k = 0.5000 0.0000 0.5000 (  1522 PWs)   bands (ev):

     9.8574  10.7321  11.0731  12.1963  12.7925  15.6986  24.6158  26.2615
    33.0635  34.4434

          k = 0.0000 0.7500 0.0000 (  1524 PWs)   bands (ev):

     9.0681   9.4596  13.7007  13.7007  13.7779  14.0172  26.0568  27.6231
    27.6231  32.8461

          k = 0.8750-0.1250 0.8750 (  1522 PWs)   bands (ev):

     9.1498   9.4880  13.1394  13.5281  14.1908  17.1255  22.6757  25.4954
    27.2382  33.9282

          k = 0.7500 0.0000 0.7500 (  1514 PWs)   bands (ev):

     9.4936  10.1160  12.1296  13.0885  13.8834  19.9051  20.6707  23.4354
    28.7748  33.7633

          k = 0.0000-1.0000 0.0000 (  1524 PWs)   bands (ev):

     8.8786   9.1971  13.9611  14.3309  14.3309  17.0077  21.7771  26.2069
    26.2069  33.2072

          k =-0.2500 0.5000 0.0000 (  1520 PWs)   bands (ev):

     8.9963  10.3538  11.3140  12.5158  12.6058  14.0939  27.4351  29.1341
    32.5606  35.6460

          k = 0.6250-0.3750 0.8750 (  1514 PWs)   bands (ev):

     9.6527  10.7794  10.9824  12.3192  13.5139  15.8492  23.0529  28.0346
    30.5549  35.0079

          k = 0.5000-0.2500 0.7500 (  1530 PWs)   bands (ev):

     9.6534  10.5970  11.7065  12.1125  13.8691  18.6323  19.0804  28.2839
    29.3223  34.2506

          k = 0.7500-0.2500 1.0000 (  1527 PWs)   bands (ev):

     9.5715   9.8168  11.7913  13.3986  13.6913  16.1189  24.4363  26.3406
    27.8157  35.8057

          k = 0.6250-0.1250 0.8750 (  1519 PWs)   bands (ev):

     9.8119  10.2556  11.4652  12.8732  14.0527  19.1474  21.1971  24.7940
    27.1778  35.8871

          k = 0.5000 0.0000 0.7500 (  1525 PWs)   bands (ev):

    10.2557  10.5533  10.8269  12.6633  13.6937  18.0584  23.1810  23.5735
    28.7060  35.9484

          k =-0.2500-1.0000 0.0000 (  1520 PWs)   bands (ev):

     9.3355   9.6030  12.6834  13.4163  14.3319  19.1436  21.2324  25.0595
    25.7221  36.0289

          k =-0.5000-1.0000 0.0000 (  1540 PWs)   bands (ev):

     9.9870  10.8003  10.8003  12.6525  14.3329  20.7795  22.3255  22.3255
    25.4377  39.4447

     the Fermi energy is    15.9442 ev

!    total energy              =    -775.13432664 Ry
     Harris-Foulkes estimate   =    -775.13432664 Ry
     estimated scf accuracy    <          3.7E-09 Ry

     total all-electron energy =    -38023.980418 Ry

     The total energy is the sum of the following terms:

     one-electron contribution =      13.83220426 Ry
     hartree contribution      =       7.63435127 Ry
     xc contribution           =     -32.12190819 Ry
     ewald contribution        =     -71.95438534 Ry
     one-center paw contrib.   =    -692.52420718 Ry
     smearing contrib. (-TS)   =      -0.00038145 Ry

     convergence has been achieved in   9 iterations

     Forces acting on atoms (cartesian axes, Ry/au):

     atom    1 type  1   force =     0.00000000    0.00000000    0.00000000

     Total force =     0.000000     Total SCF correction =     0.000000


     Computing stress (Cartesian axis) and pressure

          total   stress  (Ry/bohr**3)                   (kbar)     P=  111.36
   0.00075700   0.00000000   0.00000000        111.36      0.00      0.00
   0.00000000   0.00075700   0.00000000          0.00    111.36      0.00
   0.00000000   0.00000000   0.00075700          0.00      0.00    111.36


     Writing output data file Au.save/

     init_run     :      0.47s CPU      0.50s WALL (       1 calls)
     electrons    :      4.62s CPU      4.94s WALL (       1 calls)
     forces       :      0.07s CPU      0.07s WALL (       1 calls)
     stress       :      0.21s CPU      0.21s WALL (       1 calls)

     Called by init_run:
     wfcinit      :      0.12s CPU      0.13s WALL (       1 calls)
     potinit      :      0.12s CPU      0.13s WALL (       1 calls)
     hinit0       :      0.20s CPU      0.20s WALL (       1 calls)

     Called by electrons:
     c_bands      :      2.91s CPU      3.16s WALL (      10 calls)
     sum_band     :      0.64s CPU      0.68s WALL (      10 calls)
     v_of_rho     :      0.06s CPU      0.06s WALL (      10 calls)
     newd         :      0.12s CPU      0.12s WALL (      10 calls)
     PAW_pot      :      1.00s CPU      1.04s WALL (      10 calls)
     mix_rho      :      0.01s CPU      0.01s WALL (      10 calls)

     Called by c_bands:
     init_us_2    :      0.12s CPU      0.13s WALL (     667 calls)
     cegterg      :      2.76s CPU      3.00s WALL (     290 calls)

     Called by sum_band:
     sum_band:bec :      0.00s CPU      0.00s WALL (     290 calls)
     addusdens    :      0.11s CPU      0.12s WALL (      10 calls)

     Called by *egterg:
     h_psi        :      2.11s CPU      2.32s WALL (    1096 calls)
     s_psi        :      0.09s CPU      0.09s WALL (    1096 calls)
     g_psi        :      0.01s CPU      0.01s WALL (     777 calls)
     cdiaghg      :      0.23s CPU      0.24s WALL (    1038 calls)

     Called by h_psi:
     h_psi:pot    :      2.10s CPU      2.31s WALL (    1096 calls)
     h_psi:calbec :      0.11s CPU      0.13s WALL (    1096 calls)
     vloc_psi     :      1.89s CPU      2.08s WALL (    1096 calls)
     add_vuspsi   :      0.08s CPU      0.09s WALL (    1096 calls)

     General routines
     calbec       :      0.18s CPU      0.20s WALL (    1531 calls)
     fft          :      0.03s CPU      0.03s WALL (     137 calls)
     ffts         :      0.00s CPU      0.00s WALL (      10 calls)
     fftw         :      2.11s CPU      2.31s WALL (   18506 calls)

     Parallel routines
     fft_scatt_xy :      0.22s CPU      0.23s WALL (   18653 calls)
     fft_scatt_yz :      0.62s CPU      0.68s WALL (   18653 calls)

     PWSCF        :     6.36s CPU         6.78s WALL


   This run was terminated on:  12:30:51  26Mar2024            

=------------------------------------------------------------------------------=
   JOB DONE.
=------------------------------------------------------------------------------=
