
     Program PWSCF v.6.3MaX starts on 26Mar2024 at 11:45: 5 

     This program is part of the open-source Quantum ESPRESSO suite
     for quantum simulation of materials; please cite
         "P. Giannozzi et al., J. Phys.:Condens. Matter 21 395502 (2009);
         "P. Giannozzi et al., J. Phys.:Condens. Matter 29 465901 (2017);
          URL http://www.quantum-espresso.org", 
     in publications or presentations arising from this work. More details at
     http://www.quantum-espresso.org/quote

     Parallel version (MPI), running on     5 processors

     MPI processes distributed on     1 nodes
     R & G space division:  proc/nbgrp/npool/nimage =       5
     Waiting for input...
     Reading input from standard input

     Current dimensions of program PWSCF are:
     Max number of different atomic species (ntypx) = 10
     Max number of k-points (npk) =  40000
     Max angular momentum in pseudopotentials (lmaxx) =  3

     Subspace diagonalization in iterative solution of the eigenvalue problem:
     a serial algorithm will be used


     Parallelization info
     --------------------
     sticks:   dense  smooth     PW     G-vecs:    dense   smooth      PW
     Min          89      89     30                 1260     1260     248
     Max          92      92     31                 1261     1261     251
     Sum         451     451    151                 6303     6303    1243



     bravais-lattice index     =            2
     lattice parameter (alat)  =       7.7100  a.u.
     unit-cell volume          =     114.5785 (a.u.)^3
     number of atoms/cell      =            1
     number of atomic types    =            1
     number of electrons       =        11.00
     number of Kohn-Sham states=           10
     kinetic-energy cutoff     =      55.0000  Ry
     charge density cutoff     =     220.0000  Ry
     convergence threshold     =      1.0E-08
     mixing beta               =       0.7000
     number of iterations used =            8  plain     mixing
     Exchange-correlation      = PBE ( 1  4  3  4 0 0)

     celldm(1)=   7.710000  celldm(2)=   0.000000  celldm(3)=   0.000000
     celldm(4)=   0.000000  celldm(5)=   0.000000  celldm(6)=   0.000000

     crystal axes: (cart. coord. in units of alat)
               a(1) = (  -0.500000   0.000000   0.500000 )  
               a(2) = (   0.000000   0.500000   0.500000 )  
               a(3) = (  -0.500000   0.500000   0.000000 )  

     reciprocal axes: (cart. coord. in units 2 pi/alat)
               b(1) = ( -1.000000 -1.000000  1.000000 )  
               b(2) = (  1.000000  1.000000  1.000000 )  
               b(3) = ( -1.000000  1.000000 -1.000000 )  


     PseudoPot. # 1 for Au read from file:
     /home/lorenzo/pseudos/Au/Au.pbe-n-rrkjus_psl.1.0.0.UPF
     MD5 check sum: d7e77ba19504afed2c9b41c931dde4f0
     Pseudo is Ultrasoft + core correction, Zval = 11.0
     Generated using "atomic" code by A. Dal Corso v.6.3
     Using radial grid of 1279 points,  6 beta functions with: 
                l(1) =   0
                l(2) =   0
                l(3) =   1
                l(4) =   1
                l(5) =   2
                l(6) =   2
     Q(r) pseudized with 0 coefficients 


     atomic species   valence    mass     pseudopotential
        Au            11.00   196.96600     Au( 1.00)

     48 Sym. Ops., with inversion, found



   Cartesian axes

     site n.     atom                  positions (alat units)
         1           Au  tau(   1) = (   0.0000000   0.0000000   0.0000000  )

     number of k points=    47  gaussian smearing, width (Ry)=  0.0100
                       cart. coord. in units 2pi/alat
        k(    1) = (   0.0000000   0.0000000   0.0000000), wk =   0.0020000
        k(    2) = (  -0.1000000   0.1000000  -0.1000000), wk =   0.0160000
        k(    3) = (  -0.2000000   0.2000000  -0.2000000), wk =   0.0160000
        k(    4) = (  -0.3000000   0.3000000  -0.3000000), wk =   0.0160000
        k(    5) = (  -0.4000000   0.4000000  -0.4000000), wk =   0.0160000
        k(    6) = (   0.5000000  -0.5000000   0.5000000), wk =   0.0080000
        k(    7) = (   0.0000000   0.2000000   0.0000000), wk =   0.0120000
        k(    8) = (  -0.1000000   0.3000000  -0.1000000), wk =   0.0480000
        k(    9) = (  -0.2000000   0.4000000  -0.2000000), wk =   0.0480000
        k(   10) = (  -0.3000000   0.5000000  -0.3000000), wk =   0.0480000
        k(   11) = (   0.6000000  -0.4000000   0.6000000), wk =   0.0480000
        k(   12) = (   0.5000000  -0.3000000   0.5000000), wk =   0.0480000
        k(   13) = (   0.4000000  -0.2000000   0.4000000), wk =   0.0480000
        k(   14) = (   0.3000000  -0.1000000   0.3000000), wk =   0.0480000
        k(   15) = (   0.2000000   0.0000000   0.2000000), wk =   0.0240000
        k(   16) = (   0.0000000   0.4000000   0.0000000), wk =   0.0120000
        k(   17) = (  -0.1000000   0.5000000  -0.1000000), wk =   0.0480000
        k(   18) = (  -0.2000000   0.6000000  -0.2000000), wk =   0.0480000
        k(   19) = (   0.7000000  -0.3000000   0.7000000), wk =   0.0480000
        k(   20) = (   0.6000000  -0.2000000   0.6000000), wk =   0.0480000
        k(   21) = (   0.5000000  -0.1000000   0.5000000), wk =   0.0480000
        k(   22) = (   0.4000000   0.0000000   0.4000000), wk =   0.0240000
        k(   23) = (   0.0000000   0.6000000   0.0000000), wk =   0.0120000
        k(   24) = (  -0.1000000   0.7000000  -0.1000000), wk =   0.0480000
        k(   25) = (   0.8000000  -0.2000000   0.8000000), wk =   0.0480000
        k(   26) = (   0.7000000  -0.1000000   0.7000000), wk =   0.0480000
        k(   27) = (   0.6000000  -0.0000000   0.6000000), wk =   0.0240000
        k(   28) = (   0.0000000   0.8000000   0.0000000), wk =   0.0120000
        k(   29) = (   0.9000000  -0.1000000   0.9000000), wk =   0.0480000
        k(   30) = (   0.8000000   0.0000000   0.8000000), wk =   0.0240000
        k(   31) = (   0.0000000  -1.0000000   0.0000000), wk =   0.0060000
        k(   32) = (  -0.2000000   0.4000000   0.0000000), wk =   0.0480000
        k(   33) = (  -0.3000000   0.5000000  -0.1000000), wk =   0.0960000
        k(   34) = (   0.6000000  -0.4000000   0.8000000), wk =   0.0960000
        k(   35) = (   0.5000000  -0.3000000   0.7000000), wk =   0.0480000
        k(   36) = (  -0.2000000   0.6000000   0.0000000), wk =   0.0480000
        k(   37) = (   0.7000000  -0.3000000   0.9000000), wk =   0.0960000
        k(   38) = (   0.6000000  -0.2000000   0.8000000), wk =   0.0960000
        k(   39) = (   0.5000000  -0.1000000   0.7000000), wk =   0.0960000
        k(   40) = (   0.4000000   0.0000000   0.6000000), wk =   0.0480000
        k(   41) = (   0.8000000  -0.2000000   1.0000000), wk =   0.0480000
        k(   42) = (   0.7000000  -0.1000000   0.9000000), wk =   0.0960000
        k(   43) = (   0.6000000   0.0000000   0.8000000), wk =   0.0480000
        k(   44) = (  -0.2000000  -1.0000000   0.0000000), wk =   0.0240000
        k(   45) = (   0.6000000  -0.2000000   1.0000000), wk =   0.0480000
        k(   46) = (   0.5000000  -0.1000000   0.9000000), wk =   0.0480000
        k(   47) = (  -0.4000000  -1.0000000   0.0000000), wk =   0.0240000

     Dense  grid:     6303 G-vectors     FFT dimensions: (  25,  25,  25)

     Estimated max dynamical RAM per process >       7.26 MB

     Estimated total dynamical RAM >      36.30 MB

     Initial potential from superposition of free atoms

     starting charge   10.99989, renormalised to   11.00000
     Starting wfcs are    9 randomized atomic wfcs +    1 random wfcs

     total cpu time spent up to now is        1.4 secs

     Self-consistent Calculation

     iteration #  1     ecut=    55.00 Ry     beta= 0.70
     Davidson diagonalization with overlap
     ethr =  1.00E-02,  avg # of iterations =  5.4

     Threshold (ethr) on eigenvalues was too large:
     Diagonalizing with lowered threshold

     Davidson diagonalization with overlap
     ethr =  4.79E-04,  avg # of iterations =  2.0

     total cpu time spent up to now is        3.1 secs

     total energy              =     -85.36875731 Ry
     Harris-Foulkes estimate   =     -85.40214449 Ry
     estimated scf accuracy    <       0.05297813 Ry

     iteration #  2     ecut=    55.00 Ry     beta= 0.70
     Davidson diagonalization with overlap
     ethr =  4.82E-04,  avg # of iterations =  2.6

     total cpu time spent up to now is        4.0 secs

     total energy              =     -85.38286497 Ry
     Harris-Foulkes estimate   =     -85.39015629 Ry
     estimated scf accuracy    <       0.01172140 Ry

     iteration #  3     ecut=    55.00 Ry     beta= 0.70
     Davidson diagonalization with overlap
     ethr =  1.07E-04,  avg # of iterations =  2.0

     total cpu time spent up to now is        4.7 secs

     total energy              =     -85.38560511 Ry
     Harris-Foulkes estimate   =     -85.38565347 Ry
     estimated scf accuracy    <       0.00017843 Ry

     iteration #  4     ecut=    55.00 Ry     beta= 0.70
     Davidson diagonalization with overlap
     ethr =  1.62E-06,  avg # of iterations =  3.7

     total cpu time spent up to now is        5.7 secs

     total energy              =     -85.38575553 Ry
     Harris-Foulkes estimate   =     -85.38581669 Ry
     estimated scf accuracy    <       0.00011928 Ry

     iteration #  5     ecut=    55.00 Ry     beta= 0.70
     Davidson diagonalization with overlap
     ethr =  1.08E-06,  avg # of iterations =  1.0

     total cpu time spent up to now is        6.2 secs

     total energy              =     -85.38576316 Ry
     Harris-Foulkes estimate   =     -85.38576794 Ry
     estimated scf accuracy    <       0.00000797 Ry

     iteration #  6     ecut=    55.00 Ry     beta= 0.70
     Davidson diagonalization with overlap
     ethr =  7.24E-08,  avg # of iterations =  3.0

     total cpu time spent up to now is        6.9 secs

     total energy              =     -85.38576870 Ry
     Harris-Foulkes estimate   =     -85.38576903 Ry
     estimated scf accuracy    <       0.00000105 Ry

     iteration #  7     ecut=    55.00 Ry     beta= 0.70
     Davidson diagonalization with overlap
     ethr =  9.55E-09,  avg # of iterations =  1.1

     total cpu time spent up to now is        7.3 secs

     total energy              =     -85.38576857 Ry
     Harris-Foulkes estimate   =     -85.38576875 Ry
     estimated scf accuracy    <       0.00000030 Ry

     iteration #  8     ecut=    55.00 Ry     beta= 0.70
     Davidson diagonalization with overlap
     ethr =  2.70E-09,  avg # of iterations =  2.5

     total cpu time spent up to now is        7.8 secs

     total energy              =     -85.38576867 Ry
     Harris-Foulkes estimate   =     -85.38576868 Ry
     estimated scf accuracy    <       0.00000003 Ry

     iteration #  9     ecut=    55.00 Ry     beta= 0.70
     Davidson diagonalization with overlap
     ethr =  2.46E-10,  avg # of iterations =  2.2

     total cpu time spent up to now is        8.4 secs

     End of self-consistent calculation

          k = 0.0000 0.0000 0.0000 (   749 PWs)   bands (ev):

     6.0952  11.3126  11.3126  11.3126  12.8439  12.8439  31.3945  35.2602
    35.2602  35.2602

          k =-0.1000 0.1000-0.1000 (   791 PWs)   bands (ev):

     6.4404  11.2067  11.4271  11.4271  12.7983  12.7983  31.6923  33.1687
    35.5913  35.5913

          k =-0.2000 0.2000-0.2000 (   800 PWs)   bands (ev):

     7.3641  11.0709  11.6010  11.6010  12.8434  12.8434  29.2796  32.4862
    36.2111  36.2111

          k =-0.3000 0.3000-0.3000 (   790 PWs)   bands (ev):

     8.3277  11.5269  11.5269  11.5668  13.2725  13.2725  25.2838  31.8978
    35.6560  35.6560

          k =-0.4000 0.4000-0.4000 (   790 PWs)   bands (ev):

     8.6425  11.3508  11.3508  13.3636  13.8165  13.8165  21.4102  31.0212
    34.2366  34.2366

          k = 0.5000-0.5000 0.5000 (   796 PWs)   bands (ev):

     8.6592  11.2738  11.2738  14.0568  14.0568  15.0230  19.1098  30.6831
    33.6219  33.6219

          k = 0.0000 0.2000 0.0000 (   797 PWs)   bands (ev):

     6.5571  11.0779  11.5241  11.5241  12.5951  12.9473  31.8990  33.8957
    34.6754  34.6754

          k =-0.1000 0.3000-0.1000 (   797 PWs)   bands (ev):

     7.3038  10.8514  11.7188  11.7533  12.4761  13.0731  30.7559  32.6033
    34.0956  35.6679

          k =-0.2000 0.4000-0.2000 (   795 PWs)   bands (ev):

     8.3437  10.8999  11.5400  11.7894  13.0490  13.4339  26.8077  32.3472
    33.4331  35.5812

          k =-0.3000 0.5000-0.3000 (   789 PWs)   bands (ev):

     8.8621  11.2557  11.6287  11.8432  13.9037  14.2582  22.7725  31.4294
    32.7712  33.9140

          k = 0.6000-0.4000 0.6000 (   791 PWs)   bands (ev):

     8.9111  11.1165  11.4895  12.8598  14.0730  16.0714  19.4725  30.8071
    32.5313  32.7748

          k = 0.5000-0.3000 0.5000 (   791 PWs)   bands (ev):

     8.9212  11.1693  11.4869  12.7781  13.7548  15.5553  20.4380  30.6840
    32.1739  33.9172

          k = 0.4000-0.2000 0.4000 (   796 PWs)   bands (ev):

     8.7957  11.3136  11.6346  11.6415  13.1113  14.2658  24.1192  31.0303
    32.9666  36.1691

          k = 0.3000-0.1000 0.3000 (   799 PWs)   bands (ev):

     8.0153  10.8883  11.6264  11.7956  12.5391  13.4533  28.1229  31.5778
    34.4866  36.5168

          k = 0.2000 0.0000 0.2000 (   797 PWs)   bands (ev):

     6.9901  11.0144  11.5998  11.6116  12.5581  12.9877  31.5456  31.8869
    34.5275  37.0669

          k = 0.0000 0.4000 0.0000 (   801 PWs)   bands (ev):

     7.8092  10.5068  12.0843  12.1329  12.1329  13.2255  32.4572  32.4572
    32.6938  33.1389

          k =-0.1000 0.5000-0.1000 (   804 PWs)   bands (ev):

     8.6800  10.2695  11.6730  12.3713  13.0079  13.5236  28.6122  31.2483
    32.4159  33.6539

          k =-0.2000 0.6000-0.2000 (   797 PWs)   bands (ev):

     9.3069  10.5149  11.3594  12.2762  13.9722  14.5736  24.4238  30.5927
    30.6038  33.2025

          k = 0.7000-0.3000 0.7000 (   792 PWs)   bands (ev):

     9.4328  10.7751  11.6676  12.0960  14.1173  16.8752  20.6711  28.9855
    30.8166  32.6707

          k = 0.6000-0.2000 0.6000 (   785 PWs)   bands (ev):

     9.5416  10.8043  11.9154  11.9954  13.7576  17.6019  19.9957  27.8582
    32.1373  32.4561

          k = 0.5000-0.1000 0.5000 (   787 PWs)   bands (ev):

     9.6260  10.9480  11.3243  12.0396  13.0621  15.7316  23.4428  27.5752
    32.8229  34.3943

          k = 0.4000 0.0000 0.4000 (   797 PWs)   bands (ev):

     9.0639  10.6787  11.4125  12.2045  12.3619  14.4491  26.6738  28.6260
    33.8040  36.6274

          k = 0.0000 0.6000 0.0000 (   801 PWs)   bands (ev):

     9.0126   9.8708  12.3917  13.0348  13.0348  13.5854  29.5255  29.5255
    30.0471  32.6227

          k =-0.1000 0.7000-0.1000 (   785 PWs)   bands (ev):

     9.2767   9.7327  12.4229  13.1436  13.9836  14.5921  25.9213  28.2340
    28.5479  33.5329

          k = 0.8000-0.2000 0.8000 (   781 PWs)   bands (ev):

     9.4434  10.0227  12.1265  12.9513  14.1803  17.1441  22.2776  26.4003
    28.6363  33.6613

          k = 0.7000-0.1000 0.7000 (   787 PWs)   bands (ev):

     9.6948  10.4839  11.7233  12.7302  13.8579  19.2499  20.3956  24.7440
    29.8921  33.3779

          k = 0.6000-0.0000 0.6000 (   788 PWs)   bands (ev):

    10.0167  10.8834  11.1194  12.4738  13.3173  17.3220  23.4571  23.9788
    32.0063  33.0802

          k = 0.0000 0.8000 0.0000 (   789 PWs)   bands (ev):

     9.0485   9.4013  13.8910  13.9572  13.9572  14.7755  24.8842  27.1630
    27.1630  32.9841

          k = 0.9000-0.1000 0.9000 (   777 PWs)   bands (ev):

     9.0943   9.4128  13.5412  13.7408  14.2701  17.1388  22.5189  25.6307
    26.9089  33.8634

          k = 0.8000 0.0000 0.8000 (   782 PWs)   bands (ev):

     9.3553   9.8357  12.6471  13.3912  14.0903  19.7039  20.6685  23.9233
    27.9427  34.0198

          k = 0.0000-1.0000 0.0000 (   790 PWs)   bands (ev):

     8.9103   9.2309  14.0115  14.3827  14.3827  17.0302  21.8161  26.2311
    26.2311  33.2370

          k =-0.2000 0.4000 0.0000 (   802 PWs)   bands (ev):

     8.1629  10.5934  11.6264  12.1384  12.4523  13.4925  29.3184  30.7926
    34.3529  34.7496

          k =-0.3000 0.5000-0.1000 (   795 PWs)   bands (ev):

     9.1184  10.6781  11.2653  12.1580  13.0281  14.3944  25.7264  29.7160
    32.5009  35.4269

          k = 0.6000-0.4000 0.8000 (   794 PWs)   bands (ev):

     9.3712  10.9499  11.5432  12.0038  13.7288  15.8656  21.8734  29.4510
    31.0558  34.1871

          k = 0.5000-0.3000 0.7000 (   790 PWs)   bands (ev):

     9.3636  10.8289  11.8611  12.1474  13.9531  17.7887  19.0740  29.7692
    30.1427  33.5649

          k =-0.2000 0.6000 0.0000 (   798 PWs)   bands (ev):

     9.3514  10.0533  11.5212  13.0270  13.1165  14.3913  26.9872  28.4703
    30.5566  35.5455

          k = 0.7000-0.3000 0.9000 (   789 PWs)   bands (ev):

     9.7015  10.2910  11.3110  12.8340  13.8102  16.1070  23.5396  27.4881
    28.9462  35.0248

          k = 0.6000-0.2000 0.8000 (   791 PWs)   bands (ev):

     9.8424  10.5123  11.4236  12.5455  13.9740  18.6240  20.2342  26.7302
    28.6435  34.7091

          k = 0.5000-0.1000 0.7000 (   787 PWs)   bands (ev):

    10.0822  10.5580  11.2105  12.4840  13.6525  17.6286  21.7717  25.8204
    29.7788  35.0063

          k = 0.4000 0.0000 0.6000 (   783 PWs)   bands (ev):

    10.0535  10.5446  10.8529  12.6099  13.0574  15.8113  24.6689  26.3277
    31.2049  36.0508

          k = 0.8000-0.2000 1.0000 (   786 PWs)   bands (ev):

     9.3703   9.6423  12.4745  13.6606  13.9524  16.3345  24.0809  26.3515
    27.0682  35.0108

          k = 0.7000-0.1000 0.9000 (   775 PWs)   bands (ev):

     9.5723   9.9595  12.0851  13.2221  14.1933  18.8883  21.6674  24.6230
    26.9436  35.4889

          k = 0.6000 0.0000 0.8000 (   789 PWs)   bands (ev):

     9.9007  10.4606  11.4462  12.8077  13.9540  19.3490  21.9654  23.1724
    28.1854  35.3273

          k =-0.2000-1.0000 0.0000 (   782 PWs)   bands (ev):

     9.2135   9.4916  13.1534  13.6492  14.3834  18.5744  21.4262  25.4818
    25.8714  35.1440

          k = 0.6000-0.2000 1.0000 (   776 PWs)   bands (ev):

    10.1023  10.3488  11.0524  12.9700  13.9431  18.0346  23.1385  24.3798
    27.3982  37.4765

          k = 0.5000-0.1000 0.9000 (   778 PWs)   bands (ev):

    10.1365  10.5887  10.9806  12.7151  14.1692  19.8828  21.3213  24.0902
    26.5650  37.4098

          k =-0.4000-1.0000 0.0000 (   778 PWs)   bands (ev):

     9.8697  10.2657  11.5220  12.8721  14.3845  20.8920  21.0841  23.5629
    25.5202  38.1650

     the Fermi energy is    15.9988 ev

!    total energy              =     -85.38576867 Ry
     Harris-Foulkes estimate   =     -85.38576867 Ry
     estimated scf accuracy    <          4.8E-09 Ry

     The total energy is the sum of the following terms:

     one-electron contribution =      11.08106350 Ry
     hartree contribution      =       7.59318547 Ry
     xc contribution           =     -32.10525916 Ry
     ewald contribution        =     -71.95438542 Ry
     smearing contrib. (-TS)   =      -0.00037305 Ry

     convergence has been achieved in   9 iterations

     Forces acting on atoms (cartesian axes, Ry/au):

     atom    1 type  1   force =     0.00000000    0.00000000    0.00000000

     Total force =     0.000000     Total SCF correction =     0.000000


     Computing stress (Cartesian axis) and pressure

          total   stress  (Ry/bohr**3)                   (kbar)     P=  107.88
   0.00073336  -0.00000000  -0.00000000        107.88     -0.00     -0.00
  -0.00000000   0.00073336  -0.00000000         -0.00    107.88     -0.00
   0.00000000  -0.00000000   0.00073336          0.00     -0.00    107.88


     Writing output data file Au.save/

     init_run     :      0.42s CPU      0.43s WALL (       1 calls)
     electrons    :      6.72s CPU      7.00s WALL (       1 calls)
     forces       :      0.05s CPU      0.05s WALL (       1 calls)
     stress       :      0.16s CPU      0.17s WALL (       1 calls)

     Called by init_run:
     wfcinit      :      0.24s CPU      0.25s WALL (       1 calls)
     potinit      :      0.01s CPU      0.01s WALL (       1 calls)
     hinit0       :      0.16s CPU      0.16s WALL (       1 calls)

     Called by electrons:
     c_bands      :      5.63s CPU      5.86s WALL (      10 calls)
     sum_band     :      0.93s CPU      0.98s WALL (      10 calls)
     v_of_rho     :      0.05s CPU      0.06s WALL (      10 calls)
     newd         :      0.09s CPU      0.10s WALL (      10 calls)
     mix_rho      :      0.01s CPU      0.01s WALL (      10 calls)

     Called by c_bands:
     init_us_2    :      0.13s CPU      0.13s WALL (    1081 calls)
     cegterg      :      5.40s CPU      5.61s WALL (     470 calls)

     Called by sum_band:
     sum_band:bec :      0.01s CPU      0.01s WALL (     470 calls)
     addusdens    :      0.07s CPU      0.08s WALL (      10 calls)

     Called by *egterg:
     h_psi        :      4.13s CPU      4.31s WALL (    1713 calls)
     s_psi        :      0.09s CPU      0.09s WALL (    1713 calls)
     g_psi        :      0.01s CPU      0.01s WALL (    1196 calls)
     cdiaghg      :      0.55s CPU      0.57s WALL (    1619 calls)

     Called by h_psi:
     h_psi:pot    :      4.11s CPU      4.29s WALL (    1713 calls)
     h_psi:calbec :      0.27s CPU      0.28s WALL (    1713 calls)
     vloc_psi     :      3.73s CPU      3.89s WALL (    1713 calls)
     add_vuspsi   :      0.10s CPU      0.10s WALL (    1713 calls)

     General routines
     calbec       :      0.37s CPU      0.39s WALL (    2418 calls)
     fft          :      0.05s CPU      0.05s WALL (     137 calls)
     ffts         :      0.00s CPU      0.00s WALL (      10 calls)
     fftw         :      4.22s CPU      4.39s WALL (   29884 calls)

     Parallel routines
     fft_scatt_xy :      0.24s CPU      0.25s WALL (   30031 calls)
     fft_scatt_yz :      2.16s CPU      2.22s WALL (   30031 calls)

     PWSCF        :     8.39s CPU         8.78s WALL


   This run was terminated on:  11:45:14  26Mar2024            

=------------------------------------------------------------------------------=
   JOB DONE.
=------------------------------------------------------------------------------=
