
     Program PWSCF v.6.3MaX starts on 26Mar2024 at 12:41:27 

     This program is part of the open-source Quantum ESPRESSO suite
     for quantum simulation of materials; please cite
         "P. Giannozzi et al., J. Phys.:Condens. Matter 21 395502 (2009);
         "P. Giannozzi et al., J. Phys.:Condens. Matter 29 465901 (2017);
          URL http://www.quantum-espresso.org", 
     in publications or presentations arising from this work. More details at
     http://www.quantum-espresso.org/quote

     Parallel version (MPI), running on     5 processors

     MPI processes distributed on     1 nodes
     R & G space division:  proc/nbgrp/npool/nimage =       5
     Waiting for input...
     Reading input from standard input

     Current dimensions of program PWSCF are:
     Max number of different atomic species (ntypx) = 10
     Max number of k-points (npk) =  40000
     Max angular momentum in pseudopotentials (lmaxx) =  3
               file Au.pbe-n-kjpaw_psl.1.0.0.UPF: wavefunction(s)  6S 5D renormalized

     Subspace diagonalization in iterative solution of the eigenvalue problem:
     a serial algorithm will be used


     Parallelization info
     --------------------
     sticks:   dense  smooth     PW     G-vecs:    dense   smooth      PW
     Min         153     153     48                 2863     2863     484
     Max         154     154     49                 2867     2867     485
     Sum         769     769    241                14331    14331    2421



     bravais-lattice index     =            2
     lattice parameter (alat)  =       7.7100  a.u.
     unit-cell volume          =     114.5785 (a.u.)^3
     number of atoms/cell      =            1
     number of atomic types    =            1
     number of electrons       =        11.00
     number of Kohn-Sham states=           10
     kinetic-energy cutoff     =      95.0000  Ry
     charge density cutoff     =     380.0000  Ry
     convergence threshold     =      1.0E-08
     mixing beta               =       0.7000
     number of iterations used =            8  plain     mixing
     Exchange-correlation      = SLA PW PBX PBC ( 1  4  3  4 0 0)

     celldm(1)=   7.710000  celldm(2)=   0.000000  celldm(3)=   0.000000
     celldm(4)=   0.000000  celldm(5)=   0.000000  celldm(6)=   0.000000

     crystal axes: (cart. coord. in units of alat)
               a(1) = (  -0.500000   0.000000   0.500000 )  
               a(2) = (   0.000000   0.500000   0.500000 )  
               a(3) = (  -0.500000   0.500000   0.000000 )  

     reciprocal axes: (cart. coord. in units 2 pi/alat)
               b(1) = ( -1.000000 -1.000000  1.000000 )  
               b(2) = (  1.000000  1.000000  1.000000 )  
               b(3) = ( -1.000000  1.000000 -1.000000 )  


     PseudoPot. # 1 for Au read from file:
     /home/lorenzo/pseudos/Au/Au.pbe-n-kjpaw_psl.1.0.0.UPF
     MD5 check sum: 4db85c736373c707a97ce4c36c2a9d23
     Pseudo is Projector augmented-wave + core cor, Zval = 11.0
     Generated using "atomic" code by A. Dal Corso v.6.3
     Shape of augmentation charge: PSQ
     Using radial grid of 1279 points,  6 beta functions with: 
                l(1) =   0
                l(2) =   0
                l(3) =   1
                l(4) =   1
                l(5) =   2
                l(6) =   2
     Q(r) pseudized with 0 coefficients 


     atomic species   valence    mass     pseudopotential
        Au            11.00   196.96600     Au( 1.00)

     48 Sym. Ops., with inversion, found



   Cartesian axes

     site n.     atom                  positions (alat units)
         1           Au  tau(   1) = (   0.0000000   0.0000000   0.0000000  )

     number of k points=    56  gaussian smearing, width (Ry)=  0.0100
                       cart. coord. in units 2pi/alat
        k(    1) = (   0.0000000   0.0000000   0.0000000), wk =   0.0015026
        k(    2) = (  -0.0909091   0.0909091  -0.0909091), wk =   0.0120210
        k(    3) = (  -0.1818182   0.1818182  -0.1818182), wk =   0.0120210
        k(    4) = (  -0.2727273   0.2727273  -0.2727273), wk =   0.0120210
        k(    5) = (  -0.3636364   0.3636364  -0.3636364), wk =   0.0120210
        k(    6) = (  -0.4545455   0.4545455  -0.4545455), wk =   0.0120210
        k(    7) = (   0.0000000   0.1818182   0.0000000), wk =   0.0090158
        k(    8) = (  -0.0909091   0.2727273  -0.0909091), wk =   0.0360631
        k(    9) = (  -0.1818182   0.3636364  -0.1818182), wk =   0.0360631
        k(   10) = (  -0.2727273   0.4545455  -0.2727273), wk =   0.0360631
        k(   11) = (  -0.3636364   0.5454545  -0.3636364), wk =   0.0360631
        k(   12) = (   0.5454545  -0.3636364   0.5454545), wk =   0.0360631
        k(   13) = (   0.4545455  -0.2727273   0.4545455), wk =   0.0360631
        k(   14) = (   0.3636364  -0.1818182   0.3636364), wk =   0.0360631
        k(   15) = (   0.2727273  -0.0909091   0.2727273), wk =   0.0360631
        k(   16) = (   0.1818182  -0.0000000   0.1818182), wk =   0.0180316
        k(   17) = (   0.0000000   0.3636364   0.0000000), wk =   0.0090158
        k(   18) = (  -0.0909091   0.4545455  -0.0909091), wk =   0.0360631
        k(   19) = (  -0.1818182   0.5454545  -0.1818182), wk =   0.0360631
        k(   20) = (  -0.2727273   0.6363636  -0.2727273), wk =   0.0360631
        k(   21) = (   0.6363636  -0.2727273   0.6363636), wk =   0.0360631
        k(   22) = (   0.5454545  -0.1818182   0.5454545), wk =   0.0360631
        k(   23) = (   0.4545455  -0.0909091   0.4545455), wk =   0.0360631
        k(   24) = (   0.3636364   0.0000000   0.3636364), wk =   0.0180316
        k(   25) = (   0.0000000   0.5454545   0.0000000), wk =   0.0090158
        k(   26) = (  -0.0909091   0.6363636  -0.0909091), wk =   0.0360631
        k(   27) = (  -0.1818182   0.7272727  -0.1818182), wk =   0.0360631
        k(   28) = (   0.7272727  -0.1818182   0.7272727), wk =   0.0360631
        k(   29) = (   0.6363636  -0.0909091   0.6363636), wk =   0.0360631
        k(   30) = (   0.5454545   0.0000000   0.5454545), wk =   0.0180316
        k(   31) = (   0.0000000   0.7272727   0.0000000), wk =   0.0090158
        k(   32) = (  -0.0909091   0.8181818  -0.0909091), wk =   0.0360631
        k(   33) = (   0.8181818  -0.0909091   0.8181818), wk =   0.0360631
        k(   34) = (   0.7272727   0.0000000   0.7272727), wk =   0.0180316
        k(   35) = (   0.0000000   0.9090909   0.0000000), wk =   0.0090158
        k(   36) = (   0.9090909  -0.0000000   0.9090909), wk =   0.0180316
        k(   37) = (  -0.1818182   0.3636364   0.0000000), wk =   0.0360631
        k(   38) = (  -0.2727273   0.4545455  -0.0909091), wk =   0.0721262
        k(   39) = (  -0.3636364   0.5454545  -0.1818182), wk =   0.0721262
        k(   40) = (   0.5454545  -0.3636364   0.7272727), wk =   0.0721262
        k(   41) = (  -0.1818182   0.5454545   0.0000000), wk =   0.0360631
        k(   42) = (  -0.2727273   0.6363636  -0.0909091), wk =   0.0721262
        k(   43) = (   0.6363636  -0.2727273   0.8181818), wk =   0.0721262
        k(   44) = (   0.5454545  -0.1818182   0.7272727), wk =   0.0721262
        k(   45) = (   0.4545455  -0.0909091   0.6363636), wk =   0.0721262
        k(   46) = (   0.3636364   0.0000000   0.5454545), wk =   0.0360631
        k(   47) = (  -0.1818182   0.7272727   0.0000000), wk =   0.0360631
        k(   48) = (   0.7272727  -0.1818182   0.9090909), wk =   0.0721262
        k(   49) = (   0.6363636  -0.0909091   0.8181818), wk =   0.0721262
        k(   50) = (   0.5454545   0.0000000   0.7272727), wk =   0.0360631
        k(   51) = (   0.8181818  -0.0909091   1.0000000), wk =   0.0360631
        k(   52) = (   0.7272727   0.0000000   0.9090909), wk =   0.0360631
        k(   53) = (   0.6363636  -0.2727273   1.0000000), wk =   0.0360631
        k(   54) = (   0.5454545  -0.1818182   0.9090909), wk =   0.0721262
        k(   55) = (   0.6363636  -0.0909091   1.0000000), wk =   0.0360631
        k(   56) = (   0.5454545   0.0000000   0.9090909), wk =   0.0360631

     Dense  grid:    14331 G-vectors     FFT dimensions: (  36,  36,  36)

     Estimated max dynamical RAM per process >      15.83 MB

     Estimated total dynamical RAM >      79.14 MB

     Initial potential from superposition of free atoms

     starting charge   10.99989, renormalised to   11.00000
     Starting wfcs are    9 randomized atomic wfcs +    1 random wfcs
     Checking if some PAW data can be deallocated... 

     total cpu time spent up to now is        1.6 secs

     Self-consistent Calculation

     iteration #  1     ecut=    95.00 Ry     beta= 0.70
     Davidson diagonalization with overlap
     ethr =  1.00E-02,  avg # of iterations =  5.3

     Threshold (ethr) on eigenvalues was too large:
     Diagonalizing with lowered threshold

     Davidson diagonalization with overlap
     ethr =  4.72E-04,  avg # of iterations =  1.6

     total cpu time spent up to now is        4.1 secs

     total energy              =    -775.11827607 Ry
     Harris-Foulkes estimate   =    -775.15368713 Ry
     estimated scf accuracy    <       0.05226986 Ry

     iteration #  2     ecut=    95.00 Ry     beta= 0.70
     Davidson diagonalization with overlap
     ethr =  4.75E-04,  avg # of iterations =  2.8

     total cpu time spent up to now is        5.3 secs

     total energy              =    -775.13414055 Ry
     Harris-Foulkes estimate   =    -775.14319930 Ry
     estimated scf accuracy    <       0.01487015 Ry

     iteration #  3     ecut=    95.00 Ry     beta= 0.70
     Davidson diagonalization with overlap
     ethr =  1.35E-04,  avg # of iterations =  2.1

     total cpu time spent up to now is        6.3 secs

     total energy              =    -775.13744430 Ry
     Harris-Foulkes estimate   =    -775.13746380 Ry
     estimated scf accuracy    <       0.00023778 Ry

     iteration #  4     ecut=    95.00 Ry     beta= 0.70
     Davidson diagonalization with overlap
     ethr =  2.16E-06,  avg # of iterations =  3.6

     total cpu time spent up to now is        7.9 secs

     total energy              =    -775.13768926 Ry
     Harris-Foulkes estimate   =    -775.13779022 Ry
     estimated scf accuracy    <       0.00022680 Ry

     iteration #  5     ecut=    95.00 Ry     beta= 0.70
     Davidson diagonalization with overlap
     ethr =  2.06E-06,  avg # of iterations =  1.0

     total cpu time spent up to now is        8.9 secs

     total energy              =    -775.13768977 Ry
     Harris-Foulkes estimate   =    -775.13770762 Ry
     estimated scf accuracy    <       0.00002780 Ry

     iteration #  6     ecut=    95.00 Ry     beta= 0.70
     Davidson diagonalization with overlap
     ethr =  2.53E-07,  avg # of iterations =  2.4

     total cpu time spent up to now is       10.0 secs

     total energy              =    -775.13770276 Ry
     Harris-Foulkes estimate   =    -775.13770356 Ry
     estimated scf accuracy    <       0.00000232 Ry

     iteration #  7     ecut=    95.00 Ry     beta= 0.70
     Davidson diagonalization with overlap
     ethr =  2.11E-08,  avg # of iterations =  1.9

     total cpu time spent up to now is       11.0 secs

     total energy              =    -775.13770271 Ry
     Harris-Foulkes estimate   =    -775.13770302 Ry
     estimated scf accuracy    <       0.00000053 Ry

     iteration #  8     ecut=    95.00 Ry     beta= 0.70
     Davidson diagonalization with overlap
     ethr =  4.85E-09,  avg # of iterations =  2.4

     total cpu time spent up to now is       12.2 secs

     End of self-consistent calculation

          k = 0.0000 0.0000 0.0000 (  1807 PWs)   bands (ev):

     6.0729  11.2649  11.2649  11.2649  12.7882  12.7882  31.3896  35.2416
    35.2416  35.2416

          k =-0.0909 0.0909-0.0909 (  1810 PWs)   bands (ev):

     6.3592  11.1760  11.3611  11.3611  12.7488  12.7488  31.6537  33.4147
    35.5169  35.5169

          k =-0.1818 0.1818-0.1818 (  1805 PWs)   bands (ev):

     7.1456  11.0314  11.5344  11.5344  12.7550  12.7550  29.9352  32.4548
    36.1014  36.1014

          k =-0.2727 0.2727-0.2727 (  1805 PWs)   bands (ev):

     8.0910  11.2686  11.5208  11.5208  13.0683  13.0683  26.3539  32.1395
    35.9549  35.9549

          k =-0.3636 0.3636-0.3636 (  1814 PWs)   bands (ev):

     8.5628  11.3616  11.3616  12.5539  13.5776  13.5776  22.7181  31.2876
    34.6829  34.6829

          k =-0.4545 0.4545-0.4545 (  1787 PWs)   bands (ev):

     8.6260  11.2422  11.2422  13.9453  13.9453  14.5135  19.6788  30.7451
    33.7265  33.7265

          k = 0.0000 0.1818 0.0000 (  1820 PWs)   bands (ev):

     6.4558  11.0701  11.4395  11.4395  12.5813  12.8738  31.8077  34.0326
    34.7671  34.7671

          k =-0.0909 0.2727-0.0909 (  1806 PWs)   bands (ev):

     7.0847  10.8706  11.6287  11.6438  12.4409  12.9671  31.2159  32.5127
    34.3224  35.6448

          k =-0.1818 0.3636-0.1818 (  1807 PWs)   bands (ev):

     8.0347  10.8285  11.5658  11.7229  12.7825  13.2378  27.7336  32.4764
    33.8093  36.1224

          k =-0.2727 0.4545-0.2727 (  1801 PWs)   bands (ev):

     8.7007  11.3047  11.4843  11.6033  13.6692  13.6802  24.0258  31.6980
    33.1366  34.6720

          k =-0.3636 0.5455-0.3636 (  1793 PWs)   bands (ev):

     8.8327  11.1306  11.4514  12.5932  13.9890  15.1037  20.6250  31.0008
    32.7753  33.1636

          k = 0.5455-0.3636 0.5455 (  1784 PWs)   bands (ev):

     8.8381  11.0976  11.3863  13.0587  13.9273  16.1210  19.1355  30.7255
    32.3240  33.2370

          k = 0.4545-0.2727 0.4545 (  1803 PWs)   bands (ev):

     8.8329  11.2083  11.4502  12.4220  13.4907  14.7843  21.7225  30.8900
    32.4488  34.6870

          k = 0.3636-0.1818 0.3636 (  1804 PWs)   bands (ev):

     8.5654  11.1841  11.4966  11.6160  12.8870  13.8533  25.2665  31.3731
    33.4498  36.9696

          k = 0.2727-0.0909 0.2727 (  1806 PWs)   bands (ev):

     7.7115  10.8616  11.5994  11.7076  12.4698  13.2193  28.8970  31.8470
    34.6460  36.6535

          k = 0.1818-0.0000 0.1818 (  1811 PWs)   bands (ev):

     6.8188  11.0114  11.5026  11.5313  12.5456  12.8884  31.8922  31.9577
    34.5584  36.7447

          k = 0.0000 0.3636 0.0000 (  1796 PWs)   bands (ev):

     7.5195  10.5792  11.9461  11.9461  12.1155  13.1086  32.8161  32.8718
    32.9304  32.9304

          k =-0.0909 0.4545-0.0909 (  1793 PWs)   bands (ev):

     8.3220  10.3471  11.6809  12.1824  12.6719  13.3420  29.3837  31.8496
    32.8364  34.0154

          k =-0.1818 0.5455-0.1818 (  1794 PWs)   bands (ev):

     9.0729  10.4650  11.3255  12.1453  13.7544  13.8534  25.5667  31.1147
    31.5586  33.3675

          k =-0.2727 0.6364-0.2727 (  1789 PWs)   bands (ev):

     9.2891  10.8304  11.4426  11.9851  14.0419  15.6303  21.9570  30.0812
    30.9549  32.7370

          k = 0.6364-0.2727 0.6364 (  1795 PWs)   bands (ev):

     9.3450  10.7892  11.8572  11.9987  13.9455  17.8024  19.1200  28.8914
    31.6389  32.3139

          k = 0.5455-0.1818 0.5455 (  1790 PWs)   bands (ev):

     9.4269  10.8748  11.8373  11.8490  13.4648  16.4481  21.1842  28.2489
    32.3745  33.2233

          k = 0.4545-0.0909 0.4545 (  1799 PWs)   bands (ev):

     9.3741  10.8901  11.2603  11.9491  12.7939  15.0349  24.4926  28.3300
    33.0304  35.4966

          k = 0.3636 0.0000 0.3636 (  1797 PWs)   bands (ev):

     8.6494  10.6569  11.4663  12.1478  12.1841  14.0014  27.5031  29.4041
    34.2805  36.0123

          k = 0.0000 0.5455 0.0000 (  1800 PWs)   bands (ev):

     8.7666   9.9938  12.0647  12.7185  12.7185  13.4285  30.2779  30.2779
    31.4829  32.6289

          k =-0.0909 0.6364-0.0909 (  1783 PWs)   bands (ev):

     9.1879   9.8226  12.0551  12.8856  13.7663  13.8434  27.0616  29.2444
    29.5188  33.3999

          k =-0.1818 0.7273-0.1818 (  1780 PWs)   bands (ev):

     9.4026  10.0225  11.8658  12.7469  14.0861  15.8456  23.4483  27.8087
    28.9699  33.5038

          k = 0.7273-0.1818 0.7273 (  1789 PWs)   bands (ev):

     9.5576  10.3895  11.7099  12.5636  14.0046  18.3815  20.3884  26.2546
    29.6346  33.2609

          k = 0.6364-0.0909 0.6364 (  1789 PWs)   bands (ev):

     9.8202  10.6738  11.4180  12.4144  13.5470  18.0244  21.3474  25.0789
    31.1795  33.0439

          k = 0.5455 0.0000 0.5455 (  1792 PWs)   bands (ev):

    10.0016  10.8514  10.9615  12.2692  13.0047  16.3802  23.9498  25.1955
    32.9882  33.2953

          k = 0.0000 0.7273 0.0000 (  1760 PWs)   bands (ev):

     9.0806   9.5022  13.5914  13.5914  13.7008  13.7360  26.6257  27.8686
    27.8686  32.7953

          k =-0.0909 0.8182-0.0909 (  1770 PWs)   bands (ev):

     9.1148   9.4431  13.2289  13.5339  14.1148  15.8679  24.0068  26.3930
    27.3099  33.6397

          k = 0.8182-0.0909 0.8182 (  1777 PWs)   bands (ev):

     9.2838   9.7271  12.6586  13.3141  14.1104  18.4540  21.5342  24.6271
    27.7886  33.9699

          k = 0.7273 0.0000 0.7273 (  1786 PWs)   bands (ev):

     9.5693  10.2545  11.9263  12.9647  13.7951  19.5244  21.1396  23.2998
    29.2036  33.6392

          k = 0.0000 0.9091 0.0000 (  1764 PWs)   bands (ev):

     8.9061   9.2275  13.9256  14.2284  14.2284  16.3344  22.6093  26.4052
    26.4052  33.1469

          k = 0.9091-0.0000 0.9091 (  1772 PWs)   bands (ev):

     8.9935   9.3060  13.7478  13.8021  14.2611  17.7761  21.5703  25.4270
    26.5817  33.8260

          k =-0.1818 0.3636 0.0000 (  1792 PWs)   bands (ev):

     7.8262  10.6360  11.6422  11.9519  12.3622  13.2687  29.9497  31.2665
    34.4691  34.9351

          k =-0.2727 0.4545-0.0909 (  1799 PWs)   bands (ev):

     8.7602  10.6130  11.3609  12.0377  12.7717  13.9460  26.7199  30.3211
    33.1522  35.4920

          k =-0.3636 0.5455-0.1818 (  1795 PWs)   bands (ev):

     9.1991  11.0563  11.2845  11.8941  13.4713  15.0174  23.1095  29.9157
    31.7362  34.5513

          k = 0.5455-0.3636 0.7273 (  1783 PWs)   bands (ev):

     9.2228  10.8747  11.7205  12.1503  13.8669  16.7466  19.9053  30.0221
    30.6958  33.5139

          k =-0.1818 0.5455 0.0000 (  1795 PWs)   bands (ev):

     9.0402  10.1267  11.4748  12.7123  12.8692  13.9260  27.9054  29.2738
    31.6089  35.1330

          k =-0.2727 0.6364-0.0909 (  1798 PWs)   bands (ev):

     9.5553  10.2661  11.2109  12.6354  13.5516  15.1674  24.6318  28.2932
    29.9910  34.8428

          k = 0.6364-0.2727 0.8182 (  1790 PWs)   bands (ev):

     9.6632  10.5537  11.3097  12.4208  13.9135  17.1358  21.3230  27.8941
    29.0021  34.3662

          k = 0.5455-0.1818 0.7273 (  1787 PWs)   bands (ev):

     9.7886  10.5406  11.5349  12.2557  13.8050  18.5641  19.7321  27.0039
    29.5578  34.3152

          k = 0.4545-0.0909 0.6364 (  1787 PWs)   bands (ev):

     9.9241  10.6763  11.0288  12.3513  13.3641  16.5252  22.7456  26.5223
    30.7477  35.0290

          k = 0.3636 0.0000 0.5455 (  1801 PWs)   bands (ev):

     9.6649  10.4737  11.0097  12.4777  12.7490  15.0811  25.5039  27.3307
    32.0076  36.4698

          k =-0.1818 0.7273 0.0000 (  1783 PWs)   bands (ev):

     9.3593   9.6873  12.1645  13.5235  13.5854  15.2573  25.3817  27.1340
    28.0629  34.6708

          k = 0.7273-0.1818 0.9091 (  1787 PWs)   bands (ev):

     9.5199   9.8978  11.9312  13.1955  14.0238  17.3642  22.7004  25.8125
    27.3470  35.1107

          k = 0.6364-0.0909 0.8182 (  1789 PWs)   bands (ev):

     9.7379  10.3040  11.5862  12.8195  13.9643  19.6062  20.6200  24.3678
    28.0327  35.0025

          k = 0.5455 0.0000 0.7273 (  1789 PWs)   bands (ev):

    10.0754  10.6093  11.0465  12.6071  13.6075  18.1074  23.1828  23.2308
    29.3823  35.0180

          k = 0.8182-0.0909 1.0000 (  1777 PWs)   bands (ev):

     9.1614   9.4392  13.0767  13.6884  14.2278  17.6017  22.2880  25.7677
    26.1151  34.7752

          k = 0.7273 0.0000 0.9091 (  1785 PWs)   bands (ev):

     9.4056   9.7636  12.4292  13.2783  14.2215  19.6525  20.9210  24.1904
    26.6487  35.3601

          k = 0.6364-0.2727 1.0000 (  1792 PWs)   bands (ev):

    10.0648  10.2261  10.9548  12.9812  13.5772  16.7781  23.8480  25.3787
    28.5420  36.8927

          k = 0.5455-0.1818 0.9091 (  1798 PWs)   bands (ev):

    10.1606  10.3922  10.9947  12.6903  13.9378  18.7613  21.5425  24.9452
    27.3916  36.6107

          k = 0.6364-0.0909 1.0000 (  1783 PWs)   bands (ev):

     9.7668  10.0681  11.6179  12.9939  14.2256  19.3261  22.0432  24.1152
    25.8909  37.7303

          k = 0.5455 0.0000 0.9091 (  1785 PWs)   bands (ev):

     9.9793  10.5083  11.0896  12.6898  14.2222  20.2623  21.9350  22.9198
    26.1024  37.7225

     the Fermi energy is    16.0122 ev

!    total energy              =    -775.13770286 Ry
     Harris-Foulkes estimate   =    -775.13770287 Ry
     estimated scf accuracy    <          6.4E-09 Ry

     total all-electron energy =    -38023.983794 Ry

     The total energy is the sum of the following terms:

     one-electron contribution =      13.83129988 Ry
     hartree contribution      =       7.62953740 Ry
     xc contribution           =     -32.12007947 Ry
     ewald contribution        =     -71.95438534 Ry
     one-center paw contrib.   =    -692.52396573 Ry
     smearing contrib. (-TS)   =      -0.00010960 Ry

     convergence has been achieved in   8 iterations

     Forces acting on atoms (cartesian axes, Ry/au):

     atom    1 type  1   force =     0.00000000    0.00000000    0.00000000

     Total force =     0.000000     Total SCF correction =     0.000000


     Computing stress (Cartesian axis) and pressure

          total   stress  (Ry/bohr**3)                   (kbar)     P=  101.32
   0.00068873   0.00000000   0.00000000        101.32      0.00      0.00
   0.00000000   0.00068873  -0.00000000          0.00    101.32     -0.00
   0.00000000  -0.00000000   0.00068873          0.00     -0.00    101.32


     Writing output data file Au.save/

     init_run     :      0.66s CPU      0.69s WALL (       1 calls)
     electrons    :      9.99s CPU     10.58s WALL (       1 calls)
     forces       :      0.10s CPU      0.10s WALL (       1 calls)
     stress       :      0.35s CPU      0.35s WALL (       1 calls)

     Called by init_run:
     wfcinit      :      0.29s CPU      0.31s WALL (       1 calls)
     potinit      :      0.11s CPU      0.12s WALL (       1 calls)
     hinit0       :      0.22s CPU      0.22s WALL (       1 calls)

     Called by electrons:
     c_bands      :      7.56s CPU      8.02s WALL (       9 calls)
     sum_band     :      1.43s CPU      1.53s WALL (       9 calls)
     v_of_rho     :      0.08s CPU      0.09s WALL (       9 calls)
     newd         :      0.12s CPU      0.13s WALL (       9 calls)
     PAW_pot      :      0.90s CPU      0.93s WALL (       9 calls)
     mix_rho      :      0.01s CPU      0.01s WALL (       9 calls)

     Called by c_bands:
     init_us_2    :      0.23s CPU      0.24s WALL (    1176 calls)
     cegterg      :      7.23s CPU      7.69s WALL (     504 calls)

     Called by sum_band:
     sum_band:bec :      0.01s CPU      0.01s WALL (     504 calls)
     addusdens    :      0.12s CPU      0.12s WALL (       9 calls)

     Called by *egterg:
     h_psi        :      5.95s CPU      6.37s WALL (    1854 calls)
     s_psi        :      0.18s CPU      0.19s WALL (    1854 calls)
     g_psi        :      0.02s CPU      0.02s WALL (    1294 calls)
     cdiaghg      :      0.43s CPU      0.44s WALL (    1742 calls)

     Called by h_psi:
     h_psi:pot    :      5.92s CPU      6.34s WALL (    1854 calls)
     h_psi:calbec :      0.26s CPU      0.28s WALL (    1854 calls)
     vloc_psi     :      5.46s CPU      5.85s WALL (    1854 calls)
     add_vuspsi   :      0.19s CPU      0.20s WALL (    1854 calls)

     General routines
     calbec       :      0.40s CPU      0.43s WALL (    2638 calls)
     fft          :      0.05s CPU      0.05s WALL (     126 calls)
     ffts         :      0.00s CPU      0.00s WALL (       9 calls)
     fftw         :      6.09s CPU      6.53s WALL (   32158 calls)

     Parallel routines
     fft_scatt_xy :      0.51s CPU      0.55s WALL (   32293 calls)
     fft_scatt_yz :      1.43s CPU      1.55s WALL (   32293 calls)

     PWSCF        :    12.03s CPU        12.77s WALL


   This run was terminated on:  12:41:39  26Mar2024            

=------------------------------------------------------------------------------=
   JOB DONE.
=------------------------------------------------------------------------------=
