
     Program PWSCF v.6.3MaX starts on 26Mar2024 at 11:37:19 

     This program is part of the open-source Quantum ESPRESSO suite
     for quantum simulation of materials; please cite
         "P. Giannozzi et al., J. Phys.:Condens. Matter 21 395502 (2009);
         "P. Giannozzi et al., J. Phys.:Condens. Matter 29 465901 (2017);
          URL http://www.quantum-espresso.org", 
     in publications or presentations arising from this work. More details at
     http://www.quantum-espresso.org/quote

     Parallel version (MPI), running on     5 processors

     MPI processes distributed on     1 nodes
     R & G space division:  proc/nbgrp/npool/nimage =       5
     Waiting for input...
     Reading input from standard input

     Current dimensions of program PWSCF are:
     Max number of different atomic species (ntypx) = 10
     Max number of k-points (npk) =  40000
     Max angular momentum in pseudopotentials (lmaxx) =  3

     Subspace diagonalization in iterative solution of the eigenvalue problem:
     a serial algorithm will be used


     Parallelization info
     --------------------
     sticks:   dense  smooth     PW     G-vecs:    dense   smooth      PW
     Min          73      73     17                  928      928     112
     Max          74      74     19                  930      930     113
     Sum         367     367     91                 4645     4645     561



     bravais-lattice index     =            2
     lattice parameter (alat)  =       7.7100  a.u.
     unit-cell volume          =     114.5785 (a.u.)^3
     number of atoms/cell      =            1
     number of atomic types    =            1
     number of electrons       =        11.00
     number of Kohn-Sham states=           10
     kinetic-energy cutoff     =      45.0000  Ry
     charge density cutoff     =     180.0000  Ry
     convergence threshold     =      1.0E-08
     mixing beta               =       0.7000
     number of iterations used =            8  plain     mixing
     Exchange-correlation      = PBESOL ( 1  4 10  8 0 0)

     celldm(1)=   7.710000  celldm(2)=   0.000000  celldm(3)=   0.000000
     celldm(4)=   0.000000  celldm(5)=   0.000000  celldm(6)=   0.000000

     crystal axes: (cart. coord. in units of alat)
               a(1) = (  -0.500000   0.000000   0.500000 )  
               a(2) = (   0.000000   0.500000   0.500000 )  
               a(3) = (  -0.500000   0.500000   0.000000 )  

     reciprocal axes: (cart. coord. in units 2 pi/alat)
               b(1) = ( -1.000000 -1.000000  1.000000 )  
               b(2) = (  1.000000  1.000000  1.000000 )  
               b(3) = ( -1.000000  1.000000 -1.000000 )  


     PseudoPot. # 1 for Au read from file:
     /home/lorenzo/pseudos/Au/Au.pbesol-n-rrkjus_psl.1.0.0.UPF
     MD5 check sum: 09626e9411213730b9a56fcc59c03ca8
     Pseudo is Ultrasoft + core correction, Zval = 11.0
     Generated using "atomic" code by A. Dal Corso v.6.3
     Using radial grid of 1279 points,  6 beta functions with: 
                l(1) =   0
                l(2) =   0
                l(3) =   1
                l(4) =   1
                l(5) =   2
                l(6) =   2
     Q(r) pseudized with 0 coefficients 


     atomic species   valence    mass     pseudopotential
        Au            11.00   196.96600     Au( 1.00)

     48 Sym. Ops., with inversion, found



   Cartesian axes

     site n.     atom                  positions (alat units)
         1           Au  tau(   1) = (   0.0000000   0.0000000   0.0000000  )

     number of k points=     1  gaussian smearing, width (Ry)=  0.0100
                       cart. coord. in units 2pi/alat
        k(    1) = (   0.0000000   0.0000000   0.0000000), wk =   2.0000000

     Dense  grid:     4645 G-vectors     FFT dimensions: (  24,  24,  24)

     Estimated max dynamical RAM per process >       4.81 MB

     Estimated total dynamical RAM >      24.04 MB

     Initial potential from superposition of free atoms

     starting charge   10.99990, renormalised to   11.00000
     Starting wfcs are    9 randomized atomic wfcs +    1 random wfcs

     total cpu time spent up to now is        1.0 secs

     Self-consistent Calculation

     iteration #  1     ecut=    45.00 Ry     beta= 0.70
     Davidson diagonalization with overlap
     ethr =  1.00E-02,  avg # of iterations = 11.0

     Threshold (ethr) on eigenvalues was too large:
     Diagonalizing with lowered threshold

     Davidson diagonalization with overlap
     ethr =  9.43E-04,  avg # of iterations =  1.0

     total cpu time spent up to now is        1.1 secs

     total energy              =     -86.05345710 Ry
     Harris-Foulkes estimate   =     -86.04432176 Ry
     estimated scf accuracy    <       0.10399364 Ry

     iteration #  2     ecut=    45.00 Ry     beta= 0.70
     Davidson diagonalization with overlap
     ethr =  9.45E-04,  avg # of iterations =  5.0

     total cpu time spent up to now is        1.1 secs

     total energy              =     -38.05681530 Ry
     Harris-Foulkes estimate   =    -576.21274207 Ry
     estimated scf accuracy    <  161525.02995734 Ry

     iteration #  3     ecut=    45.00 Ry     beta= 0.70
     Davidson diagonalization with overlap
     ethr =  9.45E-04,  avg # of iterations =  4.0

     total cpu time spent up to now is        1.1 secs

     total energy              =     -86.00441214 Ry
     Harris-Foulkes estimate   =     -86.00786229 Ry
     estimated scf accuracy    <       0.00962678 Ry

     iteration #  4     ecut=    45.00 Ry     beta= 0.70
     Davidson diagonalization with overlap
     ethr =  8.75E-05,  avg # of iterations =  2.0

     total cpu time spent up to now is        1.2 secs

     total energy              =     -86.00537259 Ry
     Harris-Foulkes estimate   =     -86.00551374 Ry
     estimated scf accuracy    <       0.00309693 Ry

     iteration #  5     ecut=    45.00 Ry     beta= 0.70
     Davidson diagonalization with overlap
     ethr =  2.82E-05,  avg # of iterations = 12.0

     total cpu time spent up to now is        1.2 secs

     total energy              =     -86.00544270 Ry
     Harris-Foulkes estimate   =     -86.00545918 Ry
     estimated scf accuracy    <       0.00223012 Ry

     iteration #  6     ecut=    45.00 Ry     beta= 0.70
     Davidson diagonalization with overlap
     ethr =  2.03E-05,  avg # of iterations =  8.0

     total cpu time spent up to now is        1.2 secs

     total energy              =     -86.00541891 Ry
     Harris-Foulkes estimate   =     -86.00547620 Ry
     estimated scf accuracy    <       0.00180138 Ry

     iteration #  7     ecut=    45.00 Ry     beta= 0.70
     Davidson diagonalization with overlap
     ethr =  1.64E-05,  avg # of iterations =  1.0

     total cpu time spent up to now is        1.2 secs

     total energy              =     -86.00541239 Ry
     Harris-Foulkes estimate   =     -86.00542609 Ry
     estimated scf accuracy    <       0.00173430 Ry

     iteration #  8     ecut=    45.00 Ry     beta= 0.70
     Davidson diagonalization with overlap
     ethr =  1.58E-05,  avg # of iterations =  1.0

     total cpu time spent up to now is        1.3 secs

     total energy              =     -86.00542360 Ry
     Harris-Foulkes estimate   =     -86.00541430 Ry
     estimated scf accuracy    <       0.00169915 Ry

     iteration #  9     ecut=    45.00 Ry     beta= 0.70
     Davidson diagonalization with overlap
     ethr =  1.54E-05,  avg # of iterations =  1.0

     total cpu time spent up to now is        1.3 secs

     total energy              =     -86.00541990 Ry
     Harris-Foulkes estimate   =     -86.00542420 Ry
     estimated scf accuracy    <       0.00167815 Ry

     iteration # 10     ecut=    45.00 Ry     beta= 0.70
     Davidson diagonalization with overlap
     ethr =  1.53E-05,  avg # of iterations =  1.0

     total cpu time spent up to now is        1.3 secs

     total energy              =     -86.00540720 Ry
     Harris-Foulkes estimate   =     -86.00542021 Ry
     estimated scf accuracy    <       0.00165290 Ry

     iteration # 11     ecut=    45.00 Ry     beta= 0.70
     Davidson diagonalization with overlap
     ethr =  1.50E-05,  avg # of iterations =  1.0

     total cpu time spent up to now is        1.3 secs

     total energy              =     -86.00519812 Ry
     Harris-Foulkes estimate   =     -86.00540754 Ry
     estimated scf accuracy    <       0.00162561 Ry

     iteration # 12     ecut=    45.00 Ry     beta= 0.70
     Davidson diagonalization with overlap
     ethr =  1.48E-05,  avg # of iterations =  1.0

     total cpu time spent up to now is        1.3 secs

     total energy              =     -86.00446580 Ry
     Harris-Foulkes estimate   =     -86.00524286 Ry
     estimated scf accuracy    <       0.00131724 Ry

     iteration # 13     ecut=    45.00 Ry     beta= 0.70
     Davidson diagonalization with overlap
     ethr =  1.20E-05,  avg # of iterations =  2.0

     total cpu time spent up to now is        1.4 secs

     total energy              =     -86.00413810 Ry
     Harris-Foulkes estimate   =     -86.00466320 Ry
     estimated scf accuracy    <       0.00056734 Ry

     iteration # 14     ecut=    45.00 Ry     beta= 0.70
     Davidson diagonalization with overlap
     ethr =  5.16E-06,  avg # of iterations =  6.0

     total cpu time spent up to now is        1.4 secs

     total energy              =     -86.00426579 Ry
     Harris-Foulkes estimate   =     -86.00451427 Ry
     estimated scf accuracy    <       0.00113909 Ry

     iteration # 15     ecut=    45.00 Ry     beta= 0.70
     Davidson diagonalization with overlap
     ethr =  5.16E-06,  avg # of iterations =  3.0

     total cpu time spent up to now is        1.4 secs

     total energy              =     -86.00503972 Ry
     Harris-Foulkes estimate   =     -86.00452667 Ry
     estimated scf accuracy    <       0.00038619 Ry

     iteration # 16     ecut=    45.00 Ry     beta= 0.70
     Davidson diagonalization with overlap
     ethr =  3.51E-06,  avg # of iterations =  4.0

     total cpu time spent up to now is        1.4 secs

     total energy              =     -86.00696263 Ry
     Harris-Foulkes estimate   =     -86.00704774 Ry
     estimated scf accuracy    <       0.00731583 Ry

     iteration # 17     ecut=    45.00 Ry     beta= 0.70
     Davidson diagonalization with overlap
     ethr =  3.51E-06,  avg # of iterations =  3.0

     total cpu time spent up to now is        1.5 secs

     total energy              =     -86.01457694 Ry
     Harris-Foulkes estimate   =     -86.00698223 Ry
     estimated scf accuracy    <       0.00707196 Ry

     iteration # 18     ecut=    45.00 Ry     beta= 0.70
     Davidson diagonalization with overlap
     ethr =  3.51E-06,  avg # of iterations = 15.0

     total cpu time spent up to now is        1.5 secs

     total energy              =     -85.96218464 Ry
     Harris-Foulkes estimate   =     -86.02607703 Ry
     estimated scf accuracy    <       0.41334562 Ry

     iteration # 19     ecut=    45.00 Ry     beta= 0.70
     Davidson diagonalization with overlap
     ethr =  3.51E-06,  avg # of iterations =  8.0

     total cpu time spent up to now is        1.5 secs

     total energy              =     -86.00481976 Ry
     Harris-Foulkes estimate   =     -86.00502685 Ry
     estimated scf accuracy    <       0.00146146 Ry

     iteration # 20     ecut=    45.00 Ry     beta= 0.70
     Davidson diagonalization with overlap
     ethr =  3.51E-06,  avg # of iterations =  1.0

     total cpu time spent up to now is        1.6 secs

     total energy              =     -86.00465145 Ry
     Harris-Foulkes estimate   =     -86.00483268 Ry
     estimated scf accuracy    <       0.00111688 Ry

     iteration # 21     ecut=    45.00 Ry     beta= 0.70
     Davidson diagonalization with overlap
     ethr =  3.51E-06,  avg # of iterations =  1.0

     total cpu time spent up to now is        1.6 secs

     total energy              =     -86.00463985 Ry
     Harris-Foulkes estimate   =     -86.00467369 Ry
     estimated scf accuracy    <       0.00078028 Ry

     iteration # 22     ecut=    45.00 Ry     beta= 0.70
     Davidson diagonalization with overlap
     ethr =  3.51E-06,  avg # of iterations =  1.0

     total cpu time spent up to now is        1.6 secs

     total energy              =     -86.00461590 Ry
     Harris-Foulkes estimate   =     -86.00464557 Ry
     estimated scf accuracy    <       0.00074501 Ry

     iteration # 23     ecut=    45.00 Ry     beta= 0.70
     Davidson diagonalization with overlap
     ethr =  3.51E-06,  avg # of iterations =  1.0

     total cpu time spent up to now is        1.6 secs

     total energy              =     -86.00428468 Ry
     Harris-Foulkes estimate   =     -86.00461975 Ry
     estimated scf accuracy    <       0.00067018 Ry

     iteration # 24     ecut=    45.00 Ry     beta= 0.70
     Davidson diagonalization with overlap
     ethr =  3.51E-06,  avg # of iterations =  2.0

     total cpu time spent up to now is        1.6 secs

     total energy              =     -86.00372702 Ry
     Harris-Foulkes estimate   =     -86.00432994 Ry
     estimated scf accuracy    <       0.00041810 Ry

     iteration # 25     ecut=    45.00 Ry     beta= 0.70
     Davidson diagonalization with overlap
     ethr =  3.51E-06,  avg # of iterations =  9.0

     total cpu time spent up to now is        1.7 secs

     total energy              =     -86.00124455 Ry
     Harris-Foulkes estimate   =     -86.00451611 Ry
     estimated scf accuracy    <       0.00965394 Ry

     iteration # 26     ecut=    45.00 Ry     beta= 0.70
     Davidson diagonalization with overlap
     ethr =  3.51E-06,  avg # of iterations =  4.0

     total cpu time spent up to now is        1.7 secs

     total energy              =     -86.00476609 Ry
     Harris-Foulkes estimate   =     -86.00461089 Ry
     estimated scf accuracy    <       0.00056474 Ry

     iteration # 27     ecut=    45.00 Ry     beta= 0.70
     Davidson diagonalization with overlap
     ethr =  3.51E-06,  avg # of iterations =  3.0

     total cpu time spent up to now is        1.7 secs

     total energy              =     -86.00468841 Ry
     Harris-Foulkes estimate   =     -86.00478116 Ry
     estimated scf accuracy    <       0.00079925 Ry

     iteration # 28     ecut=    45.00 Ry     beta= 0.70
     Davidson diagonalization with overlap
     ethr =  3.51E-06,  avg # of iterations =  3.0

     total cpu time spent up to now is        1.8 secs

     total energy              =     -86.00462910 Ry
     Harris-Foulkes estimate   =     -86.00472905 Ry
     estimated scf accuracy    <       0.00124817 Ry

     iteration # 29     ecut=    45.00 Ry     beta= 0.70
     Davidson diagonalization with overlap
     ethr =  3.51E-06,  avg # of iterations =  3.0

     total cpu time spent up to now is        1.8 secs

     total energy              =     -86.00463282 Ry
     Harris-Foulkes estimate   =     -86.00463458 Ry
     estimated scf accuracy    <       0.00109562 Ry

     iteration # 30     ecut=    45.00 Ry     beta= 0.70
     Davidson diagonalization with overlap
     ethr =  3.51E-06,  avg # of iterations =  1.0

     total cpu time spent up to now is        1.8 secs

     total energy              =     -86.00464003 Ry
     Harris-Foulkes estimate   =     -86.00463299 Ry
     estimated scf accuracy    <       0.00110000 Ry

     iteration # 31     ecut=    45.00 Ry     beta= 0.70
     Davidson diagonalization with overlap
     ethr =  3.51E-06,  avg # of iterations =  2.0

     total cpu time spent up to now is        1.8 secs

     total energy              =     -86.00468671 Ry
     Harris-Foulkes estimate   =     -86.00464008 Ry
     estimated scf accuracy    <       0.00108038 Ry

     iteration # 32     ecut=    45.00 Ry     beta= 0.70
     Davidson diagonalization with overlap
     ethr =  3.51E-06,  avg # of iterations =  2.0

     total cpu time spent up to now is        1.9 secs

     total energy              =     -86.00466538 Ry
     Harris-Foulkes estimate   =     -86.00468809 Ry
     estimated scf accuracy    <       0.00107598 Ry

     iteration # 33     ecut=    45.00 Ry     beta= 0.70
     Davidson diagonalization with overlap
     ethr =  3.51E-06,  avg # of iterations =  2.0

     total cpu time spent up to now is        1.9 secs

     total energy              =     -86.00434226 Ry
     Harris-Foulkes estimate   =     -86.00466557 Ry
     estimated scf accuracy    <       0.00105678 Ry

     iteration # 34     ecut=    45.00 Ry     beta= 0.70
     Davidson diagonalization with overlap
     ethr =  3.51E-06,  avg # of iterations =  4.0

     total cpu time spent up to now is        1.9 secs

     total energy              =     -86.00342910 Ry
     Harris-Foulkes estimate   =     -86.00438627 Ry
     estimated scf accuracy    <       0.00053808 Ry

     iteration # 35     ecut=    45.00 Ry     beta= 0.70
     Davidson diagonalization with overlap
     ethr =  3.51E-06,  avg # of iterations =  4.0

     total cpu time spent up to now is        1.9 secs

     total energy              =     -77.43761538 Ry
     Harris-Foulkes estimate   =     -87.73534304 Ry
     estimated scf accuracy    <   77943.05205907 Ry

     iteration # 36     ecut=    45.00 Ry     beta= 0.70
     Davidson diagonalization with overlap
     ethr =  3.51E-06,  avg # of iterations =  4.0

     total cpu time spent up to now is        2.0 secs

     total energy              =     -86.00427937 Ry
     Harris-Foulkes estimate   =     -86.00421652 Ry
     estimated scf accuracy    <       0.00009474 Ry

     iteration # 37     ecut=    45.00 Ry     beta= 0.70
     Davidson diagonalization with overlap
     ethr =  8.61E-07,  avg # of iterations =  4.0

     total cpu time spent up to now is        2.0 secs

     total energy              =     -86.00426272 Ry
     Harris-Foulkes estimate   =     -86.00431097 Ry
     estimated scf accuracy    <       0.00027020 Ry

     iteration # 38     ecut=    45.00 Ry     beta= 0.70
     Davidson diagonalization with overlap
     ethr =  8.61E-07,  avg # of iterations =  3.0

     total cpu time spent up to now is        2.0 secs

     total energy              =     -86.00427482 Ry
     Harris-Foulkes estimate   =     -86.00426567 Ry
     estimated scf accuracy    <       0.00020183 Ry

     iteration # 39     ecut=    45.00 Ry     beta= 0.70
     Davidson diagonalization with overlap
     ethr =  8.61E-07,  avg # of iterations =  2.0

     total cpu time spent up to now is        2.0 secs

     total energy              =     -86.00413853 Ry
     Harris-Foulkes estimate   =     -86.00427506 Ry
     estimated scf accuracy    <       0.00021651 Ry

     iteration # 40     ecut=    45.00 Ry     beta= 0.70
     Davidson diagonalization with overlap
     ethr =  8.61E-07,  avg # of iterations =  3.0

     total cpu time spent up to now is        2.1 secs

     total energy              =     -86.00414552 Ry
     Harris-Foulkes estimate   =     -86.00417372 Ry
     estimated scf accuracy    <       0.00004934 Ry

     iteration # 41     ecut=    45.00 Ry     beta= 0.70
     Davidson diagonalization with overlap
     ethr =  4.49E-07,  avg # of iterations =  2.0

     total cpu time spent up to now is        2.1 secs

     total energy              =     -86.00415858 Ry
     Harris-Foulkes estimate   =     -86.00414708 Ry
     estimated scf accuracy    <       0.00002841 Ry

     iteration # 42     ecut=    45.00 Ry     beta= 0.70
     Davidson diagonalization with overlap
     ethr =  2.58E-07,  avg # of iterations =  2.0

     total cpu time spent up to now is        2.1 secs

     total energy              =     -86.00416467 Ry
     Harris-Foulkes estimate   =     -86.00416042 Ry
     estimated scf accuracy    <       0.00005272 Ry

     iteration # 43     ecut=    45.00 Ry     beta= 0.70
     Davidson diagonalization with overlap
     ethr =  2.58E-07,  avg # of iterations =  2.0

     total cpu time spent up to now is        2.1 secs

     total energy              =     -86.00414200 Ry
     Harris-Foulkes estimate   =     -86.00416693 Ry
     estimated scf accuracy    <       0.00009572 Ry

     iteration # 44     ecut=    45.00 Ry     beta= 0.70
     Davidson diagonalization with overlap
     ethr =  2.58E-07,  avg # of iterations =  2.0

     total cpu time spent up to now is        2.1 secs

     total energy              =     -86.00410652 Ry
     Harris-Foulkes estimate   =     -86.00414510 Ry
     estimated scf accuracy    <       0.00004375 Ry

     iteration # 45     ecut=    45.00 Ry     beta= 0.70
     Davidson diagonalization with overlap
     ethr =  2.58E-07,  avg # of iterations =  3.0

     total cpu time spent up to now is        2.2 secs

     total energy              =     -86.00411553 Ry
     Harris-Foulkes estimate   =     -86.00412440 Ry
     estimated scf accuracy    <       0.00000508 Ry

     iteration # 46     ecut=    45.00 Ry     beta= 0.70
     Davidson diagonalization with overlap
     ethr =  4.62E-08,  avg # of iterations =  3.0

     total cpu time spent up to now is        2.2 secs

     total energy              =     -86.00411945 Ry
     Harris-Foulkes estimate   =     -86.00413826 Ry
     estimated scf accuracy    <       0.00008225 Ry

     iteration # 47     ecut=    45.00 Ry     beta= 0.70
     Davidson diagonalization with overlap
     ethr =  4.62E-08,  avg # of iterations =  2.0

     total cpu time spent up to now is        2.2 secs

     total energy              =     -86.00412326 Ry
     Harris-Foulkes estimate   =     -86.00412523 Ry
     estimated scf accuracy    <       0.00001003 Ry

     iteration # 48     ecut=    45.00 Ry     beta= 0.70
     Davidson diagonalization with overlap
     ethr =  4.62E-08,  avg # of iterations =  2.0

     total cpu time spent up to now is        2.3 secs

     total energy              =     -86.00412363 Ry
     Harris-Foulkes estimate   =     -86.00412389 Ry
     estimated scf accuracy    <       0.00000140 Ry

     iteration # 49     ecut=    45.00 Ry     beta= 0.70
     Davidson diagonalization with overlap
     ethr =  1.28E-08,  avg # of iterations =  2.0

     total cpu time spent up to now is        2.3 secs

     total energy              =     -86.00412372 Ry
     Harris-Foulkes estimate   =     -86.00412374 Ry
     estimated scf accuracy    <       0.00000011 Ry

     iteration # 50     ecut=    45.00 Ry     beta= 0.70
     Davidson diagonalization with overlap
     ethr =  9.76E-10,  avg # of iterations =  3.0

     total cpu time spent up to now is        2.3 secs

     End of self-consistent calculation

          k = 0.0000 0.0000 0.0000 (   561 PWs)   bands (ev):

     5.8779  10.6514  10.6514  10.6514  12.0017  12.0017  20.6237  20.6237
    20.6237  31.5682

     the Fermi energy is    12.0666 ev

!    total energy              =     -86.00412375 Ry
     Harris-Foulkes estimate   =     -86.00412374 Ry
     estimated scf accuracy    <          5.3E-10 Ry

     The total energy is the sum of the following terms:

     one-electron contribution =      10.40561932 Ry
     hartree contribution      =       7.19117857 Ry
     xc contribution           =     -31.63754813 Ry
     ewald contribution        =     -71.95438543 Ry
     smearing contrib. (-TS)   =      -0.00898808 Ry

     convergence has been achieved in  50 iterations

     Forces acting on atoms (cartesian axes, Ry/au):

     atom    1 type  1   force =     0.00000000    0.00000000    0.00000000

     Total force =     0.000000     Total SCF correction =     0.000000


     Computing stress (Cartesian axis) and pressure

          total   stress  (Ry/bohr**3)                   (kbar)     P= -956.58
  -0.00650269   0.00000000  -0.00000000       -956.58      0.00     -0.00
   0.00000000  -0.00650269  -0.00000000          0.00   -956.58     -0.00
   0.00000000  -0.00000000  -0.00650269          0.00     -0.00   -956.58


     Writing output data file Au.save/

     init_run     :      0.16s CPU      0.17s WALL (       1 calls)
     electrons    :      1.24s CPU      1.29s WALL (       1 calls)
     forces       :      0.02s CPU      0.02s WALL (       1 calls)
     stress       :      0.07s CPU      0.07s WALL (       1 calls)

     Called by init_run:
     wfcinit      :      0.00s CPU      0.00s WALL (       1 calls)
     potinit      :      0.01s CPU      0.01s WALL (       1 calls)
     hinit0       :      0.15s CPU      0.15s WALL (       1 calls)

     Called by electrons:
     c_bands      :      0.40s CPU      0.42s WALL (      51 calls)
     sum_band     :      0.36s CPU      0.37s WALL (      51 calls)
     v_of_rho     :      0.17s CPU      0.17s WALL (      51 calls)
     newd         :      0.27s CPU      0.27s WALL (      51 calls)
     mix_rho      :      0.04s CPU      0.04s WALL (      51 calls)

     Called by c_bands:
     init_us_2    :      0.01s CPU      0.01s WALL (     103 calls)
     cegterg      :      0.37s CPU      0.39s WALL (      51 calls)

     Called by sum_band:
     sum_band:bec :      0.00s CPU      0.00s WALL (      51 calls)
     addusdens    :      0.25s CPU      0.25s WALL (      51 calls)

     Called by *egterg:
     h_psi        :      0.26s CPU      0.27s WALL (     224 calls)
     s_psi        :      0.01s CPU      0.01s WALL (     224 calls)
     g_psi        :      0.00s CPU      0.00s WALL (     172 calls)
     cdiaghg      :      0.06s CPU      0.06s WALL (     222 calls)

     Called by h_psi:
     h_psi:pot    :      0.26s CPU      0.27s WALL (     224 calls)
     h_psi:calbec :      0.02s CPU      0.02s WALL (     224 calls)
     vloc_psi     :      0.23s CPU      0.24s WALL (     224 calls)
     add_vuspsi   :      0.01s CPU      0.01s WALL (     224 calls)

     General routines
     calbec       :      0.02s CPU      0.02s WALL (     280 calls)
     fft          :      0.10s CPU      0.10s WALL (     588 calls)
     ffts         :      0.01s CPU      0.01s WALL (      51 calls)
     fftw         :      0.25s CPU      0.26s WALL (    3350 calls)

     Parallel routines
     fft_scatt_xy :      0.03s CPU      0.03s WALL (    3989 calls)
     fft_scatt_yz :      0.16s CPU      0.16s WALL (    3989 calls)

     PWSCF        :     2.36s CPU         2.45s WALL


   This run was terminated on:  11:37:22  26Mar2024            

=------------------------------------------------------------------------------=
   JOB DONE.
=------------------------------------------------------------------------------=
