
     Program PWSCF v.6.3MaX starts on 26Mar2024 at 11:21:29 

     This program is part of the open-source Quantum ESPRESSO suite
     for quantum simulation of materials; please cite
         "P. Giannozzi et al., J. Phys.:Condens. Matter 21 395502 (2009);
         "P. Giannozzi et al., J. Phys.:Condens. Matter 29 465901 (2017);
          URL http://www.quantum-espresso.org", 
     in publications or presentations arising from this work. More details at
     http://www.quantum-espresso.org/quote

     Parallel version (MPI), running on     5 processors

     MPI processes distributed on     1 nodes
     R & G space division:  proc/nbgrp/npool/nimage =       5
     Waiting for input...
     Reading input from standard input

     Current dimensions of program PWSCF are:
     Max number of different atomic species (ntypx) = 10
     Max number of k-points (npk) =  40000
     Max angular momentum in pseudopotentials (lmaxx) =  3
               file Au.pbe-n-kjpaw_psl.1.0.0.UPF: wavefunction(s)  6S 5D renormalized

     Subspace diagonalization in iterative solution of the eigenvalue problem:
     a serial algorithm will be used


     Parallelization info
     --------------------
     sticks:   dense  smooth     PW     G-vecs:    dense   smooth      PW
     Min          39      39     12                  381      381      67
     Max          40      40     13                  384      384      70
     Sum         199     199     61                 1917     1917     339



     bravais-lattice index     =            2
     lattice parameter (alat)  =       7.7100  a.u.
     unit-cell volume          =     114.5785 (a.u.)^3
     number of atoms/cell      =            1
     number of atomic types    =            1
     number of electrons       =        11.00
     number of Kohn-Sham states=           10
     kinetic-energy cutoff     =      25.0000  Ry
     charge density cutoff     =     100.0000  Ry
     convergence threshold     =      1.0E-08
     mixing beta               =       0.7000
     number of iterations used =            8  plain     mixing
     Exchange-correlation      = SLA PW PBX PBC ( 1  4  3  4 0 0)

     celldm(1)=   7.710000  celldm(2)=   0.000000  celldm(3)=   0.000000
     celldm(4)=   0.000000  celldm(5)=   0.000000  celldm(6)=   0.000000

     crystal axes: (cart. coord. in units of alat)
               a(1) = (  -0.500000   0.000000   0.500000 )  
               a(2) = (   0.000000   0.500000   0.500000 )  
               a(3) = (  -0.500000   0.500000   0.000000 )  

     reciprocal axes: (cart. coord. in units 2 pi/alat)
               b(1) = ( -1.000000 -1.000000  1.000000 )  
               b(2) = (  1.000000  1.000000  1.000000 )  
               b(3) = ( -1.000000  1.000000 -1.000000 )  


     PseudoPot. # 1 for Au read from file:
     /home/lorenzo/pseudos/Au/Au.pbe-n-kjpaw_psl.1.0.0.UPF
     MD5 check sum: 4db85c736373c707a97ce4c36c2a9d23
     Pseudo is Projector augmented-wave + core cor, Zval = 11.0
     Generated using "atomic" code by A. Dal Corso v.6.3
     Shape of augmentation charge: PSQ
     Using radial grid of 1279 points,  6 beta functions with: 
                l(1) =   0
                l(2) =   0
                l(3) =   1
                l(4) =   1
                l(5) =   2
                l(6) =   2
     Q(r) pseudized with 0 coefficients 


     atomic species   valence    mass     pseudopotential
        Au            11.00   196.96600     Au( 1.00)

     48 Sym. Ops., with inversion, found



   Cartesian axes

     site n.     atom                  positions (alat units)
         1           Au  tau(   1) = (   0.0000000   0.0000000   0.0000000  )

     number of k points=     3  gaussian smearing, width (Ry)=  0.0100
                       cart. coord. in units 2pi/alat
        k(    1) = (   0.0000000   0.0000000   0.0000000), wk =   0.2500000
        k(    2) = (   0.5000000  -0.5000000   0.5000000), wk =   1.0000000
        k(    3) = (   0.0000000  -1.0000000   0.0000000), wk =   0.7500000

     Dense  grid:     1917 G-vectors     FFT dimensions: (  18,  18,  18)

     Estimated max dynamical RAM per process >       2.44 MB

     Estimated total dynamical RAM >      12.22 MB

     Initial potential from superposition of free atoms

     starting charge   10.99989, renormalised to   11.00000
     Starting wfcs are    9 randomized atomic wfcs +    1 random wfcs
     Checking if some PAW data can be deallocated... 

     total cpu time spent up to now is        1.1 secs

     Self-consistent Calculation

     iteration #  1     ecut=    25.00 Ry     beta= 0.70
     Davidson diagonalization with overlap
     ethr =  1.00E-02,  avg # of iterations =  6.3

     Threshold (ethr) on eigenvalues was too large:
     Diagonalizing with lowered threshold

     Davidson diagonalization with overlap
     ethr =  3.34E-04,  avg # of iterations =  1.7

     total cpu time spent up to now is        1.4 secs

     total energy              =    -774.86866768 Ry
     Harris-Foulkes estimate   =    -774.88656018 Ry
     estimated scf accuracy    <       0.03476501 Ry

     iteration #  2     ecut=    25.00 Ry     beta= 0.70
     Davidson diagonalization with overlap
     ethr =  3.16E-04,  avg # of iterations =  2.0

     total cpu time spent up to now is        1.6 secs

     total energy              =    -774.87973164 Ry
     Harris-Foulkes estimate   =    -774.89039351 Ry
     estimated scf accuracy    <       0.01966162 Ry

     iteration #  3     ecut=    25.00 Ry     beta= 0.70
     Davidson diagonalization with overlap
     ethr =  1.79E-04,  avg # of iterations =  2.0

     total cpu time spent up to now is        1.8 secs

     total energy              =    -774.88039870 Ry
     Harris-Foulkes estimate   =    -774.88187443 Ry
     estimated scf accuracy    <       0.00204474 Ry

     iteration #  4     ecut=    25.00 Ry     beta= 0.70
     Davidson diagonalization with overlap
     ethr =  1.86E-05,  avg # of iterations =  3.3

     total cpu time spent up to now is        2.0 secs

     total energy              =    -774.87953605 Ry
     Harris-Foulkes estimate   =    -774.88263983 Ry
     estimated scf accuracy    <       0.00801573 Ry

     iteration #  5     ecut=    25.00 Ry     beta= 0.70
     Davidson diagonalization with overlap
     ethr =  1.86E-05,  avg # of iterations =  2.0

     total cpu time spent up to now is        2.2 secs

     total energy              =    -774.88166970 Ry
     Harris-Foulkes estimate   =    -774.88175895 Ry
     estimated scf accuracy    <       0.00078088 Ry

     iteration #  6     ecut=    25.00 Ry     beta= 0.70
     Davidson diagonalization with overlap
     ethr =  7.10E-06,  avg # of iterations =  1.0

     total cpu time spent up to now is        2.4 secs

     total energy              =    -774.88154918 Ry
     Harris-Foulkes estimate   =    -774.88169416 Ry
     estimated scf accuracy    <       0.00051484 Ry

     iteration #  7     ecut=    25.00 Ry     beta= 0.70
     Davidson diagonalization with overlap
     ethr =  4.68E-06,  avg # of iterations =  1.0

     total cpu time spent up to now is        2.5 secs

     total energy              =    -774.88155144 Ry
     Harris-Foulkes estimate   =    -774.88157615 Ry
     estimated scf accuracy    <       0.00009597 Ry

     iteration #  8     ecut=    25.00 Ry     beta= 0.70
     Davidson diagonalization with overlap
     ethr =  8.72E-07,  avg # of iterations =  2.0

     total cpu time spent up to now is        2.7 secs

     total energy              =    -774.88156176 Ry
     Harris-Foulkes estimate   =    -774.88156131 Ry
     estimated scf accuracy    <       0.00001043 Ry

     iteration #  9     ecut=    25.00 Ry     beta= 0.70
     Davidson diagonalization with overlap
     ethr =  9.48E-08,  avg # of iterations =  1.0

     total cpu time spent up to now is        2.8 secs

     total energy              =    -774.88156134 Ry
     Harris-Foulkes estimate   =    -774.88156187 Ry
     estimated scf accuracy    <       0.00001276 Ry

     iteration # 10     ecut=    25.00 Ry     beta= 0.70
     Davidson diagonalization with overlap
     ethr =  9.48E-08,  avg # of iterations =  1.0

     total cpu time spent up to now is        3.0 secs

     total energy              =    -774.88155754 Ry
     Harris-Foulkes estimate   =    -774.88156138 Ry
     estimated scf accuracy    <       0.00000993 Ry

     iteration # 11     ecut=    25.00 Ry     beta= 0.70
     Davidson diagonalization with overlap
     ethr =  9.02E-08,  avg # of iterations =  1.0

     total cpu time spent up to now is        3.1 secs

     total energy              =    -774.88155950 Ry
     Harris-Foulkes estimate   =    -774.88155962 Ry
     estimated scf accuracy    <       0.00000057 Ry

     iteration # 12     ecut=    25.00 Ry     beta= 0.70
     Davidson diagonalization with overlap
     ethr =  5.14E-09,  avg # of iterations =  2.0

     total cpu time spent up to now is        3.2 secs

     total energy              =    -774.88155963 Ry
     Harris-Foulkes estimate   =    -774.88155964 Ry
     estimated scf accuracy    <       0.00000013 Ry

     iteration # 13     ecut=    25.00 Ry     beta= 0.70
     Davidson diagonalization with overlap
     ethr =  1.22E-09,  avg # of iterations =  1.3

     total cpu time spent up to now is        3.3 secs

     total energy              =    -774.88155962 Ry
     Harris-Foulkes estimate   =    -774.88155964 Ry
     estimated scf accuracy    <       0.00000013 Ry

     iteration # 14     ecut=    25.00 Ry     beta= 0.70
     Davidson diagonalization with overlap
     ethr =  1.22E-09,  avg # of iterations =  1.0

     total cpu time spent up to now is        3.5 secs

     total energy              =    -774.88155969 Ry
     Harris-Foulkes estimate   =    -774.88155963 Ry
     estimated scf accuracy    <       0.00000010 Ry

     iteration # 15     ecut=    25.00 Ry     beta= 0.70
     Davidson diagonalization with overlap
     ethr =  9.19E-10,  avg # of iterations =  2.0

     total cpu time spent up to now is        3.6 secs

     total energy              =    -774.88155967 Ry
     Harris-Foulkes estimate   =    -774.88155974 Ry
     estimated scf accuracy    <       0.00000047 Ry

     iteration # 16     ecut=    25.00 Ry     beta= 0.70
     Davidson diagonalization with overlap
     ethr =  9.19E-10,  avg # of iterations =  1.0

     total cpu time spent up to now is        3.8 secs

     total energy              =    -774.88155963 Ry
     Harris-Foulkes estimate   =    -774.88155968 Ry
     estimated scf accuracy    <       0.00000023 Ry

     iteration # 17     ecut=    25.00 Ry     beta= 0.70
     Davidson diagonalization with overlap
     ethr =  9.19E-10,  avg # of iterations =  1.0

     total cpu time spent up to now is        3.9 secs

     total energy              =    -774.88155962 Ry
     Harris-Foulkes estimate   =    -774.88155964 Ry
     estimated scf accuracy    <       0.00000009 Ry

     iteration # 18     ecut=    25.00 Ry     beta= 0.70
     Davidson diagonalization with overlap
     ethr =  8.10E-10,  avg # of iterations =  1.0

     total cpu time spent up to now is        4.0 secs

     total energy              =    -774.88155961 Ry
     Harris-Foulkes estimate   =    -774.88155962 Ry
     estimated scf accuracy    <       0.00000002 Ry

     iteration # 19     ecut=    25.00 Ry     beta= 0.70
     Davidson diagonalization with overlap
     ethr =  2.04E-10,  avg # of iterations =  2.3

     total cpu time spent up to now is        4.2 secs

     End of self-consistent calculation

          k = 0.0000 0.0000 0.0000 (   259 PWs)   bands (ev):

     6.1047  11.7180  11.7180  11.7180  13.3294  13.3294  31.3143  35.2701
    35.2701  35.2701

          k = 0.5000-0.5000 0.5000 (   242 PWs)   bands (ev):

     8.8944  11.6886  11.6886  14.5644  14.5644  15.0134  19.4342  30.5930
    33.6893  33.6893

          k = 0.0000-1.0000 0.0000 (   230 PWs)   bands (ev):

     9.2072   9.5665  14.5374  14.8898  14.8898  17.0422  22.1168  26.2733
    26.2733  33.5977

     the Fermi energy is    15.0876 ev

!    total energy              =    -774.88155962 Ry
     Harris-Foulkes estimate   =    -774.88155962 Ry
     estimated scf accuracy    <          1.4E-09 Ry

     total all-electron energy =    -38023.727651 Ry

     The total energy is the sum of the following terms:

     one-electron contribution =      13.95063802 Ry
     hartree contribution      =       7.95715387 Ry
     xc contribution           =     -32.26038192 Ry
     ewald contribution        =     -71.95438543 Ry
     one-center paw contrib.   =    -692.57197861 Ry
     smearing contrib. (-TS)   =      -0.00260555 Ry

     convergence has been achieved in  19 iterations

     Forces acting on atoms (cartesian axes, Ry/au):

     atom    1 type  1   force =     0.00000000    0.00000000    0.00000000

     Total force =     0.000000     Total SCF correction =     0.000000


     Computing stress (Cartesian axis) and pressure

          total   stress  (Ry/bohr**3)                   (kbar)     P=  582.78
   0.00396166  -0.00000000   0.00000000        582.78     -0.00      0.00
  -0.00000000   0.00396166  -0.00000000         -0.00    582.78     -0.00
   0.00000000  -0.00000000   0.00396166          0.00     -0.00    582.78


     Writing output data file Au.save/

     init_run     :      0.24s CPU      0.25s WALL (       1 calls)
     electrons    :      2.70s CPU      3.04s WALL (       1 calls)
     forces       :      0.01s CPU      0.01s WALL (       1 calls)
     stress       :      0.02s CPU      0.02s WALL (       1 calls)

     Called by init_run:
     wfcinit      :      0.00s CPU      0.00s WALL (       1 calls)
     potinit      :      0.12s CPU      0.13s WALL (       1 calls)
     hinit0       :      0.10s CPU      0.10s WALL (       1 calls)

     Called by electrons:
     c_bands      :      0.23s CPU      0.25s WALL (      20 calls)
     sum_band     :      0.11s CPU      0.12s WALL (      20 calls)
     v_of_rho     :      0.03s CPU      0.03s WALL (      20 calls)
     newd         :      0.05s CPU      0.05s WALL (      20 calls)
     PAW_pot      :      2.38s CPU      2.68s WALL (      20 calls)
     mix_rho      :      0.01s CPU      0.01s WALL (      20 calls)

     Called by c_bands:
     init_us_2    :      0.01s CPU      0.01s WALL (     129 calls)
     cegterg      :      0.21s CPU      0.24s WALL (      60 calls)

     Called by sum_band:
     sum_band:bec :      0.00s CPU      0.00s WALL (      60 calls)
     addusdens    :      0.05s CPU      0.05s WALL (      20 calls)

     Called by *egterg:
     h_psi        :      0.15s CPU      0.17s WALL (     171 calls)
     s_psi        :      0.00s CPU      0.00s WALL (     171 calls)
     g_psi        :      0.00s CPU      0.00s WALL (     108 calls)
     cdiaghg      :      0.04s CPU      0.04s WALL (     165 calls)

     Called by h_psi:
     h_psi:pot    :      0.14s CPU      0.16s WALL (     171 calls)
     h_psi:calbec :      0.02s CPU      0.02s WALL (     171 calls)
     vloc_psi     :      0.12s CPU      0.14s WALL (     171 calls)
     add_vuspsi   :      0.00s CPU      0.00s WALL (     171 calls)

     General routines
     calbec       :      0.02s CPU      0.02s WALL (     246 calls)
     fft          :      0.02s CPU      0.02s WALL (     247 calls)
     ffts         :      0.00s CPU      0.00s WALL (      20 calls)
     fftw         :      0.14s CPU      0.16s WALL (    3342 calls)

     Parallel routines
     fft_scatt_xy :      0.01s CPU      0.01s WALL (    3609 calls)
     fft_scatt_yz :      0.06s CPU      0.07s WALL (    3609 calls)

     PWSCF        :     3.85s CPU         4.25s WALL


   This run was terminated on:  11:21:33  26Mar2024            

=------------------------------------------------------------------------------=
   JOB DONE.
=------------------------------------------------------------------------------=
