
     Program PWSCF v.6.3MaX starts on 26Mar2024 at 11:26:42 

     This program is part of the open-source Quantum ESPRESSO suite
     for quantum simulation of materials; please cite
         "P. Giannozzi et al., J. Phys.:Condens. Matter 21 395502 (2009);
         "P. Giannozzi et al., J. Phys.:Condens. Matter 29 465901 (2017);
          URL http://www.quantum-espresso.org", 
     in publications or presentations arising from this work. More details at
     http://www.quantum-espresso.org/quote

     Parallel version (MPI), running on     5 processors

     MPI processes distributed on     1 nodes
     R & G space division:  proc/nbgrp/npool/nimage =       5
     Waiting for input...
     Reading input from standard input

     Current dimensions of program PWSCF are:
     Max number of different atomic species (ntypx) = 10
     Max number of k-points (npk) =  40000
     Max angular momentum in pseudopotentials (lmaxx) =  3
               file Au.pbe-n-kjpaw_psl.1.0.0.UPF: wavefunction(s)  6S 5D renormalized

     Subspace diagonalization in iterative solution of the eigenvalue problem:
     a serial algorithm will be used


     Parallelization info
     --------------------
     sticks:   dense  smooth     PW     G-vecs:    dense   smooth      PW
     Min          50      50     17                  527      527     106
     Max          51      51     17                  528      528     107
     Sum         253     253     85                 2637     2637     531



     bravais-lattice index     =            2
     lattice parameter (alat)  =       7.7100  a.u.
     unit-cell volume          =     114.5785 (a.u.)^3
     number of atoms/cell      =            1
     number of atomic types    =            1
     number of electrons       =        11.00
     number of Kohn-Sham states=           10
     kinetic-energy cutoff     =      30.0000  Ry
     charge density cutoff     =     120.0000  Ry
     convergence threshold     =      1.0E-08
     mixing beta               =       0.7000
     number of iterations used =            8  plain     mixing
     Exchange-correlation      = SLA PW PBX PBC ( 1  4  3  4 0 0)

     celldm(1)=   7.710000  celldm(2)=   0.000000  celldm(3)=   0.000000
     celldm(4)=   0.000000  celldm(5)=   0.000000  celldm(6)=   0.000000

     crystal axes: (cart. coord. in units of alat)
               a(1) = (  -0.500000   0.000000   0.500000 )  
               a(2) = (   0.000000   0.500000   0.500000 )  
               a(3) = (  -0.500000   0.500000   0.000000 )  

     reciprocal axes: (cart. coord. in units 2 pi/alat)
               b(1) = ( -1.000000 -1.000000  1.000000 )  
               b(2) = (  1.000000  1.000000  1.000000 )  
               b(3) = ( -1.000000  1.000000 -1.000000 )  


     PseudoPot. # 1 for Au read from file:
     /home/lorenzo/pseudos/Au/Au.pbe-n-kjpaw_psl.1.0.0.UPF
     MD5 check sum: 4db85c736373c707a97ce4c36c2a9d23
     Pseudo is Projector augmented-wave + core cor, Zval = 11.0
     Generated using "atomic" code by A. Dal Corso v.6.3
     Shape of augmentation charge: PSQ
     Using radial grid of 1279 points,  6 beta functions with: 
                l(1) =   0
                l(2) =   0
                l(3) =   1
                l(4) =   1
                l(5) =   2
                l(6) =   2
     Q(r) pseudized with 0 coefficients 


     atomic species   valence    mass     pseudopotential
        Au            11.00   196.96600     Au( 1.00)

     48 Sym. Ops., with inversion, found



   Cartesian axes

     site n.     atom                  positions (alat units)
         1           Au  tau(   1) = (   0.0000000   0.0000000   0.0000000  )

     number of k points=    35  gaussian smearing, width (Ry)=  0.0100
                       cart. coord. in units 2pi/alat
        k(    1) = (   0.0000000   0.0000000   0.0000000), wk =   0.0027435
        k(    2) = (  -0.1111111   0.1111111  -0.1111111), wk =   0.0219479
        k(    3) = (  -0.2222222   0.2222222  -0.2222222), wk =   0.0219479
        k(    4) = (  -0.3333333   0.3333333  -0.3333333), wk =   0.0219479
        k(    5) = (  -0.4444444   0.4444444  -0.4444444), wk =   0.0219479
        k(    6) = (   0.0000000   0.2222222   0.0000000), wk =   0.0164609
        k(    7) = (  -0.1111111   0.3333333  -0.1111111), wk =   0.0658436
        k(    8) = (  -0.2222222   0.4444444  -0.2222222), wk =   0.0658436
        k(    9) = (  -0.3333333   0.5555556  -0.3333333), wk =   0.0658436
        k(   10) = (   0.5555556  -0.3333333   0.5555556), wk =   0.0658436
        k(   11) = (   0.4444444  -0.2222222   0.4444444), wk =   0.0658436
        k(   12) = (   0.3333333  -0.1111111   0.3333333), wk =   0.0658436
        k(   13) = (   0.2222222  -0.0000000   0.2222222), wk =   0.0329218
        k(   14) = (   0.0000000   0.4444444   0.0000000), wk =   0.0164609
        k(   15) = (  -0.1111111   0.5555556  -0.1111111), wk =   0.0658436
        k(   16) = (  -0.2222222   0.6666667  -0.2222222), wk =   0.0658436
        k(   17) = (   0.6666667  -0.2222222   0.6666667), wk =   0.0658436
        k(   18) = (   0.5555556  -0.1111111   0.5555556), wk =   0.0658436
        k(   19) = (   0.4444444   0.0000000   0.4444444), wk =   0.0329218
        k(   20) = (   0.0000000   0.6666667   0.0000000), wk =   0.0164609
        k(   21) = (  -0.1111111   0.7777778  -0.1111111), wk =   0.0658436
        k(   22) = (   0.7777778  -0.1111111   0.7777778), wk =   0.0658436
        k(   23) = (   0.6666667  -0.0000000   0.6666667), wk =   0.0329218
        k(   24) = (   0.0000000   0.8888889   0.0000000), wk =   0.0164609
        k(   25) = (   0.8888889   0.0000000   0.8888889), wk =   0.0329218
        k(   26) = (  -0.2222222   0.4444444   0.0000000), wk =   0.0658436
        k(   27) = (  -0.3333333   0.5555556  -0.1111111), wk =   0.1316872
        k(   28) = (   0.5555556  -0.3333333   0.7777778), wk =   0.1316872
        k(   29) = (  -0.2222222   0.6666667   0.0000000), wk =   0.0658436
        k(   30) = (   0.6666667  -0.2222222   0.8888889), wk =   0.1316872
        k(   31) = (   0.5555556  -0.1111111   0.7777778), wk =   0.1316872
        k(   32) = (   0.4444444   0.0000000   0.6666667), wk =   0.0658436
        k(   33) = (   0.7777778  -0.1111111   1.0000000), wk =   0.0658436
        k(   34) = (   0.6666667  -0.0000000   0.8888889), wk =   0.0658436
        k(   35) = (   0.5555556  -0.1111111   1.0000000), wk =   0.0658436

     Dense  grid:     2637 G-vectors     FFT dimensions: (  20,  20,  20)

     Estimated max dynamical RAM per process >       3.39 MB

     Estimated total dynamical RAM >      16.96 MB

     Initial potential from superposition of free atoms

     starting charge   10.99989, renormalised to   11.00000
     Starting wfcs are    9 randomized atomic wfcs +    1 random wfcs
     Checking if some PAW data can be deallocated... 

     total cpu time spent up to now is        1.3 secs

     Self-consistent Calculation

     iteration #  1     ecut=    30.00 Ry     beta= 0.70
     Davidson diagonalization with overlap
     ethr =  1.00E-02,  avg # of iterations =  5.2

     Threshold (ethr) on eigenvalues was too large:
     Diagonalizing with lowered threshold

     Davidson diagonalization with overlap
     ethr =  4.58E-04,  avg # of iterations =  1.7

     total cpu time spent up to now is        1.9 secs

     total energy              =    -775.11701235 Ry
     Harris-Foulkes estimate   =    -775.15071080 Ry
     estimated scf accuracy    <       0.05046932 Ry

     iteration #  2     ecut=    30.00 Ry     beta= 0.70
     Davidson diagonalization with overlap
     ethr =  4.59E-04,  avg # of iterations =  2.7

     total cpu time spent up to now is        2.2 secs

     total energy              =    -775.13200901 Ry
     Harris-Foulkes estimate   =    -775.14053905 Ry
     estimated scf accuracy    <       0.01394529 Ry

     iteration #  3     ecut=    30.00 Ry     beta= 0.70
     Davidson diagonalization with overlap
     ethr =  1.27E-04,  avg # of iterations =  2.0

     total cpu time spent up to now is        2.6 secs

     total energy              =    -775.13519167 Ry
     Harris-Foulkes estimate   =    -775.13521262 Ry
     estimated scf accuracy    <       0.00023588 Ry

     iteration #  4     ecut=    30.00 Ry     beta= 0.70
     Davidson diagonalization with overlap
     ethr =  2.14E-06,  avg # of iterations =  3.3

     total cpu time spent up to now is        3.0 secs

     total energy              =    -775.13539475 Ry
     Harris-Foulkes estimate   =    -775.13547442 Ry
     estimated scf accuracy    <       0.00017621 Ry

     iteration #  5     ecut=    30.00 Ry     beta= 0.70
     Davidson diagonalization with overlap
     ethr =  1.60E-06,  avg # of iterations =  1.0

     total cpu time spent up to now is        3.3 secs

     total energy              =    -775.13539715 Ry
     Harris-Foulkes estimate   =    -775.13540974 Ry
     estimated scf accuracy    <       0.00001981 Ry

     iteration #  6     ecut=    30.00 Ry     beta= 0.70
     Davidson diagonalization with overlap
     ethr =  1.80E-07,  avg # of iterations =  2.3

     total cpu time spent up to now is        3.7 secs

     total energy              =    -775.13540666 Ry
     Harris-Foulkes estimate   =    -775.13540722 Ry
     estimated scf accuracy    <       0.00000166 Ry

     iteration #  7     ecut=    30.00 Ry     beta= 0.70
     Davidson diagonalization with overlap
     ethr =  1.51E-08,  avg # of iterations =  1.9

     total cpu time spent up to now is        4.0 secs

     total energy              =    -775.13540663 Ry
     Harris-Foulkes estimate   =    -775.13540684 Ry
     estimated scf accuracy    <       0.00000040 Ry

     iteration #  8     ecut=    30.00 Ry     beta= 0.70
     Davidson diagonalization with overlap
     ethr =  3.60E-09,  avg # of iterations =  2.2

     total cpu time spent up to now is        4.3 secs

     End of self-consistent calculation

          k = 0.0000 0.0000 0.0000 (   331 PWs)   bands (ev):

     6.0765  11.2880  11.2880  11.2880  12.8092  12.8092  31.3888  35.2437
    35.2437  35.2437

          k =-0.1111 0.1111-0.1111 (   319 PWs)   bands (ev):

     6.5006  11.1635  11.4256  11.4256  12.7580  12.7580  31.7034  32.8451
    35.6461  35.6461

          k =-0.2222 0.2222-0.2222 (   314 PWs)   bands (ev):

     7.5894  11.0690  11.5828  11.5828  12.8722  12.8722  28.3985  32.4531
    36.2435  36.2435

          k =-0.3333 0.3333-0.3333 (   308 PWs)   bands (ev):

     8.4877  11.4401  11.4401  12.0118  13.4305  13.4305  23.9225  31.5660
    35.1536  35.1536

          k =-0.4444 0.4444-0.4444 (   320 PWs)   bands (ev):

     8.6449  11.2724  11.2724  13.9432  13.9432  14.3227  19.9596  30.7802
    33.7994  33.7994

          k = 0.0000 0.2222 0.0000 (   323 PWs)   bands (ev):

     6.6443  11.0033  11.5486  11.5486  12.5089  12.9357  32.0058  33.7002
    34.4994  34.4994

          k =-0.1111 0.3333-0.1111 (   317 PWs)   bands (ev):

     7.5403  10.7525  11.7131  11.8002  12.4673  13.1109  30.1045  32.6912
    33.7319  35.6109

          k =-0.2222 0.4444-0.2222 (   322 PWs)   bands (ev):

     8.6241  10.9786  11.4017  11.7722  13.3654  13.5768  25.6043  32.1051
    32.9163  34.8200

          k =-0.3333 0.5556-0.3333 (   320 PWs)   bands (ev):

     8.9406  11.1183  11.5813  12.1853  14.0061  15.0660  21.2592  31.0960
    32.4288  33.0458

          k = 0.5556-0.3333 0.5556 (   317 PWs)   bands (ev):

     8.9585  11.0622  11.4857  12.8276  13.9175  16.4559  19.2094  30.5458
    32.0576  33.0868

          k = 0.4444-0.2222 0.4444 (   317 PWs)   bands (ev):

     8.9365  11.2208  11.5789  11.9606  13.2989  14.7565  22.6965  30.5979
    32.4673  35.1752

          k = 0.3333-0.1111 0.3333 (   313 PWs)   bands (ev):

     8.3321  10.8800  11.5521  11.7915  12.5694  13.6800  27.1069  31.1440
    34.0705  36.6845

          k = 0.2222-0.0000 0.2222 (   317 PWs)   bands (ev):

     7.1681  10.9399  11.6163  11.6395  12.4737  13.0249  30.9931  31.7854
    34.5124  37.4598

          k = 0.0000 0.4444 0.0000 (   311 PWs)   bands (ev):

     8.1212  10.3420  11.9849  12.2875  12.2875  13.2668  31.8036  31.8036
    32.5529  33.4640

          k =-0.1111 0.5556-0.1111 (   320 PWs)   bands (ev):

     9.0010  10.1180  11.6409  12.5067  13.4099  13.6478  27.5735  30.4839
    31.3770  33.4810

          k =-0.2222 0.6667-0.2222 (   318 PWs)   bands (ev):

     9.4210  10.4758  11.4421  12.3460  14.0706  15.5370  23.0237  29.2825
    30.0568  33.1398

          k = 0.6667-0.2222 0.6667 (   315 PWs)   bands (ev):

     9.5616  10.6798  11.7270  12.1595  13.9528  18.4999  19.2749  27.5918
    30.9146  32.7224

          k = 0.5556-0.1111 0.5556 (   320 PWs)   bands (ev):

     9.7587  10.8193  11.4384  12.1028  13.2962  16.6007  22.2155  26.7207
    32.7438  33.0525

          k = 0.4444 0.0000 0.4444 (   315 PWs)   bands (ev):

     9.4742  10.6700  11.2492  12.1655  12.5423  14.9523  25.6727  27.5886
    33.3689  35.9226

          k = 0.0000 0.6667 0.0000 (   323 PWs)   bands (ev):

     9.1029   9.6697  12.9676  13.3299  13.3299  13.6628  28.2205  28.6109
    28.6109  32.6927

          k =-0.1111 0.7778-0.1111 (   322 PWs)   bands (ev):

     9.2270   9.5927  12.7979  13.3299  14.1040  15.6148  24.4397  26.8257
    27.8139  33.7167

          k = 0.7778-0.1111 0.7778 (   317 PWs)   bands (ev):

     9.4392  10.0118  12.2442  13.0710  14.0625  18.7786  21.0639  24.7566
    28.4917  33.8042

          k = 0.6667-0.0000 0.6667 (   323 PWs)   bands (ev):

     9.8072  10.6152  11.4865  12.6989  13.5810  18.4652  22.4625  23.1878
    30.4749  33.3449

          k = 0.0000 0.8889 0.0000 (   322 PWs)   bands (ev):

     8.9400   9.2679  13.9344  14.2080  14.2080  16.0723  22.9740  26.5102
    26.5102  33.1483

          k = 0.8889 0.0000 0.8889 (   318 PWs)   bands (ev):

     9.0654   9.3894  13.5598  13.7542  14.2558  18.0930  21.4755  25.1412
    26.7708  34.0074

          k =-0.2222 0.4444 0.0000 (   319 PWs)   bands (ev):

     8.5329  10.4754  11.4878  12.2915  12.4972  13.7111  28.4782  30.0900
    33.5709  35.1325

          k =-0.3333 0.5556-0.1111 (   318 PWs)   bands (ev):

     9.4120  10.7509  11.0644  12.2177  13.2516  14.9440  24.4858  28.9363
    31.6574  35.2069

          k = 0.5556-0.3333 0.7778 (   320 PWs)   bands (ev):

     9.4929  10.7604  11.7101  12.0404  13.8376  17.0314  20.4360  28.9440
    30.1699  34.0106

          k =-0.2222 0.6667 0.0000 (   320 PWs)   bands (ev):

     9.5226   9.9228  11.5965  13.2780  13.3206  15.0261  25.8162  27.4705
    29.2717  35.4539

          k = 0.6667-0.2222 0.8889 (   312 PWs)   bands (ev):

     9.7525  10.2458  11.4062  12.9113  13.9401  17.3739  22.3149  26.3776
    27.8972  35.3574

          k = 0.5556-0.1111 0.7778 (   314 PWs)   bands (ev):

    10.0258  10.4679  11.2773  12.5818  13.8598  18.9828  20.7156  25.1791
    28.5365  35.2811

          k = 0.4444 0.0000 0.6667 (   320 PWs)   bands (ev):

    10.3386  10.5947  10.6230  12.6478  13.3390  16.7277  23.8171  25.0670
    30.1243  35.8184

          k = 0.7778-0.1111 1.0000 (   316 PWs)   bands (ev):

     9.3165   9.5815  12.6849  13.5817  14.2063  17.7461  22.5012  25.5735
    26.1806  35.4743

          k = 0.6667-0.0000 0.8889 (   316 PWs)   bands (ev):

     9.6288  10.0489  11.9615  13.0499  14.1987  20.5165  20.5522  23.6824
    26.8045  35.8417

          k = 0.5556-0.1111 1.0000 (   317 PWs)   bands (ev):

    10.0285  10.5052  11.0446  12.7705  14.2013  19.5736  22.4676  23.2876
    26.1759  38.4534

     the Fermi energy is    16.0075 ev

!    total energy              =    -775.13540673 Ry
     Harris-Foulkes estimate   =    -775.13540673 Ry
     estimated scf accuracy    <          7.0E-10 Ry

     total all-electron energy =    -38023.981498 Ry

     The total energy is the sum of the following terms:

     one-electron contribution =      13.83340235 Ry
     hartree contribution      =       7.64098988 Ry
     xc contribution           =     -32.12661000 Ry
     ewald contribution        =     -71.95438537 Ry
     one-center paw contrib.   =    -692.52876655 Ry
     smearing contrib. (-TS)   =      -0.00003704 Ry

     convergence has been achieved in   8 iterations

     Forces acting on atoms (cartesian axes, Ry/au):

     atom    1 type  1   force =     0.00000000    0.00000000    0.00000000

     Total force =     0.000000     Total SCF correction =     0.000000


     Computing stress (Cartesian axis) and pressure

          total   stress  (Ry/bohr**3)                   (kbar)     P=   88.00
   0.00059824   0.00000000   0.00000000         88.00      0.00      0.00
   0.00000000   0.00059824  -0.00000000          0.00     88.00     -0.00
   0.00000000   0.00000000   0.00059824          0.00      0.00     88.00


     Writing output data file Au.save/

     init_run     :      0.33s CPU      0.36s WALL (       1 calls)
     electrons    :      2.73s CPU      3.00s WALL (       1 calls)
     forces       :      0.02s CPU      0.02s WALL (       1 calls)
     stress       :      0.06s CPU      0.06s WALL (       1 calls)

     Called by init_run:
     wfcinit      :      0.07s CPU      0.07s WALL (       1 calls)
     potinit      :      0.14s CPU      0.16s WALL (       1 calls)
     hinit0       :      0.11s CPU      0.11s WALL (       1 calls)

     Called by electrons:
     c_bands      :      1.55s CPU      1.67s WALL (       9 calls)
     sum_band     :      0.26s CPU      0.29s WALL (       9 calls)
     v_of_rho     :      0.02s CPU      0.02s WALL (       9 calls)
     newd         :      0.02s CPU      0.02s WALL (       9 calls)
     PAW_pot      :      1.01s CPU      1.14s WALL (       9 calls)
     mix_rho      :      0.00s CPU      0.00s WALL (       9 calls)

     Called by c_bands:
     init_us_2    :      0.03s CPU      0.04s WALL (     735 calls)
     cegterg      :      1.47s CPU      1.59s WALL (     315 calls)

     Called by sum_band:
     sum_band:bec :      0.00s CPU      0.00s WALL (     315 calls)
     addusdens    :      0.02s CPU      0.02s WALL (       9 calls)

     Called by *egterg:
     h_psi        :      1.07s CPU      1.16s WALL (    1130 calls)
     s_psi        :      0.03s CPU      0.03s WALL (    1130 calls)
     g_psi        :      0.00s CPU      0.00s WALL (     780 calls)
     cdiaghg      :      0.25s CPU      0.26s WALL (    1060 calls)

     Called by h_psi:
     h_psi:pot    :      1.06s CPU      1.15s WALL (    1130 calls)
     h_psi:calbec :      0.07s CPU      0.07s WALL (    1130 calls)
     vloc_psi     :      0.96s CPU      1.04s WALL (    1130 calls)
     add_vuspsi   :      0.03s CPU      0.03s WALL (    1130 calls)

     General routines
     calbec       :      0.09s CPU      0.10s WALL (    1620 calls)
     fft          :      0.01s CPU      0.01s WALL (     126 calls)
     ffts         :      0.00s CPU      0.00s WALL (       9 calls)
     fftw         :      1.08s CPU      1.17s WALL (   19924 calls)

     Parallel routines
     fft_scatt_xy :      0.08s CPU      0.08s WALL (   20059 calls)
     fft_scatt_yz :      0.50s CPU      0.53s WALL (   20059 calls)

     PWSCF        :     4.09s CPU         4.46s WALL


   This run was terminated on:  11:26:47  26Mar2024            

=------------------------------------------------------------------------------=
   JOB DONE.
=------------------------------------------------------------------------------=
