
     Program PWSCF v.6.3MaX starts on 26Mar2024 at 11:16:53 

     This program is part of the open-source Quantum ESPRESSO suite
     for quantum simulation of materials; please cite
         "P. Giannozzi et al., J. Phys.:Condens. Matter 21 395502 (2009);
         "P. Giannozzi et al., J. Phys.:Condens. Matter 29 465901 (2017);
          URL http://www.quantum-espresso.org", 
     in publications or presentations arising from this work. More details at
     http://www.quantum-espresso.org/quote

     Parallel version (MPI), running on     5 processors

     MPI processes distributed on     1 nodes
     R & G space division:  proc/nbgrp/npool/nimage =       5
     Waiting for input...
     Reading input from standard input

     Current dimensions of program PWSCF are:
     Max number of different atomic species (ntypx) = 10
     Max number of k-points (npk) =  40000
     Max angular momentum in pseudopotentials (lmaxx) =  3

     Subspace diagonalization in iterative solution of the eigenvalue problem:
     a serial algorithm will be used


     Parallelization info
     --------------------
     sticks:   dense  smooth     PW     G-vecs:    dense   smooth      PW
     Min          24      24     11                  178      178      45
     Max          25      25     11                  181      181      46
     Sum         121     121     55                  893      893     229



     bravais-lattice index     =            2
     lattice parameter (alat)  =       7.7100  a.u.
     unit-cell volume          =     114.5785 (a.u.)^3
     number of atoms/cell      =            1
     number of atomic types    =            1
     number of electrons       =        11.00
     number of Kohn-Sham states=           10
     kinetic-energy cutoff     =      15.0000  Ry
     charge density cutoff     =      60.0000  Ry
     convergence threshold     =      1.0E-08
     mixing beta               =       0.7000
     number of iterations used =            8  plain     mixing
     Exchange-correlation      = PBE ( 1  4  3  4 0 0)

     celldm(1)=   7.710000  celldm(2)=   0.000000  celldm(3)=   0.000000
     celldm(4)=   0.000000  celldm(5)=   0.000000  celldm(6)=   0.000000

     crystal axes: (cart. coord. in units of alat)
               a(1) = (  -0.500000   0.000000   0.500000 )  
               a(2) = (   0.000000   0.500000   0.500000 )  
               a(3) = (  -0.500000   0.500000   0.000000 )  

     reciprocal axes: (cart. coord. in units 2 pi/alat)
               b(1) = ( -1.000000 -1.000000  1.000000 )  
               b(2) = (  1.000000  1.000000  1.000000 )  
               b(3) = ( -1.000000  1.000000 -1.000000 )  


     PseudoPot. # 1 for Au read from file:
     /home/lorenzo/pseudos/Au/Au.pbe-n-rrkjus_psl.1.0.0.UPF
     MD5 check sum: d7e77ba19504afed2c9b41c931dde4f0
     Pseudo is Ultrasoft + core correction, Zval = 11.0
     Generated using "atomic" code by A. Dal Corso v.6.3
     Using radial grid of 1279 points,  6 beta functions with: 
                l(1) =   0
                l(2) =   0
                l(3) =   1
                l(4) =   1
                l(5) =   2
                l(6) =   2
     Q(r) pseudized with 0 coefficients 


     atomic species   valence    mass     pseudopotential
        Au            11.00   196.96600     Au( 1.00)

     48 Sym. Ops., with inversion, found



   Cartesian axes

     site n.     atom                  positions (alat units)
         1           Au  tau(   1) = (   0.0000000   0.0000000   0.0000000  )

     number of k points=    16  gaussian smearing, width (Ry)=  0.0100
                       cart. coord. in units 2pi/alat
        k(    1) = (   0.0000000   0.0000000   0.0000000), wk =   0.0092593
        k(    2) = (  -0.1666667   0.1666667  -0.1666667), wk =   0.0740741
        k(    3) = (  -0.3333333   0.3333333  -0.3333333), wk =   0.0740741
        k(    4) = (   0.5000000  -0.5000000   0.5000000), wk =   0.0370370
        k(    5) = (   0.0000000   0.3333333   0.0000000), wk =   0.0555556
        k(    6) = (  -0.1666667   0.5000000  -0.1666667), wk =   0.2222222
        k(    7) = (   0.6666667  -0.3333333   0.6666667), wk =   0.2222222
        k(    8) = (   0.5000000  -0.1666667   0.5000000), wk =   0.2222222
        k(    9) = (   0.3333333   0.0000000   0.3333333), wk =   0.1111111
        k(   10) = (   0.0000000   0.6666667   0.0000000), wk =   0.0555556
        k(   11) = (   0.8333333  -0.1666667   0.8333333), wk =   0.2222222
        k(   12) = (   0.6666667  -0.0000000   0.6666667), wk =   0.1111111
        k(   13) = (   0.0000000  -1.0000000   0.0000000), wk =   0.0277778
        k(   14) = (   0.6666667  -0.3333333   1.0000000), wk =   0.2222222
        k(   15) = (   0.5000000  -0.1666667   0.8333333), wk =   0.2222222
        k(   16) = (  -0.3333333  -1.0000000   0.0000000), wk =   0.1111111

     Dense  grid:      893 G-vectors     FFT dimensions: (  15,  15,  15)

     Estimated max dynamical RAM per process >       1.50 MB

     Estimated total dynamical RAM >       7.52 MB

     Check: negative/imaginary core charge=   -0.000006    0.000000

     Initial potential from superposition of free atoms

     starting charge   10.99989, renormalised to   11.00000
     Starting wfcs are    9 randomized atomic wfcs +    1 random wfcs

     total cpu time spent up to now is        0.9 secs

     Self-consistent Calculation

     iteration #  1     ecut=    15.00 Ry     beta= 0.70
     Davidson diagonalization with overlap
     ethr =  1.00E-02,  avg # of iterations =  5.1

     total cpu time spent up to now is        1.0 secs

     total energy              =     -85.14271548 Ry
     Harris-Foulkes estimate   =     -85.23436494 Ry
     estimated scf accuracy    <       0.12803387 Ry

     iteration #  2     ecut=    15.00 Ry     beta= 0.70
     Davidson diagonalization with overlap
     ethr =  1.16E-03,  avg # of iterations =  2.0

     total cpu time spent up to now is        1.0 secs

     total energy              =     -85.17861762 Ry
     Harris-Foulkes estimate   =     -85.18457819 Ry
     estimated scf accuracy    <       0.01172066 Ry

     iteration #  3     ecut=    15.00 Ry     beta= 0.70
     Davidson diagonalization with overlap
     ethr =  1.07E-04,  avg # of iterations =  1.8

     total cpu time spent up to now is        1.1 secs

     total energy              =     -85.18054212 Ry
     Harris-Foulkes estimate   =     -85.18050168 Ry
     estimated scf accuracy    <       0.00009473 Ry

     iteration #  4     ecut=    15.00 Ry     beta= 0.70
     Davidson diagonalization with overlap
     ethr =  8.61E-07,  avg # of iterations =  3.2

     total cpu time spent up to now is        1.2 secs

     total energy              =     -85.18058781 Ry
     Harris-Foulkes estimate   =     -85.18059000 Ry
     estimated scf accuracy    <       0.00000431 Ry

     iteration #  5     ecut=    15.00 Ry     beta= 0.70
     Davidson diagonalization with overlap
     ethr =  3.92E-08,  avg # of iterations =  1.2

     total cpu time spent up to now is        1.2 secs

     total energy              =     -85.18058835 Ry
     Harris-Foulkes estimate   =     -85.18058842 Ry
     estimated scf accuracy    <       0.00000016 Ry

     iteration #  6     ecut=    15.00 Ry     beta= 0.70
     Davidson diagonalization with overlap
     ethr =  1.50E-09,  avg # of iterations =  2.1

     total cpu time spent up to now is        1.3 secs

     End of self-consistent calculation

          k = 0.0000 0.0000 0.0000 (   113 PWs)   bands (ev):

     6.2386  10.9721  10.9721  10.9721  12.4465  12.4465  31.7323  35.4816
    35.4816  35.4816

          k =-0.1667 0.1667-0.1667 (   116 PWs)   bands (ev):

     7.1384  10.7062  11.2369  11.2369  12.4026  12.4026  31.0422  32.8900
    36.5009  36.5009

          k =-0.3333 0.3333-0.3333 (   111 PWs)   bands (ev):

     8.4314  11.0972  11.0972  11.9556  13.2365  13.2365  24.3376  32.0447
    35.4607  35.4607

          k = 0.5000-0.5000 0.5000 (   108 PWs)   bands (ev):

     8.4555  10.9943  10.9943  13.8151  13.8151  15.2003  19.2310  31.0634
    33.6644  33.6644

          k = 0.0000 0.3333 0.0000 (   113 PWs)   bands (ev):

     7.4588  10.4037  11.5513  11.5513  11.9885  12.7537  33.4774  33.5509
    33.9333  33.9333

          k =-0.1667 0.5000-0.1667 (   115 PWs)   bands (ev):

     8.8407  10.1822  11.0890  11.7679  13.2173  13.3860  26.9686  32.1572
    33.0886  34.5028

          k = 0.6667-0.3333 0.6667 (   115 PWs)   bands (ev):

     9.0425  10.5073  11.4846  11.7217  13.7727  16.7424  20.3242  30.4478
    31.8324  32.9870

          k = 0.5000-0.1667 0.5000 (   115 PWs)   bands (ev):

     9.1765  10.6327  11.4750  11.5342  12.9672  15.6563  22.6289  29.3267
    32.9427  34.7339

          k = 0.3333 0.0000 0.3333 (   111 PWs)   bands (ev):

     8.4296  10.3919  11.2495  11.7756  12.0313  13.5640  28.6491  31.0527
    35.2114  35.8788

          k = 0.0000 0.6667 0.0000 (   113 PWs)   bands (ev):

     8.9538   9.3079  12.8916  13.1361  13.1361  13.3605  28.4525  28.9639
    28.9639  33.6983

          k = 0.8333-0.1667 0.8333 (   108 PWs)   bands (ev):

     9.0497   9.5100  12.3566  12.9787  13.9544  17.2600  22.6833  26.4873
    28.2239  35.2520

          k = 0.6667-0.0000 0.6667 (   116 PWs)   bands (ev):

     9.4766  10.3632  11.2095  12.3037  13.2289  18.5164  22.9023  23.5911
    30.8803  34.5178

          k = 0.0000-1.0000 0.0000 (   116 PWs)   bands (ev):

     8.6333   8.8005  13.6348  14.0594  14.0594  17.1533  21.8761  26.3302
    26.3302  34.6646

          k = 0.6667-0.3333 1.0000 (   110 PWs)   bands (ev):

     9.8171   9.9461  10.6667  12.7751  13.1163  15.8967  24.7882  26.9595
    30.5089  36.8373

          k = 0.5000-0.1667 0.8333 (   112 PWs)   bands (ev):

     9.9341   9.9863  10.9457  12.2368  13.6748  19.4426  20.4600  26.2423
    28.5973  36.4359

          k =-0.3333-1.0000 0.0000 (   110 PWs)   bands (ev):

     9.3701   9.6229  11.7400  12.8274  14.1124  20.4667  21.0388  24.5948
    26.3242  38.6149

     the Fermi energy is    15.9280 ev

!    total energy              =     -85.18058840 Ry
     Harris-Foulkes estimate   =     -85.18058841 Ry
     estimated scf accuracy    <          2.4E-09 Ry

     The total energy is the sum of the following terms:

     one-electron contribution =      11.49210284 Ry
     hartree contribution      =       7.19592099 Ry
     xc contribution           =     -31.91362058 Ry
     ewald contribution        =     -71.95438538 Ry
     smearing contrib. (-TS)   =      -0.00060628 Ry

     convergence has been achieved in   6 iterations

     Forces acting on atoms (cartesian axes, Ry/au):

     atom    1 type  1   force =     0.00000000    0.00000000    0.00000000

     Total force =     0.000000     Total SCF correction =     0.000000


     Computing stress (Cartesian axis) and pressure

          total   stress  (Ry/bohr**3)                   (kbar)     P= -919.95
  -0.00625368  -0.00000000   0.00000000       -919.95     -0.00      0.00
  -0.00000000  -0.00625368  -0.00000000         -0.00   -919.95     -0.00
   0.00000000  -0.00000000  -0.00625368          0.00     -0.00   -919.95


     Writing output data file Au.save/

     init_run     :      0.09s CPU      0.10s WALL (       1 calls)
     electrons    :      0.34s CPU      0.39s WALL (       1 calls)
     forces       :      0.01s CPU      0.01s WALL (       1 calls)
     stress       :      0.02s CPU      0.02s WALL (       1 calls)

     Called by init_run:
     wfcinit      :      0.01s CPU      0.01s WALL (       1 calls)
     potinit      :      0.00s CPU      0.00s WALL (       1 calls)
     hinit0       :      0.08s CPU      0.08s WALL (       1 calls)

     Called by electrons:
     c_bands      :      0.28s CPU      0.32s WALL (       6 calls)
     sum_band     :      0.05s CPU      0.05s WALL (       6 calls)
     v_of_rho     :      0.01s CPU      0.01s WALL (       7 calls)
     newd         :      0.01s CPU      0.01s WALL (       7 calls)
     mix_rho      :      0.00s CPU      0.00s WALL (       6 calls)

     Called by c_bands:
     init_us_2    :      0.01s CPU      0.01s WALL (     240 calls)
     cegterg      :      0.27s CPU      0.30s WALL (      96 calls)

     Called by sum_band:
     sum_band:bec :      0.00s CPU      0.00s WALL (      96 calls)
     addusdens    :      0.01s CPU      0.01s WALL (       6 calls)

     Called by *egterg:
     h_psi        :      0.17s CPU      0.19s WALL (     358 calls)
     s_psi        :      0.00s CPU      0.00s WALL (     358 calls)
     g_psi        :      0.00s CPU      0.00s WALL (     246 calls)
     cdiaghg      :      0.07s CPU      0.08s WALL (     342 calls)

     Called by h_psi:
     h_psi:pot    :      0.16s CPU      0.19s WALL (     358 calls)
     h_psi:calbec :      0.01s CPU      0.01s WALL (     358 calls)
     vloc_psi     :      0.15s CPU      0.17s WALL (     358 calls)
     add_vuspsi   :      0.00s CPU      0.01s WALL (     358 calls)

     General routines
     calbec       :      0.02s CPU      0.02s WALL (     534 calls)
     fft          :      0.00s CPU      0.00s WALL (     103 calls)
     ffts         :      0.00s CPU      0.00s WALL (       6 calls)
     fftw         :      0.16s CPU      0.19s WALL (    6242 calls)

     Parallel routines
     fft_scatt_xy :      0.02s CPU      0.02s WALL (    6351 calls)
     fft_scatt_yz :      0.08s CPU      0.10s WALL (    6351 calls)

     PWSCF        :     1.28s CPU         1.40s WALL


   This run was terminated on:  11:16:54  26Mar2024            

=------------------------------------------------------------------------------=
   JOB DONE.
=------------------------------------------------------------------------------=
