
     Program PWSCF v.6.3MaX starts on 26Mar2024 at 12:30:58 

     This program is part of the open-source Quantum ESPRESSO suite
     for quantum simulation of materials; please cite
         "P. Giannozzi et al., J. Phys.:Condens. Matter 21 395502 (2009);
         "P. Giannozzi et al., J. Phys.:Condens. Matter 29 465901 (2017);
          URL http://www.quantum-espresso.org", 
     in publications or presentations arising from this work. More details at
     http://www.quantum-espresso.org/quote

     Parallel version (MPI), running on     5 processors

     MPI processes distributed on     1 nodes
     R & G space division:  proc/nbgrp/npool/nimage =       5
     Waiting for input...
     Reading input from standard input

     Current dimensions of program PWSCF are:
     Max number of different atomic species (ntypx) = 10
     Max number of k-points (npk) =  40000
     Max angular momentum in pseudopotentials (lmaxx) =  3
               file Au.pbesol-n-kjpaw_psl.1.0.0.UPF: wavefunction(s)  6S 5D renormalized

     Subspace diagonalization in iterative solution of the eigenvalue problem:
     a serial algorithm will be used


     Parallelization info
     --------------------
     sticks:   dense  smooth     PW     G-vecs:    dense   smooth      PW
     Min         137     137     42                 2407     2407     416
     Max         137     137     43                 2409     2409     418
     Sum         685     685    211                12039    12039    2085



     bravais-lattice index     =            2
     lattice parameter (alat)  =       7.7100  a.u.
     unit-cell volume          =     114.5785 (a.u.)^3
     number of atoms/cell      =            1
     number of atomic types    =            1
     number of electrons       =        11.00
     number of Kohn-Sham states=           10
     kinetic-energy cutoff     =      85.0000  Ry
     charge density cutoff     =     340.0000  Ry
     convergence threshold     =      1.0E-08
     mixing beta               =       0.7000
     number of iterations used =            8  plain     mixing
     Exchange-correlation      = SLA PW PSX PSC ( 1  4 10  8 0 0)

     celldm(1)=   7.710000  celldm(2)=   0.000000  celldm(3)=   0.000000
     celldm(4)=   0.000000  celldm(5)=   0.000000  celldm(6)=   0.000000

     crystal axes: (cart. coord. in units of alat)
               a(1) = (  -0.500000   0.000000   0.500000 )  
               a(2) = (   0.000000   0.500000   0.500000 )  
               a(3) = (  -0.500000   0.500000   0.000000 )  

     reciprocal axes: (cart. coord. in units 2 pi/alat)
               b(1) = ( -1.000000 -1.000000  1.000000 )  
               b(2) = (  1.000000  1.000000  1.000000 )  
               b(3) = ( -1.000000  1.000000 -1.000000 )  


     PseudoPot. # 1 for Au read from file:
     /home/lorenzo/pseudos/Au/Au.pbesol-n-kjpaw_psl.1.0.0.UPF
     MD5 check sum: abc371be705c47a6b6a6b4088b452d3e
     Pseudo is Projector augmented-wave + core cor, Zval = 11.0
     Generated using "atomic" code by A. Dal Corso v.6.3
     Shape of augmentation charge: PSQ
     Using radial grid of 1279 points,  6 beta functions with: 
                l(1) =   0
                l(2) =   0
                l(3) =   1
                l(4) =   1
                l(5) =   2
                l(6) =   2
     Q(r) pseudized with 0 coefficients 


     atomic species   valence    mass     pseudopotential
        Au            11.00   196.96600     Au( 1.00)

     48 Sym. Ops., with inversion, found



   Cartesian axes

     site n.     atom                  positions (alat units)
         1           Au  tau(   1) = (   0.0000000   0.0000000   0.0000000  )

     number of k points=    29  gaussian smearing, width (Ry)=  0.0100
                       cart. coord. in units 2pi/alat
        k(    1) = (   0.0000000   0.0000000   0.0000000), wk =   0.0039062
        k(    2) = (  -0.1250000   0.1250000  -0.1250000), wk =   0.0312500
        k(    3) = (  -0.2500000   0.2500000  -0.2500000), wk =   0.0312500
        k(    4) = (  -0.3750000   0.3750000  -0.3750000), wk =   0.0312500
        k(    5) = (   0.5000000  -0.5000000   0.5000000), wk =   0.0156250
        k(    6) = (   0.0000000   0.2500000   0.0000000), wk =   0.0234375
        k(    7) = (  -0.1250000   0.3750000  -0.1250000), wk =   0.0937500
        k(    8) = (  -0.2500000   0.5000000  -0.2500000), wk =   0.0937500
        k(    9) = (   0.6250000  -0.3750000   0.6250000), wk =   0.0937500
        k(   10) = (   0.5000000  -0.2500000   0.5000000), wk =   0.0937500
        k(   11) = (   0.3750000  -0.1250000   0.3750000), wk =   0.0937500
        k(   12) = (   0.2500000   0.0000000   0.2500000), wk =   0.0468750
        k(   13) = (   0.0000000   0.5000000   0.0000000), wk =   0.0234375
        k(   14) = (  -0.1250000   0.6250000  -0.1250000), wk =   0.0937500
        k(   15) = (   0.7500000  -0.2500000   0.7500000), wk =   0.0937500
        k(   16) = (   0.6250000  -0.1250000   0.6250000), wk =   0.0937500
        k(   17) = (   0.5000000   0.0000000   0.5000000), wk =   0.0468750
        k(   18) = (   0.0000000   0.7500000   0.0000000), wk =   0.0234375
        k(   19) = (   0.8750000  -0.1250000   0.8750000), wk =   0.0937500
        k(   20) = (   0.7500000   0.0000000   0.7500000), wk =   0.0468750
        k(   21) = (   0.0000000  -1.0000000   0.0000000), wk =   0.0117188
        k(   22) = (  -0.2500000   0.5000000   0.0000000), wk =   0.0937500
        k(   23) = (   0.6250000  -0.3750000   0.8750000), wk =   0.1875000
        k(   24) = (   0.5000000  -0.2500000   0.7500000), wk =   0.0937500
        k(   25) = (   0.7500000  -0.2500000   1.0000000), wk =   0.0937500
        k(   26) = (   0.6250000  -0.1250000   0.8750000), wk =   0.1875000
        k(   27) = (   0.5000000   0.0000000   0.7500000), wk =   0.0937500
        k(   28) = (  -0.2500000  -1.0000000   0.0000000), wk =   0.0468750
        k(   29) = (  -0.5000000  -1.0000000   0.0000000), wk =   0.0234375

     Dense  grid:    12039 G-vectors     FFT dimensions: (  32,  32,  32)

     Estimated max dynamical RAM per process >      12.17 MB

     Estimated total dynamical RAM >      60.84 MB

     Initial potential from superposition of free atoms

     starting charge   10.99990, renormalised to   11.00000
     Starting wfcs are    9 randomized atomic wfcs +    1 random wfcs
     Checking if some PAW data can be deallocated... 

     total cpu time spent up to now is        2.2 secs

     Self-consistent Calculation

     iteration #  1     ecut=    85.00 Ry     beta= 0.70
     Davidson diagonalization with overlap
     ethr =  1.00E-02,  avg # of iterations =  5.3

     Threshold (ethr) on eigenvalues was too large:
     Diagonalizing with lowered threshold

     Davidson diagonalization with overlap
     ethr =  5.51E-04,  avg # of iterations =  1.9

     total cpu time spent up to now is        3.1 secs

     total energy              =    -764.65637742 Ry
     Harris-Foulkes estimate   =    -764.69920427 Ry
     estimated scf accuracy    <       0.06195801 Ry

     iteration #  2     ecut=    85.00 Ry     beta= 0.70
     Davidson diagonalization with overlap
     ethr =  5.63E-04,  avg # of iterations =  2.8

     negative rho (up, down):  3.114E-03 0.000E+00

     total cpu time spent up to now is        3.6 secs

     total energy              =    -764.67535858 Ry
     Harris-Foulkes estimate   =    -764.68660178 Ry
     estimated scf accuracy    <       0.02034189 Ry

     iteration #  3     ecut=    85.00 Ry     beta= 0.70
     Davidson diagonalization with overlap
     ethr =  1.85E-04,  avg # of iterations =  1.9

     negative rho (up, down):  1.729E-02 0.000E+00

     total cpu time spent up to now is        4.0 secs

     total energy              =    -764.67955079 Ry
     Harris-Foulkes estimate   =    -764.67947366 Ry
     estimated scf accuracy    <       0.00196061 Ry

     iteration #  4     ecut=    85.00 Ry     beta= 0.70
     Davidson diagonalization with overlap
     ethr =  1.78E-05,  avg # of iterations =  3.9

     negative rho (up, down):  6.362E-03 0.000E+00

     total cpu time spent up to now is        4.7 secs

     total energy              =    -764.68007040 Ry
     Harris-Foulkes estimate   =    -764.68068145 Ry
     estimated scf accuracy    <       0.01026375 Ry

     iteration #  5     ecut=    85.00 Ry     beta= 0.70
     Davidson diagonalization with overlap
     ethr =  1.78E-05,  avg # of iterations =  2.9

     total cpu time spent up to now is        5.2 secs

     total energy              =    -764.67931656 Ry
     Harris-Foulkes estimate   =    -764.68046059 Ry
     estimated scf accuracy    <       0.00490478 Ry

     iteration #  6     ecut=    85.00 Ry     beta= 0.70
     Davidson diagonalization with overlap
     ethr =  1.78E-05,  avg # of iterations =  2.9

     negative rho (up, down):  1.460E-02 0.000E+00

     total cpu time spent up to now is        5.8 secs

     total energy              =    -764.67869721 Ry
     Harris-Foulkes estimate   =    -764.67965330 Ry
     estimated scf accuracy    <       0.00212279 Ry

     iteration #  7     ecut=    85.00 Ry     beta= 0.70
     Davidson diagonalization with overlap
     ethr =  1.78E-05,  avg # of iterations =  3.4

     negative rho (up, down):  1.922E-02 0.000E+00

     total cpu time spent up to now is        6.3 secs

     total energy              =    -764.67924813 Ry
     Harris-Foulkes estimate   =    -764.67926970 Ry
     estimated scf accuracy    <       0.00012622 Ry

     iteration #  8     ecut=    85.00 Ry     beta= 0.70
     Davidson diagonalization with overlap
     ethr =  1.15E-06,  avg # of iterations =  2.9

     negative rho (up, down):  1.134E-02 0.000E+00

     total cpu time spent up to now is        6.8 secs

     total energy              =    -764.67751896 Ry
     Harris-Foulkes estimate   =    -764.67926233 Ry
     estimated scf accuracy    <       0.00000504 Ry

     iteration #  9     ecut=    85.00 Ry     beta= 0.70
     Davidson diagonalization with overlap
     ethr =  4.59E-08,  avg # of iterations =  5.3

     total cpu time spent up to now is        7.7 secs

     total energy              =    -764.67818940 Ry
     Harris-Foulkes estimate   =    -764.68031600 Ry
     estimated scf accuracy    <       0.00711775 Ry

     iteration # 10     ecut=    85.00 Ry     beta= 0.70
     Davidson diagonalization with overlap
     ethr =  4.59E-08,  avg # of iterations =  4.7

     negative rho (up, down):  1.198E-03 0.000E+00

     total cpu time spent up to now is        8.5 secs

     total energy              =    -764.67936998 Ry
     Harris-Foulkes estimate   =    -764.67942863 Ry
     estimated scf accuracy    <       0.00151091 Ry

     iteration # 11     ecut=    85.00 Ry     beta= 0.70
     Davidson diagonalization with overlap
     ethr =  4.59E-08,  avg # of iterations =  3.0

     negative rho (up, down):  9.746E-03 0.000E+00

     total cpu time spent up to now is        9.0 secs

     total energy              =    -764.67923819 Ry
     Harris-Foulkes estimate   =    -764.67937893 Ry
     estimated scf accuracy    <       0.00120504 Ry

     iteration # 12     ecut=    85.00 Ry     beta= 0.70
     Davidson diagonalization with overlap
     ethr =  4.59E-08,  avg # of iterations =  3.6

     negative rho (up, down):  1.534E-02 0.000E+00

     total cpu time spent up to now is        9.7 secs

     total energy              =    -764.67925233 Ry
     Harris-Foulkes estimate   =    -764.67929091 Ry
     estimated scf accuracy    <       0.00036347 Ry

     iteration # 13     ecut=    85.00 Ry     beta= 0.70
     Davidson diagonalization with overlap
     ethr =  4.59E-08,  avg # of iterations =  3.1

     negative rho (up, down):  2.217E-02 0.000E+00

     total cpu time spent up to now is       10.2 secs

     total energy              =    -764.67924323 Ry
     Harris-Foulkes estimate   =    -764.67926771 Ry
     estimated scf accuracy    <       0.00007000 Ry

     iteration # 14     ecut=    85.00 Ry     beta= 0.70
     Davidson diagonalization with overlap
     ethr =  4.59E-08,  avg # of iterations =  3.2

     negative rho (up, down):  3.326E-02 0.000E+00

     total cpu time spent up to now is       10.9 secs

     total energy              =    -764.67926676 Ry
     Harris-Foulkes estimate   =    -764.67926484 Ry
     estimated scf accuracy    <       0.00003299 Ry

     iteration # 15     ecut=    85.00 Ry     beta= 0.70
     Davidson diagonalization with overlap
     ethr =  4.59E-08,  avg # of iterations =  3.6

     negative rho (up, down):  1.523E-02 0.000E+00

     total cpu time spent up to now is       11.5 secs

     total energy              =    -764.67915724 Ry
     Harris-Foulkes estimate   =    -764.67929823 Ry
     estimated scf accuracy    <       0.00059414 Ry

     iteration # 16     ecut=    85.00 Ry     beta= 0.70
     Davidson diagonalization with overlap
     ethr =  4.59E-08,  avg # of iterations =  4.1

     negative rho (up, down):  1.773E-02 0.000E+00

     total cpu time spent up to now is       12.3 secs

     total energy              =    -764.67925986 Ry
     Harris-Foulkes estimate   =    -764.67926799 Ry
     estimated scf accuracy    <       0.00007349 Ry

     iteration # 17     ecut=    85.00 Ry     beta= 0.70
     Davidson diagonalization with overlap
     ethr =  4.59E-08,  avg # of iterations =  2.3

     negative rho (up, down):  1.684E-02 0.000E+00

     total cpu time spent up to now is       12.8 secs

     total energy              =    -764.67926407 Ry
     Harris-Foulkes estimate   =    -764.67926336 Ry
     estimated scf accuracy    <       0.00000984 Ry

     iteration # 18     ecut=    85.00 Ry     beta= 0.70
     Davidson diagonalization with overlap
     ethr =  4.59E-08,  avg # of iterations =  1.8

     negative rho (up, down):  1.837E-02 0.000E+00

     total cpu time spent up to now is       13.2 secs

     total energy              =    -764.67926169 Ry
     Harris-Foulkes estimate   =    -764.67926448 Ry
     estimated scf accuracy    <       0.00002153 Ry

     iteration # 19     ecut=    85.00 Ry     beta= 0.70
     Davidson diagonalization with overlap
     ethr =  4.59E-08,  avg # of iterations =  2.4

     negative rho (up, down):  1.876E-02 0.000E+00

     total cpu time spent up to now is       13.8 secs

     total energy              =    -764.67926253 Ry
     Harris-Foulkes estimate   =    -764.67926283 Ry
     estimated scf accuracy    <       0.00000410 Ry

     iteration # 20     ecut=    85.00 Ry     beta= 0.70
     Davidson diagonalization with overlap
     ethr =  3.73E-08,  avg # of iterations =  1.2

     negative rho (up, down):  1.921E-02 0.000E+00

     total cpu time spent up to now is       14.2 secs

     total energy              =    -764.67926240 Ry
     Harris-Foulkes estimate   =    -764.67926266 Ry
     estimated scf accuracy    <       0.00000221 Ry

     iteration # 21     ecut=    85.00 Ry     beta= 0.70
     Davidson diagonalization with overlap
     ethr =  2.01E-08,  avg # of iterations =  2.7

     negative rho (up, down):  1.923E-02 0.000E+00

     total cpu time spent up to now is       14.7 secs

     End of self-consistent calculation

          k = 0.0000 0.0000 0.0000 (  1459 PWs)   bands (ev):

     5.8151  11.0886  11.0886  11.0886  12.6274  12.6274  31.1335  34.9865
    34.9865  34.9865

          k =-0.1250 0.1250-0.1250 (  1495 PWs)   bands (ev):

     6.3477  10.9348  11.2556  11.2556  12.5696  12.5696  31.4453  32.2863
    35.4673  35.4673

          k =-0.2500 0.2500-0.2500 (  1507 PWs)   bands (ev):

     7.6293  10.9397  11.3734  11.3734  12.7959  12.7959  27.1225  32.1138
    35.9708  35.9708

          k =-0.3750 0.3750-0.3750 (  1504 PWs)   bands (ev):

     8.3692  11.1691  11.1691  12.5558  13.4774  13.4774  22.1174  30.9510
    34.3061  34.3061

          k = 0.5000-0.5000 0.5000 (  1502 PWs)   bands (ev):

     8.4228  11.0524  11.0524  13.8400  13.8400  14.7383  18.9006  30.4173
    33.3336  33.3336

          k = 0.0000 0.2500 0.0000 (  1491 PWs)   bands (ev):

     6.5286  10.7324  11.4171  11.4171  12.2546  12.7860  31.9637  33.1492
    34.0762  34.0762

          k =-0.1250 0.3750-0.1250 (  1509 PWs)   bands (ev):

     7.6148  10.4564  11.4863  11.6889  12.3907  13.0356  29.0756  32.5337
    33.0619  34.9313

          k =-0.2500 0.5000-0.2500 (  1497 PWs)   bands (ev):

     8.6558  10.9652  11.0744  11.5839  13.6041  13.7390  23.9447  31.3893
    32.1084  33.6438

          k = 0.6250-0.3750 0.6250 (  1516 PWs)   bands (ev):

     8.8018  10.8176  11.3874  12.2633  13.8652  16.0766  19.4704  30.2679
    32.0062  32.0652

          k = 0.5000-0.2500 0.5000 (  1508 PWs)   bands (ev):

     8.8243  10.8980  11.3814  12.1250  13.3837  15.3877  20.8657  29.8796
    31.8472  33.6101

          k = 0.3750-0.1250 0.3750 (  1516 PWs)   bands (ev):

     8.4595  10.7460  11.2736  11.5991  12.5148  13.8772  25.6560  30.3772
    33.2237  36.8894

          k = 0.2500 0.0000 0.2500 (  1498 PWs)   bands (ev):

     7.1732  10.6708  11.4366  11.5304  12.2263  12.9613  30.0790  31.4222
    34.3730  36.4298

          k = 0.0000 0.5000 0.0000 (  1491 PWs)   bands (ev):

     8.2523   9.9566  11.7805  12.3362  12.3362  13.1832  30.7936  30.7936
    31.7030  32.8613

          k =-0.1250 0.6250-0.1250 (  1517 PWs)   bands (ev):

     9.0231   9.7738  11.5617  12.5122  13.6614  13.8887  26.0569  29.3625
    29.3914  33.2833

          k = 0.7500-0.2500 0.7500 (  1515 PWs)   bands (ev):

     9.2924  10.2118  11.4213  12.2878  13.9312  16.8058  21.2358  27.1987
    29.3667  32.9981

          k = 0.6250-0.1250 0.6250 (  1515 PWs)   bands (ev):

     9.5708  10.4892  11.3202  12.1055  13.4274  17.6855  20.6304  25.6626
    31.0360  32.6268

          k = 0.5000 0.0000 0.5000 (  1522 PWs)   bands (ev):

     9.6346  10.5392  10.8788  12.0228  12.6187  15.5067  24.3123  26.1564
    32.7434  33.8628

          k = 0.0000 0.7500 0.0000 (  1524 PWs)   bands (ev):

     8.8456   9.2722  13.5353  13.5353  13.6034  13.7745  25.6789  27.3947
    27.3947  32.2456

          k = 0.8750-0.1250 0.8750 (  1522 PWs)   bands (ev):

     8.9367   9.2968  12.9503  13.3555  14.0301  16.9016  22.3924  25.1502
    26.9602  33.4778

          k = 0.7500 0.0000 0.7500 (  1514 PWs)   bands (ev):

     9.2934   9.9171  11.9353  12.9154  13.7223  19.6710  20.4810  23.0521
    28.4194  33.5290

          k = 0.0000-1.0000 0.0000 (  1524 PWs)   bands (ev):

     8.6594   9.0100  13.7849  14.1768  14.1768  16.7442  21.4440  25.9438
    25.9438  32.4967

          k =-0.2500 0.5000 0.0000 (  1520 PWs)   bands (ev):

     8.7489  10.1648  11.1312  12.3385  12.4274  13.9156  27.1900  29.0440
    32.0420  35.5235

          k = 0.6250-0.3750 0.8750 (  1514 PWs)   bands (ev):

     9.4399  10.5869  10.7838  12.1414  13.3432  15.6516  22.8282  27.8331
    30.0905  34.7915

          k = 0.5000-0.2500 0.7500 (  1530 PWs)   bands (ev):

     9.4494  10.4065  11.5082  11.9362  13.7035  18.3895  18.8890  28.0242
    28.9002  34.0184

          k = 0.7500-0.2500 1.0000 (  1527 PWs)   bands (ev):

     9.3562   9.6271  11.5927  13.2208  13.5261  15.9140  24.1630  26.1633
    27.3406  35.3993

          k = 0.6250-0.1250 0.8750 (  1519 PWs)   bands (ev):

     9.6111  10.0588  11.2688  12.6984  13.8925  18.9284  20.9556  24.5034
    26.7702  35.7033

          k = 0.5000 0.0000 0.7500 (  1525 PWs)   bands (ev):

    10.0612  10.3469  10.6328  12.4887  13.5291  17.8434  22.8467  23.4135
    28.2672  35.6897

          k =-0.2500-1.0000 0.0000 (  1520 PWs)   bands (ev):

     9.1233   9.4133  12.4938  13.2418  14.1778  18.9277  20.9389  24.8417
    25.2883  35.4521

          k =-0.5000-1.0000 0.0000 (  1540 PWs)   bands (ev):

     9.7846  10.6061  10.6061  12.4756  14.1788  20.5023  22.1336  22.1336
    24.9262  39.4543

     the Fermi energy is    15.7456 ev

!    total energy              =    -764.67926268 Ry
     Harris-Foulkes estimate   =    -764.67926268 Ry
     estimated scf accuracy    <          1.4E-09 Ry

     total all-electron energy =    -38013.513725 Ry

     The total energy is the sum of the following terms:

     one-electron contribution =      13.86484778 Ry
     hartree contribution      =       7.58360523 Ry
     xc contribution           =     -31.83036363 Ry
     ewald contribution        =     -71.95438534 Ry
     one-center paw contrib.   =    -682.34257439 Ry
     smearing contrib. (-TS)   =      -0.00039232 Ry

     convergence has been achieved in  21 iterations

     negative rho (up, down):  1.923E-02 0.000E+00

     Forces acting on atoms (cartesian axes, Ry/au):

     atom    1 type  1   force =     0.00000000    0.00000000    0.00000000

     Total force =     0.000000     Total SCF correction =     0.000000


     Computing stress (Cartesian axis) and pressure


     negative rho (up, down):  1.923E-02 0.000E+00
          total   stress  (Ry/bohr**3)                   (kbar)     P=   26.16
   0.00017784  -0.00000000  -0.00000000         26.16     -0.00     -0.00
  -0.00000000   0.00017784   0.00000000         -0.00     26.16      0.00
  -0.00000000   0.00000000   0.00017784         -0.00      0.00     26.16


     Writing output data file Au.save/

     init_run     :      0.43s CPU      0.47s WALL (       1 calls)
     electrons    :     11.66s CPU     12.53s WALL (       1 calls)
     forces       :      0.06s CPU      0.06s WALL (       1 calls)
     stress       :      0.21s CPU      0.21s WALL (       1 calls)

     Called by init_run:
     wfcinit      :      0.09s CPU      0.10s WALL (       1 calls)
     potinit      :      0.11s CPU      0.13s WALL (       1 calls)
     hinit0       :      0.19s CPU      0.20s WALL (       1 calls)

     Called by electrons:
     c_bands      :      7.83s CPU      8.50s WALL (      22 calls)
     sum_band     :      1.37s CPU      1.49s WALL (      22 calls)
     v_of_rho     :      0.13s CPU      0.14s WALL (      22 calls)
     newd         :      0.26s CPU      0.27s WALL (      22 calls)
     PAW_pot      :      2.14s CPU      2.22s WALL (      22 calls)
     mix_rho      :      0.03s CPU      0.03s WALL (      22 calls)

     Called by c_bands:
     init_us_2    :      0.23s CPU      0.24s WALL (    1363 calls)
     cegterg      :      7.48s CPU      8.13s WALL (     638 calls)

     Called by sum_band:
     sum_band:bec :      0.01s CPU      0.01s WALL (     638 calls)
     addusdens    :      0.25s CPU      0.25s WALL (      22 calls)

     Called by *egterg:
     h_psi        :      5.38s CPU      5.93s WALL (    2663 calls)
     s_psi        :      0.21s CPU      0.23s WALL (    2663 calls)
     g_psi        :      0.02s CPU      0.03s WALL (    1996 calls)
     cdiaghg      :      0.66s CPU      0.69s WALL (    2605 calls)

     Called by h_psi:
     h_psi:pot    :      5.34s CPU      5.89s WALL (    2663 calls)
     h_psi:calbec :      0.31s CPU      0.34s WALL (    2663 calls)
     vloc_psi     :      4.80s CPU      5.29s WALL (    2663 calls)
     add_vuspsi   :      0.22s CPU      0.24s WALL (    2663 calls)

     General routines
     calbec       :      0.41s CPU      0.45s WALL (    3446 calls)
     fft          :      0.06s CPU      0.07s WALL (     269 calls)
     ffts         :      0.00s CPU      0.00s WALL (      22 calls)
     fftw         :      5.21s CPU      5.76s WALL (   45086 calls)

     Parallel routines
     fft_scatt_xy :      0.51s CPU      0.56s WALL (   45377 calls)
     fft_scatt_yz :      1.62s CPU      1.80s WALL (   45377 calls)

     PWSCF        :    14.09s CPU        15.07s WALL


   This run was terminated on:  12:31:13  26Mar2024            

=------------------------------------------------------------------------------=
   JOB DONE.
=------------------------------------------------------------------------------=
