
     Program PWSCF v.6.3MaX starts on 26Mar2024 at 11:25:48 

     This program is part of the open-source Quantum ESPRESSO suite
     for quantum simulation of materials; please cite
         "P. Giannozzi et al., J. Phys.:Condens. Matter 21 395502 (2009);
         "P. Giannozzi et al., J. Phys.:Condens. Matter 29 465901 (2017);
          URL http://www.quantum-espresso.org", 
     in publications or presentations arising from this work. More details at
     http://www.quantum-espresso.org/quote

     Parallel version (MPI), running on     5 processors

     MPI processes distributed on     1 nodes
     R & G space division:  proc/nbgrp/npool/nimage =       5
     Waiting for input...
     Reading input from standard input

     Current dimensions of program PWSCF are:
     Max number of different atomic species (ntypx) = 10
     Max number of k-points (npk) =  40000
     Max angular momentum in pseudopotentials (lmaxx) =  3
               file Au.pbe-n-kjpaw_psl.1.0.0.UPF: wavefunction(s)  6S 5D renormalized

     Subspace diagonalization in iterative solution of the eigenvalue problem:
     a serial algorithm will be used


     Parallelization info
     --------------------
     sticks:   dense  smooth     PW     G-vecs:    dense   smooth      PW
     Min          50      50     17                  527      527     106
     Max          51      51     17                  528      528     107
     Sum         253     253     85                 2637     2637     531



     bravais-lattice index     =            2
     lattice parameter (alat)  =       7.7100  a.u.
     unit-cell volume          =     114.5785 (a.u.)^3
     number of atoms/cell      =            1
     number of atomic types    =            1
     number of electrons       =        11.00
     number of Kohn-Sham states=           10
     kinetic-energy cutoff     =      30.0000  Ry
     charge density cutoff     =     120.0000  Ry
     convergence threshold     =      1.0E-08
     mixing beta               =       0.7000
     number of iterations used =            8  plain     mixing
     Exchange-correlation      = SLA PW PBX PBC ( 1  4  3  4 0 0)

     celldm(1)=   7.710000  celldm(2)=   0.000000  celldm(3)=   0.000000
     celldm(4)=   0.000000  celldm(5)=   0.000000  celldm(6)=   0.000000

     crystal axes: (cart. coord. in units of alat)
               a(1) = (  -0.500000   0.000000   0.500000 )  
               a(2) = (   0.000000   0.500000   0.500000 )  
               a(3) = (  -0.500000   0.500000   0.000000 )  

     reciprocal axes: (cart. coord. in units 2 pi/alat)
               b(1) = ( -1.000000 -1.000000  1.000000 )  
               b(2) = (  1.000000  1.000000  1.000000 )  
               b(3) = ( -1.000000  1.000000 -1.000000 )  


     PseudoPot. # 1 for Au read from file:
     /home/lorenzo/pseudos/Au/Au.pbe-n-kjpaw_psl.1.0.0.UPF
     MD5 check sum: 4db85c736373c707a97ce4c36c2a9d23
     Pseudo is Projector augmented-wave + core cor, Zval = 11.0
     Generated using "atomic" code by A. Dal Corso v.6.3
     Shape of augmentation charge: PSQ
     Using radial grid of 1279 points,  6 beta functions with: 
                l(1) =   0
                l(2) =   0
                l(3) =   1
                l(4) =   1
                l(5) =   2
                l(6) =   2
     Q(r) pseudized with 0 coefficients 


     atomic species   valence    mass     pseudopotential
        Au            11.00   196.96600     Au( 1.00)

     48 Sym. Ops., with inversion, found



   Cartesian axes

     site n.     atom                  positions (alat units)
         1           Au  tau(   1) = (   0.0000000   0.0000000   0.0000000  )

     number of k points=    16  gaussian smearing, width (Ry)=  0.0100
                       cart. coord. in units 2pi/alat
        k(    1) = (   0.0000000   0.0000000   0.0000000), wk =   0.0092593
        k(    2) = (  -0.1666667   0.1666667  -0.1666667), wk =   0.0740741
        k(    3) = (  -0.3333333   0.3333333  -0.3333333), wk =   0.0740741
        k(    4) = (   0.5000000  -0.5000000   0.5000000), wk =   0.0370370
        k(    5) = (   0.0000000   0.3333333   0.0000000), wk =   0.0555556
        k(    6) = (  -0.1666667   0.5000000  -0.1666667), wk =   0.2222222
        k(    7) = (   0.6666667  -0.3333333   0.6666667), wk =   0.2222222
        k(    8) = (   0.5000000  -0.1666667   0.5000000), wk =   0.2222222
        k(    9) = (   0.3333333   0.0000000   0.3333333), wk =   0.1111111
        k(   10) = (   0.0000000   0.6666667   0.0000000), wk =   0.0555556
        k(   11) = (   0.8333333  -0.1666667   0.8333333), wk =   0.2222222
        k(   12) = (   0.6666667  -0.0000000   0.6666667), wk =   0.1111111
        k(   13) = (   0.0000000  -1.0000000   0.0000000), wk =   0.0277778
        k(   14) = (   0.6666667  -0.3333333   1.0000000), wk =   0.2222222
        k(   15) = (   0.5000000  -0.1666667   0.8333333), wk =   0.2222222
        k(   16) = (  -0.3333333  -1.0000000   0.0000000), wk =   0.1111111

     Dense  grid:     2637 G-vectors     FFT dimensions: (  20,  20,  20)

     Estimated max dynamical RAM per process >       3.21 MB

     Estimated total dynamical RAM >      16.05 MB

     Initial potential from superposition of free atoms

     starting charge   10.99989, renormalised to   11.00000
     Starting wfcs are    9 randomized atomic wfcs +    1 random wfcs
     Checking if some PAW data can be deallocated... 

     total cpu time spent up to now is        1.1 secs

     Self-consistent Calculation

     iteration #  1     ecut=    30.00 Ry     beta= 0.70
     Davidson diagonalization with overlap
     ethr =  1.00E-02,  avg # of iterations =  5.2

     Threshold (ethr) on eigenvalues was too large:
     Diagonalizing with lowered threshold

     Davidson diagonalization with overlap
     ethr =  4.52E-04,  avg # of iterations =  1.8

     total cpu time spent up to now is        1.5 secs

     total energy              =    -775.11119235 Ry
     Harris-Foulkes estimate   =    -775.14395325 Ry
     estimated scf accuracy    <       0.04908432 Ry

     iteration #  2     ecut=    30.00 Ry     beta= 0.70
     Davidson diagonalization with overlap
     ethr =  4.46E-04,  avg # of iterations =  2.6

     total cpu time spent up to now is        1.7 secs

     total energy              =    -775.12541133 Ry
     Harris-Foulkes estimate   =    -775.13329291 Ry
     estimated scf accuracy    <       0.01283322 Ry

     iteration #  3     ecut=    30.00 Ry     beta= 0.70
     Davidson diagonalization with overlap
     ethr =  1.17E-04,  avg # of iterations =  2.2

     total cpu time spent up to now is        1.9 secs

     total energy              =    -775.12840934 Ry
     Harris-Foulkes estimate   =    -775.12842010 Ry
     estimated scf accuracy    <       0.00021666 Ry

     iteration #  4     ecut=    30.00 Ry     beta= 0.70
     Davidson diagonalization with overlap
     ethr =  1.97E-06,  avg # of iterations =  4.0

     total cpu time spent up to now is        2.2 secs

     total energy              =    -775.12857432 Ry
     Harris-Foulkes estimate   =    -775.12862990 Ry
     estimated scf accuracy    <       0.00011919 Ry

     iteration #  5     ecut=    30.00 Ry     beta= 0.70
     Davidson diagonalization with overlap
     ethr =  1.08E-06,  avg # of iterations =  1.0

     total cpu time spent up to now is        2.3 secs

     total energy              =    -775.12857768 Ry
     Harris-Foulkes estimate   =    -775.12858504 Ry
     estimated scf accuracy    <       0.00001096 Ry

     iteration #  6     ecut=    30.00 Ry     beta= 0.70
     Davidson diagonalization with overlap
     ethr =  9.97E-08,  avg # of iterations =  2.9

     total cpu time spent up to now is        2.5 secs

     total energy              =    -775.12858380 Ry
     Harris-Foulkes estimate   =    -775.12858459 Ry
     estimated scf accuracy    <       0.00000191 Ry

     iteration #  7     ecut=    30.00 Ry     beta= 0.70
     Davidson diagonalization with overlap
     ethr =  1.74E-08,  avg # of iterations =  1.4

     total cpu time spent up to now is        2.7 secs

     total energy              =    -775.12858382 Ry
     Harris-Foulkes estimate   =    -775.12858398 Ry
     estimated scf accuracy    <       0.00000029 Ry

     iteration #  8     ecut=    30.00 Ry     beta= 0.70
     Davidson diagonalization with overlap
     ethr =  2.61E-09,  avg # of iterations =  3.0

     total cpu time spent up to now is        3.0 secs

     End of self-consistent calculation

          k = 0.0000 0.0000 0.0000 (   331 PWs)   bands (ev):

     6.0762  11.2868  11.2868  11.2868  12.8103  12.8103  31.3880  35.2452
    35.2452  35.2452

          k =-0.1667 0.1667-0.1667 (   320 PWs)   bands (ev):

     6.9929  11.0680  11.5348  11.5348  12.7604  12.7604  30.4989  32.4194
    36.0258  36.0258

          k =-0.3333 0.3333-0.3333 (   308 PWs)   bands (ev):

     8.4870  11.4400  11.4400  12.0112  13.4305  13.4305  23.9223  31.5655
    35.1533  35.1533

          k = 0.5000-0.5000 0.5000 (   332 PWs)   bands (ev):

     8.6428  11.2472  11.2472  14.0205  14.0205  15.0057  19.0783  30.6734
    33.6022  33.6022

          k = 0.0000 0.3333 0.0000 (   315 PWs)   bands (ev):

     7.3104  10.6957  11.8636  11.8636  12.2148  13.0837  32.6810  32.9702
    33.3500  33.3500

          k =-0.1667 0.5000-0.1667 (   322 PWs)   bands (ev):

     8.8289  10.4912  11.4167  12.0999  13.4115  13.6260  26.5788  31.6618
    32.2073  33.7503

          k = 0.6667-0.3333 0.6667 (   321 PWs)   bands (ev):

     9.2554  10.8803  11.8286  11.9424  14.0636  16.6536  20.1586  29.8362
    31.5172  32.3708

          k = 0.5000-0.1667 0.5000 (   314 PWs)   bands (ev):

     9.3429  11.0109  11.7093  11.8065  13.2727  15.6722  22.3310  28.7679
    32.4667  34.2585

          k = 0.3333 0.0000 0.3333 (   317 PWs)   bands (ev):

     8.3213  10.7148  11.5567  12.0415  12.2475  13.7340  28.2563  30.0821
    34.8007  35.5533

          k = 0.0000 0.6667 0.0000 (   323 PWs)   bands (ev):

     9.1034   9.6685  12.9678  13.3288  13.3288  13.6640  28.2201  28.6112
    28.6112  32.6921

          k = 0.8333-0.1667 0.8333 (   318 PWs)   bands (ev):

     9.3167   9.7516  12.5451  13.2108  14.1687  17.1393  22.6273  25.7782
    27.9622  33.8835

          k = 0.6667-0.0000 0.6667 (   323 PWs)   bands (ev):

     9.8068  10.6155  11.4855  12.7001  13.5798  18.4647  22.4623  23.1878
    30.4750  33.3444

          k = 0.0000-1.0000 0.0000 (   326 PWs)   bands (ev):

     8.8945   9.2131  13.9737  14.3464  14.3464  17.0133  21.7881  26.2125
    26.2125  33.2480

          k = 0.6667-0.3333 1.0000 (   318 PWs)   bands (ev):

     9.9775  10.2258  10.9761  12.9688  13.3179  15.8983  24.6436  26.3438
    29.6145  36.6383

          k = 0.5000-0.1667 0.8333 (   318 PWs)   bands (ev):

    10.2073  10.3029  11.2147  12.5586  13.9334  19.3593  20.1417  25.8745
    27.7843  35.8834

          k =-0.3333-1.0000 0.0000 (   320 PWs)   bands (ev):

     9.6375   9.9327  12.0095  13.0876  14.3478  20.2045  21.0011  24.2749
    25.5831  37.4802

     the Fermi energy is    15.9299 ev

!    total energy              =    -775.12858393 Ry
     Harris-Foulkes estimate   =    -775.12858394 Ry
     estimated scf accuracy    <          9.9E-09 Ry

     total all-electron energy =    -38023.974675 Ry

     The total energy is the sum of the following terms:

     one-electron contribution =      13.84172837 Ry
     hartree contribution      =       7.63986822 Ry
     xc contribution           =     -32.12634191 Ry
     ewald contribution        =     -71.95438537 Ry
     one-center paw contrib.   =    -692.52884192 Ry
     smearing contrib. (-TS)   =      -0.00061132 Ry

     convergence has been achieved in   8 iterations

     Forces acting on atoms (cartesian axes, Ry/au):

     atom    1 type  1   force =     0.00000000    0.00000000    0.00000000

     Total force =     0.000000     Total SCF correction =     0.000000


     Computing stress (Cartesian axis) and pressure

          total   stress  (Ry/bohr**3)                   (kbar)     P=  101.29
   0.00068853   0.00000000  -0.00000000        101.29      0.00     -0.00
  -0.00000000   0.00068853   0.00000000         -0.00    101.29      0.00
  -0.00000000   0.00000000   0.00068853         -0.00      0.00    101.29


     Writing output data file Au.save/

     init_run     :      0.26s CPU      0.27s WALL (       1 calls)
     electrons    :      1.65s CPU      1.84s WALL (       1 calls)
     forces       :      0.02s CPU      0.02s WALL (       1 calls)
     stress       :      0.04s CPU      0.04s WALL (       1 calls)

     Called by init_run:
     wfcinit      :      0.02s CPU      0.02s WALL (       1 calls)
     potinit      :      0.10s CPU      0.11s WALL (       1 calls)
     hinit0       :      0.12s CPU      0.12s WALL (       1 calls)

     Called by electrons:
     c_bands      :      0.65s CPU      0.72s WALL (       9 calls)
     sum_band     :      0.12s CPU      0.13s WALL (       9 calls)
     v_of_rho     :      0.01s CPU      0.01s WALL (       9 calls)
     newd         :      0.02s CPU      0.02s WALL (       9 calls)
     PAW_pot      :      0.94s CPU      1.05s WALL (       9 calls)
     mix_rho      :      0.00s CPU      0.00s WALL (       9 calls)

     Called by c_bands:
     init_us_2    :      0.02s CPU      0.02s WALL (     336 calls)
     cegterg      :      0.62s CPU      0.68s WALL (     144 calls)

     Called by sum_band:
     sum_band:bec :      0.00s CPU      0.00s WALL (     144 calls)
     addusdens    :      0.02s CPU      0.02s WALL (       9 calls)

     Called by *egterg:
     h_psi        :      0.43s CPU      0.48s WALL (     547 calls)
     s_psi        :      0.01s CPU      0.01s WALL (     547 calls)
     g_psi        :      0.00s CPU      0.00s WALL (     387 calls)
     cdiaghg      :      0.12s CPU      0.12s WALL (     515 calls)

     Called by h_psi:
     h_psi:pot    :      0.43s CPU      0.48s WALL (     547 calls)
     h_psi:calbec :      0.02s CPU      0.02s WALL (     547 calls)
     vloc_psi     :      0.39s CPU      0.43s WALL (     547 calls)
     add_vuspsi   :      0.01s CPU      0.01s WALL (     547 calls)

     General routines
     calbec       :      0.04s CPU      0.04s WALL (     771 calls)
     fft          :      0.01s CPU      0.01s WALL (     126 calls)
     ffts         :      0.00s CPU      0.00s WALL (       9 calls)
     fftw         :      0.42s CPU      0.47s WALL (    9268 calls)

     Parallel routines
     fft_scatt_xy :      0.04s CPU      0.04s WALL (    9403 calls)
     fft_scatt_yz :      0.15s CPU      0.16s WALL (    9403 calls)

     PWSCF        :     2.85s CPU         3.10s WALL


   This run was terminated on:  11:25:52  26Mar2024            

=------------------------------------------------------------------------------=
   JOB DONE.
=------------------------------------------------------------------------------=
