
     Program PWSCF v.6.3MaX starts on 26Mar2024 at 12: 7: 3 

     This program is part of the open-source Quantum ESPRESSO suite
     for quantum simulation of materials; please cite
         "P. Giannozzi et al., J. Phys.:Condens. Matter 21 395502 (2009);
         "P. Giannozzi et al., J. Phys.:Condens. Matter 29 465901 (2017);
          URL http://www.quantum-espresso.org", 
     in publications or presentations arising from this work. More details at
     http://www.quantum-espresso.org/quote

     Parallel version (MPI), running on     5 processors

     MPI processes distributed on     1 nodes
     R & G space division:  proc/nbgrp/npool/nimage =       5
     Waiting for input...
     Reading input from standard input

     Current dimensions of program PWSCF are:
     Max number of different atomic species (ntypx) = 10
     Max number of k-points (npk) =  40000
     Max angular momentum in pseudopotentials (lmaxx) =  3
               file Au.pbe-n-kjpaw_psl.1.0.0.UPF: wavefunction(s)  6S 5D renormalized

     Subspace diagonalization in iterative solution of the eigenvalue problem:
     a serial algorithm will be used


     Parallelization info
     --------------------
     sticks:   dense  smooth     PW     G-vecs:    dense   smooth      PW
     Min         116     116     33                 1836     1836     294
     Max         117     117     35                 1838     1838     295
     Sum         583     583    169                 9185     9185    1471



     bravais-lattice index     =            2
     lattice parameter (alat)  =       7.7100  a.u.
     unit-cell volume          =     114.5785 (a.u.)^3
     number of atoms/cell      =            1
     number of atomic types    =            1
     number of electrons       =        11.00
     number of Kohn-Sham states=           10
     kinetic-energy cutoff     =      70.0000  Ry
     charge density cutoff     =     280.0000  Ry
     convergence threshold     =      1.0E-08
     mixing beta               =       0.7000
     number of iterations used =            8  plain     mixing
     Exchange-correlation      = SLA PW PBX PBC ( 1  4  3  4 0 0)

     celldm(1)=   7.710000  celldm(2)=   0.000000  celldm(3)=   0.000000
     celldm(4)=   0.000000  celldm(5)=   0.000000  celldm(6)=   0.000000

     crystal axes: (cart. coord. in units of alat)
               a(1) = (  -0.500000   0.000000   0.500000 )  
               a(2) = (   0.000000   0.500000   0.500000 )  
               a(3) = (  -0.500000   0.500000   0.000000 )  

     reciprocal axes: (cart. coord. in units 2 pi/alat)
               b(1) = ( -1.000000 -1.000000  1.000000 )  
               b(2) = (  1.000000  1.000000  1.000000 )  
               b(3) = ( -1.000000  1.000000 -1.000000 )  


     PseudoPot. # 1 for Au read from file:
     /home/lorenzo/pseudos/Au/Au.pbe-n-kjpaw_psl.1.0.0.UPF
     MD5 check sum: 4db85c736373c707a97ce4c36c2a9d23
     Pseudo is Projector augmented-wave + core cor, Zval = 11.0
     Generated using "atomic" code by A. Dal Corso v.6.3
     Shape of augmentation charge: PSQ
     Using radial grid of 1279 points,  6 beta functions with: 
                l(1) =   0
                l(2) =   0
                l(3) =   1
                l(4) =   1
                l(5) =   2
                l(6) =   2
     Q(r) pseudized with 0 coefficients 


     atomic species   valence    mass     pseudopotential
        Au            11.00   196.96600     Au( 1.00)

     48 Sym. Ops., with inversion, found



   Cartesian axes

     site n.     atom                  positions (alat units)
         1           Au  tau(   1) = (   0.0000000   0.0000000   0.0000000  )

     number of k points=     8  gaussian smearing, width (Ry)=  0.0100
                       cart. coord. in units 2pi/alat
        k(    1) = (   0.0000000   0.0000000   0.0000000), wk =   0.0312500
        k(    2) = (  -0.2500000   0.2500000  -0.2500000), wk =   0.2500000
        k(    3) = (   0.5000000  -0.5000000   0.5000000), wk =   0.1250000
        k(    4) = (   0.0000000   0.5000000   0.0000000), wk =   0.1875000
        k(    5) = (   0.7500000  -0.2500000   0.7500000), wk =   0.7500000
        k(    6) = (   0.5000000   0.0000000   0.5000000), wk =   0.3750000
        k(    7) = (   0.0000000  -1.0000000   0.0000000), wk =   0.0937500
        k(    8) = (  -0.5000000  -1.0000000   0.0000000), wk =   0.1875000

     Dense  grid:     9185 G-vectors     FFT dimensions: (  30,  30,  30)

     Estimated max dynamical RAM per process >       8.79 MB

     Estimated total dynamical RAM >      43.96 MB

     Initial potential from superposition of free atoms

     starting charge   10.99989, renormalised to   11.00000
     Starting wfcs are    9 randomized atomic wfcs +    1 random wfcs
     Checking if some PAW data can be deallocated... 

     total cpu time spent up to now is        1.2 secs

     Self-consistent Calculation

     iteration #  1     ecut=    70.00 Ry     beta= 0.70
     Davidson diagonalization with overlap
     ethr =  1.00E-02,  avg # of iterations =  7.2

     Threshold (ethr) on eigenvalues was too large:
     Diagonalizing with lowered threshold

     Davidson diagonalization with overlap
     ethr =  4.74E-04,  avg # of iterations =  1.9

     total cpu time spent up to now is        1.6 secs

     total energy              =    -775.10256321 Ry
     Harris-Foulkes estimate   =    -775.13802567 Ry
     estimated scf accuracy    <       0.05219375 Ry

     iteration #  2     ecut=    70.00 Ry     beta= 0.70
     Davidson diagonalization with overlap
     ethr =  4.74E-04,  avg # of iterations =  2.9

     total cpu time spent up to now is        1.9 secs

     total energy              =    -775.11829322 Ry
     Harris-Foulkes estimate   =    -775.12713489 Ry
     estimated scf accuracy    <       0.01446177 Ry

     iteration #  3     ecut=    70.00 Ry     beta= 0.70
     Davidson diagonalization with overlap
     ethr =  1.31E-04,  avg # of iterations =  2.0

     total cpu time spent up to now is        2.1 secs

     total energy              =    -775.12147118 Ry
     Harris-Foulkes estimate   =    -775.12150144 Ry
     estimated scf accuracy    <       0.00022427 Ry

     iteration #  4     ecut=    70.00 Ry     beta= 0.70
     Davidson diagonalization with overlap
     ethr =  2.04E-06,  avg # of iterations =  3.8

     total cpu time spent up to now is        2.3 secs

     total energy              =    -775.12166388 Ry
     Harris-Foulkes estimate   =    -775.12175131 Ry
     estimated scf accuracy    <       0.00017684 Ry

     iteration #  5     ecut=    70.00 Ry     beta= 0.70
     Davidson diagonalization with overlap
     ethr =  1.61E-06,  avg # of iterations =  1.1

     total cpu time spent up to now is        2.6 secs

     total energy              =    -775.12167568 Ry
     Harris-Foulkes estimate   =    -775.12168236 Ry
     estimated scf accuracy    <       0.00001455 Ry

     iteration #  6     ecut=    70.00 Ry     beta= 0.70
     Davidson diagonalization with overlap
     ethr =  1.32E-07,  avg # of iterations =  3.0

     total cpu time spent up to now is        2.8 secs

     total energy              =    -775.12168142 Ry
     Harris-Foulkes estimate   =    -775.12168165 Ry
     estimated scf accuracy    <       0.00000026 Ry

     iteration #  7     ecut=    70.00 Ry     beta= 0.70
     Davidson diagonalization with overlap
     ethr =  2.37E-09,  avg # of iterations =  3.6

     total cpu time spent up to now is        3.0 secs

     total energy              =    -775.12168163 Ry
     Harris-Foulkes estimate   =    -775.12168169 Ry
     estimated scf accuracy    <       0.00000013 Ry

     iteration #  8     ecut=    70.00 Ry     beta= 0.70
     Davidson diagonalization with overlap
     ethr =  1.22E-09,  avg # of iterations =  1.1

     total cpu time spent up to now is        3.3 secs

     End of self-consistent calculation

          k = 0.0000 0.0000 0.0000 (  1139 PWs)   bands (ev):

     6.0714  11.2638  11.2638  11.2638  12.7929  12.7929  31.3848  35.2446
    35.2446  35.2446

          k =-0.2500 0.2500-0.2500 (  1131 PWs)   bands (ev):

     7.8750  11.1313  11.5471  11.5471  12.9618  12.9618  27.2737  32.3096
    36.1411  36.1411

          k = 0.5000-0.5000 0.5000 (  1158 PWs)   bands (ev):

     8.6242  11.2278  11.2278  13.9993  13.9993  14.9988  19.0618  30.6702
    33.5936  33.5936

          k = 0.0000 0.5000 0.0000 (  1118 PWs)   bands (ev):

     8.5024  10.1362  11.9658  12.5063  12.5063  13.3503  30.9528  30.9528
    32.3146  33.1189

          k = 0.7500-0.2500 0.7500 (  1128 PWs)   bands (ev):

     9.4904  10.4050  11.6149  12.4571  14.0889  17.0105  21.4542  27.5934
    29.6782  33.1677

          k = 0.5000 0.0000 0.5000 (  1125 PWs)   bands (ev):

     9.8525  10.7251  11.0696  12.1923  12.7844  15.6927  24.6128  26.2578
    33.0598  34.4406

          k = 0.0000-1.0000 0.0000 (  1138 PWs)   bands (ev):

     8.8758   9.1901  13.9564  14.3223  14.3223  17.0052  21.7729  26.2056
    26.2056  33.2025

          k =-0.5000-1.0000 0.0000 (  1144 PWs)   bands (ev):

     9.9841  10.7933  10.7933  12.6485  14.3242  20.7759  22.3221  22.3221
    25.4344  39.4427

     the Fermi energy is    16.8380 ev

!    total energy              =    -775.12168165 Ry
     Harris-Foulkes estimate   =    -775.12168165 Ry
     estimated scf accuracy    <          6.2E-09 Ry

     total all-electron energy =    -38023.967773 Ry

     The total energy is the sum of the following terms:

     one-electron contribution =      13.84993433 Ry
     hartree contribution      =       7.62957775 Ry
     xc contribution           =     -32.12126519 Ry
     ewald contribution        =     -71.95438534 Ry
     one-center paw contrib.   =    -692.52506039 Ry
     smearing contrib. (-TS)   =      -0.00048280 Ry

     convergence has been achieved in   8 iterations

     Forces acting on atoms (cartesian axes, Ry/au):

     atom    1 type  1   force =     0.00000000    0.00000000    0.00000000

     Total force =     0.000000     Total SCF correction =     0.000000


     Computing stress (Cartesian axis) and pressure

          total   stress  (Ry/bohr**3)                   (kbar)     P=  127.90
   0.00086948   0.00000000  -0.00000000        127.90      0.00     -0.00
   0.00000000   0.00086948  -0.00000000          0.00    127.90     -0.00
   0.00000000  -0.00000000   0.00086948          0.00     -0.00    127.90


     Writing output data file Au.save/

     init_run     :      0.34s CPU      0.36s WALL (       1 calls)
     electrons    :      1.91s CPU      2.07s WALL (       1 calls)
     forces       :      0.04s CPU      0.04s WALL (       1 calls)
     stress       :      0.12s CPU      0.12s WALL (       1 calls)

     Called by init_run:
     wfcinit      :      0.03s CPU      0.03s WALL (       1 calls)
     potinit      :      0.11s CPU      0.12s WALL (       1 calls)
     hinit0       :      0.18s CPU      0.18s WALL (       1 calls)

     Called by electrons:
     c_bands      :      0.72s CPU      0.76s WALL (       9 calls)
     sum_band     :      0.21s CPU      0.21s WALL (       9 calls)
     v_of_rho     :      0.05s CPU      0.05s WALL (       9 calls)
     newd         :      0.09s CPU      0.10s WALL (       9 calls)
     PAW_pot      :      0.95s CPU      1.06s WALL (       9 calls)
     mix_rho      :      0.00s CPU      0.00s WALL (       9 calls)

     Called by c_bands:
     init_us_2    :      0.03s CPU      0.03s WALL (     168 calls)
     cegterg      :      0.69s CPU      0.73s WALL (      72 calls)

     Called by sum_band:
     sum_band:bec :      0.00s CPU      0.00s WALL (      72 calls)
     addusdens    :      0.08s CPU      0.08s WALL (       9 calls)

     Called by *egterg:
     h_psi        :      0.53s CPU      0.56s WALL (     293 calls)
     s_psi        :      0.02s CPU      0.02s WALL (     293 calls)
     g_psi        :      0.00s CPU      0.00s WALL (     213 calls)
     cdiaghg      :      0.07s CPU      0.07s WALL (     277 calls)

     Called by h_psi:
     h_psi:pot    :      0.53s CPU      0.56s WALL (     293 calls)
     h_psi:calbec :      0.03s CPU      0.03s WALL (     293 calls)
     vloc_psi     :      0.48s CPU      0.51s WALL (     293 calls)
     add_vuspsi   :      0.02s CPU      0.02s WALL (     293 calls)

     General routines
     calbec       :      0.05s CPU      0.05s WALL (     405 calls)
     fft          :      0.03s CPU      0.03s WALL (     126 calls)
     ffts         :      0.00s CPU      0.00s WALL (       9 calls)
     fftw         :      0.53s CPU      0.56s WALL (    4764 calls)

     Parallel routines
     fft_scatt_xy :      0.05s CPU      0.05s WALL (    4899 calls)
     fft_scatt_yz :      0.14s CPU      0.14s WALL (    4899 calls)

     PWSCF        :     3.30s CPU         3.54s WALL


   This run was terminated on:  12: 7: 6  26Mar2024            

=------------------------------------------------------------------------------=
   JOB DONE.
=------------------------------------------------------------------------------=
