
     Program PWSCF v.6.3MaX starts on 26Mar2024 at 12: 8:57 

     This program is part of the open-source Quantum ESPRESSO suite
     for quantum simulation of materials; please cite
         "P. Giannozzi et al., J. Phys.:Condens. Matter 21 395502 (2009);
         "P. Giannozzi et al., J. Phys.:Condens. Matter 29 465901 (2017);
          URL http://www.quantum-espresso.org", 
     in publications or presentations arising from this work. More details at
     http://www.quantum-espresso.org/quote

     Parallel version (MPI), running on     5 processors

     MPI processes distributed on     1 nodes
     R & G space division:  proc/nbgrp/npool/nimage =       5
     Waiting for input...
     Reading input from standard input

     Current dimensions of program PWSCF are:
     Max number of different atomic species (ntypx) = 10
     Max number of k-points (npk) =  40000
     Max angular momentum in pseudopotentials (lmaxx) =  3

     Subspace diagonalization in iterative solution of the eigenvalue problem:
     a serial algorithm will be used


     Parallelization info
     --------------------
     sticks:   dense  smooth     PW     G-vecs:    dense   smooth      PW
     Min         116     116     37                 1836     1836     327
     Max         117     117     38                 1838     1838     329
     Sum         583     583    187                 9185     9185    1639



     bravais-lattice index     =            2
     lattice parameter (alat)  =       7.7100  a.u.
     unit-cell volume          =     114.5785 (a.u.)^3
     number of atoms/cell      =            1
     number of atomic types    =            1
     number of electrons       =        11.00
     number of Kohn-Sham states=           10
     kinetic-energy cutoff     =      70.0000  Ry
     charge density cutoff     =     280.0000  Ry
     convergence threshold     =      1.0E-08
     mixing beta               =       0.7000
     number of iterations used =            8  plain     mixing
     Exchange-correlation      = PBE ( 1  4  3  4 0 0)

     celldm(1)=   7.710000  celldm(2)=   0.000000  celldm(3)=   0.000000
     celldm(4)=   0.000000  celldm(5)=   0.000000  celldm(6)=   0.000000

     crystal axes: (cart. coord. in units of alat)
               a(1) = (  -0.500000   0.000000   0.500000 )  
               a(2) = (   0.000000   0.500000   0.500000 )  
               a(3) = (  -0.500000   0.500000   0.000000 )  

     reciprocal axes: (cart. coord. in units 2 pi/alat)
               b(1) = ( -1.000000 -1.000000  1.000000 )  
               b(2) = (  1.000000  1.000000  1.000000 )  
               b(3) = ( -1.000000  1.000000 -1.000000 )  


     PseudoPot. # 1 for Au read from file:
     /home/lorenzo/pseudos/Au/Au.pbe-n-rrkjus_psl.1.0.0.UPF
     MD5 check sum: d7e77ba19504afed2c9b41c931dde4f0
     Pseudo is Ultrasoft + core correction, Zval = 11.0
     Generated using "atomic" code by A. Dal Corso v.6.3
     Using radial grid of 1279 points,  6 beta functions with: 
                l(1) =   0
                l(2) =   0
                l(3) =   1
                l(4) =   1
                l(5) =   2
                l(6) =   2
     Q(r) pseudized with 0 coefficients 


     atomic species   valence    mass     pseudopotential
        Au            11.00   196.96600     Au( 1.00)

     48 Sym. Ops., with inversion, found



   Cartesian axes

     site n.     atom                  positions (alat units)
         1           Au  tau(   1) = (   0.0000000   0.0000000   0.0000000  )

     number of k points=    29  gaussian smearing, width (Ry)=  0.0100
                       cart. coord. in units 2pi/alat
        k(    1) = (   0.0000000   0.0000000   0.0000000), wk =   0.0039062
        k(    2) = (  -0.1250000   0.1250000  -0.1250000), wk =   0.0312500
        k(    3) = (  -0.2500000   0.2500000  -0.2500000), wk =   0.0312500
        k(    4) = (  -0.3750000   0.3750000  -0.3750000), wk =   0.0312500
        k(    5) = (   0.5000000  -0.5000000   0.5000000), wk =   0.0156250
        k(    6) = (   0.0000000   0.2500000   0.0000000), wk =   0.0234375
        k(    7) = (  -0.1250000   0.3750000  -0.1250000), wk =   0.0937500
        k(    8) = (  -0.2500000   0.5000000  -0.2500000), wk =   0.0937500
        k(    9) = (   0.6250000  -0.3750000   0.6250000), wk =   0.0937500
        k(   10) = (   0.5000000  -0.2500000   0.5000000), wk =   0.0937500
        k(   11) = (   0.3750000  -0.1250000   0.3750000), wk =   0.0937500
        k(   12) = (   0.2500000   0.0000000   0.2500000), wk =   0.0468750
        k(   13) = (   0.0000000   0.5000000   0.0000000), wk =   0.0234375
        k(   14) = (  -0.1250000   0.6250000  -0.1250000), wk =   0.0937500
        k(   15) = (   0.7500000  -0.2500000   0.7500000), wk =   0.0937500
        k(   16) = (   0.6250000  -0.1250000   0.6250000), wk =   0.0937500
        k(   17) = (   0.5000000   0.0000000   0.5000000), wk =   0.0468750
        k(   18) = (   0.0000000   0.7500000   0.0000000), wk =   0.0234375
        k(   19) = (   0.8750000  -0.1250000   0.8750000), wk =   0.0937500
        k(   20) = (   0.7500000   0.0000000   0.7500000), wk =   0.0468750
        k(   21) = (   0.0000000  -1.0000000   0.0000000), wk =   0.0117188
        k(   22) = (  -0.2500000   0.5000000   0.0000000), wk =   0.0937500
        k(   23) = (   0.6250000  -0.3750000   0.8750000), wk =   0.1875000
        k(   24) = (   0.5000000  -0.2500000   0.7500000), wk =   0.0937500
        k(   25) = (   0.7500000  -0.2500000   1.0000000), wk =   0.0937500
        k(   26) = (   0.6250000  -0.1250000   0.8750000), wk =   0.1875000
        k(   27) = (   0.5000000   0.0000000   0.7500000), wk =   0.0937500
        k(   28) = (  -0.2500000  -1.0000000   0.0000000), wk =   0.0468750
        k(   29) = (  -0.5000000  -1.0000000   0.0000000), wk =   0.0234375

     Dense  grid:     9185 G-vectors     FFT dimensions: (  30,  30,  30)

     Estimated max dynamical RAM per process >       9.52 MB

     Estimated total dynamical RAM >      47.58 MB

     Initial potential from superposition of free atoms

     starting charge   10.99989, renormalised to   11.00000
     Starting wfcs are    9 randomized atomic wfcs +    1 random wfcs

     total cpu time spent up to now is        1.2 secs

     Self-consistent Calculation

     iteration #  1     ecut=    70.00 Ry     beta= 0.70
     Davidson diagonalization with overlap
     ethr =  1.00E-02,  avg # of iterations =  5.5

     Threshold (ethr) on eigenvalues was too large:
     Diagonalizing with lowered threshold

     Davidson diagonalization with overlap
     ethr =  4.65E-04,  avg # of iterations =  1.9

     total cpu time spent up to now is        2.0 secs

     total energy              =     -85.36818332 Ry
     Harris-Foulkes estimate   =     -85.40061716 Ry
     estimated scf accuracy    <       0.05139630 Ry

     iteration #  2     ecut=    70.00 Ry     beta= 0.70
     Davidson diagonalization with overlap
     ethr =  4.67E-04,  avg # of iterations =  2.5

     total cpu time spent up to now is        2.6 secs

     total energy              =     -85.38189931 Ry
     Harris-Foulkes estimate   =     -85.38861333 Ry
     estimated scf accuracy    <       0.01070452 Ry

     iteration #  3     ecut=    70.00 Ry     beta= 0.70
     Davidson diagonalization with overlap
     ethr =  9.73E-05,  avg # of iterations =  2.3

     total cpu time spent up to now is        3.0 secs

     total energy              =     -85.38444968 Ry
     Harris-Foulkes estimate   =     -85.38449444 Ry
     estimated scf accuracy    <       0.00017079 Ry

     iteration #  4     ecut=    70.00 Ry     beta= 0.70
     Davidson diagonalization with overlap
     ethr =  1.55E-06,  avg # of iterations =  4.0

     total cpu time spent up to now is        3.6 secs

     total energy              =     -85.38457178 Ry
     Harris-Foulkes estimate   =     -85.38461865 Ry
     estimated scf accuracy    <       0.00008799 Ry

     iteration #  5     ecut=    70.00 Ry     beta= 0.70
     Davidson diagonalization with overlap
     ethr =  8.00E-07,  avg # of iterations =  1.0

     total cpu time spent up to now is        3.8 secs

     total energy              =     -85.38457909 Ry
     Harris-Foulkes estimate   =     -85.38458171 Ry
     estimated scf accuracy    <       0.00000441 Ry

     iteration #  6     ecut=    70.00 Ry     beta= 0.70
     Davidson diagonalization with overlap
     ethr =  4.01E-08,  avg # of iterations =  3.0

     total cpu time spent up to now is        4.3 secs

     total energy              =     -85.38458292 Ry
     Harris-Foulkes estimate   =     -85.38458319 Ry
     estimated scf accuracy    <       0.00000078 Ry

     iteration #  7     ecut=    70.00 Ry     beta= 0.70
     Davidson diagonalization with overlap
     ethr =  7.06E-09,  avg # of iterations =  1.0

     total cpu time spent up to now is        4.6 secs

     total energy              =     -85.38458284 Ry
     Harris-Foulkes estimate   =     -85.38458296 Ry
     estimated scf accuracy    <       0.00000020 Ry

     iteration #  8     ecut=    70.00 Ry     beta= 0.70
     Davidson diagonalization with overlap
     ethr =  1.79E-09,  avg # of iterations =  2.8

     total cpu time spent up to now is        5.0 secs

     total energy              =     -85.38458291 Ry
     Harris-Foulkes estimate   =     -85.38458292 Ry
     estimated scf accuracy    <       0.00000003 Ry

     iteration #  9     ecut=    70.00 Ry     beta= 0.70
     Davidson diagonalization with overlap
     ethr =  2.38E-10,  avg # of iterations =  1.9

     total cpu time spent up to now is        5.3 secs

     End of self-consistent calculation

          k = 0.0000 0.0000 0.0000 (  1139 PWs)   bands (ev):

     6.0960  11.3166  11.3166  11.3166  12.8480  12.8480  31.3956  35.2605
    35.2605  35.2605

          k =-0.1250 0.1250-0.1250 (  1137 PWs)   bands (ev):

     6.6284  11.1638  11.4836  11.4836  12.7902  12.7902  31.6324  32.5543
    35.7548  35.7548

          k =-0.2500 0.2500-0.2500 (  1131 PWs)   bands (ev):

     7.9022  11.1781  11.5994  11.5994  13.0183  13.0183  27.3095  32.3246
    36.1742  36.1742

          k =-0.3750 0.3750-0.3750 (  1143 PWs)   bands (ev):

     8.6165  11.3943  11.3943  12.8216  13.6999  13.6999  22.3277  31.2042
    34.5556  34.5556

          k = 0.5000-0.5000 0.5000 (  1158 PWs)   bands (ev):

     8.6618  11.2776  11.2776  14.0616  14.0616  15.0236  19.1129  30.6834
    33.6229  33.6229

          k = 0.0000 0.2500 0.0000 (  1151 PWs)   bands (ev):

     6.8098  10.9606  11.6454  11.6454  12.4749  13.0074  32.1626  33.5014
    34.2763  34.2763

          k =-0.1250 0.3750-0.1250 (  1130 PWs)   bands (ev):

     7.8934  10.6863  11.7117  11.9159  12.6167  13.2586  29.2807  32.7473
    33.2503  35.3792

          k =-0.2500 0.5000-0.2500 (  1141 PWs)   bands (ev):

     8.9112  11.2070  11.3030  11.8089  13.8275  13.9750  24.1612  31.7474
    32.3604  33.9011

          k = 0.6250-0.3750 0.6250 (  1133 PWs)   bands (ev):

     9.0419  11.0448  11.6119  12.5044  14.0866  16.3390  19.6958  30.6373
    32.2955  32.3520

          k = 0.5000-0.2500 0.5000 (  1131 PWs)   bands (ev):

     9.0671  11.1249  11.6055  12.3713  13.6055  15.6361  21.0970  30.1584
    32.1175  34.0506

          k = 0.3750-0.1250 0.3750 (  1130 PWs)   bands (ev):

     8.7256  10.9831  11.5025  11.8233  12.7379  14.1070  25.8787  30.5497
    33.5141  37.3021

          k = 0.2500 0.0000 0.2500 (  1151 PWs)   bands (ev):

     7.4529  10.9002  11.6644  11.7581  12.4464  13.1848  30.3324  31.5216
    34.6422  36.7061

          k = 0.0000 0.5000 0.0000 (  1118 PWs)   bands (ev):

     8.5296  10.1839  12.0122  12.5631  12.5631  13.4075  30.9853  30.9853
    32.3392  33.1621

          k =-0.1250 0.6250-0.1250 (  1128 PWs)   bands (ev):

     9.2829  10.0041  11.8007  12.7365  13.8861  14.1265  26.2945  29.6380
    29.8951  33.4880

          k = 0.7500-0.2500 0.7500 (  1128 PWs)   bands (ev):

     9.5313  10.4480  11.6620  12.5110  14.1518  17.0582  21.4904  27.6323
    29.7099  33.1953

          k = 0.6250-0.1250 0.6250 (  1137 PWs)   bands (ev):

     9.8081  10.7246  11.5589  12.3278  13.6477  17.9385  20.9009  25.9795
    31.5040  32.8993

          k = 0.5000 0.0000 0.5000 (  1125 PWs)   bands (ev):

     9.8889  10.7727  11.1132  12.2437  12.8430  15.7476  24.6485  26.2999
    33.0807  34.4768

          k = 0.0000 0.7500 0.0000 (  1126 PWs)   bands (ev):

     9.1012   9.4977  13.7542  13.7542  13.8322  14.0476  26.0936  27.6511
    27.6511  32.8749

          k = 0.8750-0.1250 0.8750 (  1135 PWs)   bands (ev):

     9.1847   9.5256  13.1853  13.5809  14.2469  17.1623  22.7088  25.5295
    27.2653  33.9576

          k = 0.7500 0.0000 0.7500 (  1136 PWs)   bands (ev):

     9.5305  10.1539  12.1727  13.1392  13.9382  19.9374  20.7075  23.4756
    28.8044  33.7897

          k = 0.0000-1.0000 0.0000 (  1138 PWs)   bands (ev):

     8.9128   9.2344  14.0161  14.3876  14.3876  17.0312  21.8186  26.2319
    26.2319  33.2382

          k =-0.2500 0.5000 0.0000 (  1131 PWs)   bands (ev):

     9.0219  10.3943  11.3579  12.5649  12.6533  14.1459  27.4665  29.1691
    32.5844  35.6603

          k = 0.6250-0.3750 0.8750 (  1136 PWs)   bands (ev):

     9.6862  10.8197  11.0220  12.3665  13.5664  15.8960  23.0878  28.0683
    30.5832  35.0299

          k = 0.5000-0.2500 0.7500 (  1128 PWs)   bands (ev):

     9.6885  10.6378  11.7475  12.1595  13.9236  18.6695  19.1215  28.3175
    29.3521  34.2699

          k = 0.7500-0.2500 1.0000 (  1129 PWs)   bands (ev):

     9.6060   9.8555  11.8323  13.4494  13.7449  16.1626  24.4667  26.3733
    27.8508  35.8332

          k = 0.6250-0.1250 0.8750 (  1133 PWs)   bands (ev):

     9.8493  10.2941  11.5065  12.9225  14.1080  19.1863  21.2301  24.8304
    27.2119  35.9091

          k = 0.5000 0.0000 0.7500 (  1138 PWs)   bands (ev):

    10.2950  10.5899  10.8674  12.7119  13.7475  18.0977  23.2161  23.6107
    28.7395  35.9692

          k =-0.2500-1.0000 0.0000 (  1134 PWs)   bands (ev):

     9.3710   9.6410  12.7287  13.4682  14.3886  19.1773  21.2689  25.0892
    25.7563  36.0576

          k =-0.5000-1.0000 0.0000 (  1144 PWs)   bands (ev):

    10.0246  10.8407  10.8407  12.7002  14.3896  20.8136  22.3602  22.3602
    25.4771  39.4566

     the Fermi energy is    15.9905 ev

!    total energy              =     -85.38458291 Ry
     Harris-Foulkes estimate   =     -85.38458291 Ry
     estimated scf accuracy    <          3.3E-09 Ry

     The total energy is the sum of the following terms:

     one-electron contribution =      11.08002669 Ry
     hartree contribution      =       7.59634878 Ry
     xc contribution           =     -32.10618721 Ry
     ewald contribution        =     -71.95438534 Ry
     smearing contrib. (-TS)   =      -0.00038584 Ry

     convergence has been achieved in   9 iterations

     Forces acting on atoms (cartesian axes, Ry/au):

     atom    1 type  1   force =     0.00000000    0.00000000    0.00000000

     Total force =     0.000000     Total SCF correction =     0.000000


     Computing stress (Cartesian axis) and pressure

          total   stress  (Ry/bohr**3)                   (kbar)     P=  113.27
   0.00076999  -0.00000000   0.00000000        113.27     -0.00      0.00
  -0.00000000   0.00076999  -0.00000000         -0.00    113.27     -0.00
   0.00000000  -0.00000000   0.00076999          0.00     -0.00    113.27


     Writing output data file Au.save/

     init_run     :      0.29s CPU      0.31s WALL (       1 calls)
     electrons    :      3.96s CPU      4.12s WALL (       1 calls)
     forces       :      0.05s CPU      0.05s WALL (       1 calls)
     stress       :      0.16s CPU      0.16s WALL (       1 calls)

     Called by init_run:
     wfcinit      :      0.10s CPU      0.11s WALL (       1 calls)
     potinit      :      0.01s CPU      0.01s WALL (       1 calls)
     hinit0       :      0.17s CPU      0.17s WALL (       1 calls)

     Called by electrons:
     c_bands      :      3.17s CPU      3.30s WALL (      10 calls)
     sum_band     :      0.64s CPU      0.67s WALL (      10 calls)
     v_of_rho     :      0.05s CPU      0.05s WALL (      10 calls)
     newd         :      0.09s CPU      0.09s WALL (      10 calls)
     mix_rho      :      0.01s CPU      0.01s WALL (      10 calls)

     Called by c_bands:
     init_us_2    :      0.09s CPU      0.10s WALL (     667 calls)
     cegterg      :      3.03s CPU      3.16s WALL (     290 calls)

     Called by sum_band:
     sum_band:bec :      0.00s CPU      0.00s WALL (     290 calls)
     addusdens    :      0.09s CPU      0.09s WALL (      10 calls)

     Called by *egterg:
     h_psi        :      2.38s CPU      2.49s WALL (    1071 calls)
     s_psi        :      0.08s CPU      0.08s WALL (    1071 calls)
     g_psi        :      0.01s CPU      0.01s WALL (     752 calls)
     cdiaghg      :      0.25s CPU      0.26s WALL (    1013 calls)

     Called by h_psi:
     h_psi:pot    :      2.37s CPU      2.47s WALL (    1071 calls)
     h_psi:calbec :      0.11s CPU      0.12s WALL (    1071 calls)
     vloc_psi     :      2.17s CPU      2.26s WALL (    1071 calls)
     add_vuspsi   :      0.08s CPU      0.08s WALL (    1071 calls)

     General routines
     calbec       :      0.18s CPU      0.18s WALL (    1506 calls)
     fft          :      0.03s CPU      0.03s WALL (     137 calls)
     ffts         :      0.00s CPU      0.00s WALL (      10 calls)
     fftw         :      2.45s CPU      2.56s WALL (   18488 calls)

     Parallel routines
     fft_scatt_xy :      0.21s CPU      0.22s WALL (   18635 calls)
     fft_scatt_yz :      0.63s CPU      0.66s WALL (   18635 calls)

     PWSCF        :     5.35s CPU         5.58s WALL


   This run was terminated on:  12: 9: 2  26Mar2024            

=------------------------------------------------------------------------------=
   JOB DONE.
=------------------------------------------------------------------------------=
