
     Program PWSCF v.6.3MaX starts on 26Mar2024 at 12:11:41 

     This program is part of the open-source Quantum ESPRESSO suite
     for quantum simulation of materials; please cite
         "P. Giannozzi et al., J. Phys.:Condens. Matter 21 395502 (2009);
         "P. Giannozzi et al., J. Phys.:Condens. Matter 29 465901 (2017);
          URL http://www.quantum-espresso.org", 
     in publications or presentations arising from this work. More details at
     http://www.quantum-espresso.org/quote

     Parallel version (MPI), running on     5 processors

     MPI processes distributed on     1 nodes
     R & G space division:  proc/nbgrp/npool/nimage =       5
     Waiting for input...
     Reading input from standard input

     Current dimensions of program PWSCF are:
     Max number of different atomic species (ntypx) = 10
     Max number of k-points (npk) =  40000
     Max angular momentum in pseudopotentials (lmaxx) =  3
               file Au.pbesol-n-kjpaw_psl.1.0.0.UPF: wavefunction(s)  6S 5D renormalized

     Subspace diagonalization in iterative solution of the eigenvalue problem:
     a serial algorithm will be used


     Parallelization info
     --------------------
     sticks:   dense  smooth     PW     G-vecs:    dense   smooth      PW
     Min         122     122     39                 1997     1997     361
     Max         123     123     40                 1997     1997     363
     Sum         613     613    199                 9985     9985    1807



     bravais-lattice index     =            2
     lattice parameter (alat)  =       7.7100  a.u.
     unit-cell volume          =     114.5785 (a.u.)^3
     number of atoms/cell      =            1
     number of atomic types    =            1
     number of electrons       =        11.00
     number of Kohn-Sham states=           10
     kinetic-energy cutoff     =      75.0000  Ry
     charge density cutoff     =     300.0000  Ry
     convergence threshold     =      1.0E-08
     mixing beta               =       0.7000
     number of iterations used =            8  plain     mixing
     Exchange-correlation      = SLA PW PSX PSC ( 1  4 10  8 0 0)

     celldm(1)=   7.710000  celldm(2)=   0.000000  celldm(3)=   0.000000
     celldm(4)=   0.000000  celldm(5)=   0.000000  celldm(6)=   0.000000

     crystal axes: (cart. coord. in units of alat)
               a(1) = (  -0.500000   0.000000   0.500000 )  
               a(2) = (   0.000000   0.500000   0.500000 )  
               a(3) = (  -0.500000   0.500000   0.000000 )  

     reciprocal axes: (cart. coord. in units 2 pi/alat)
               b(1) = ( -1.000000 -1.000000  1.000000 )  
               b(2) = (  1.000000  1.000000  1.000000 )  
               b(3) = ( -1.000000  1.000000 -1.000000 )  


     PseudoPot. # 1 for Au read from file:
     /home/lorenzo/pseudos/Au/Au.pbesol-n-kjpaw_psl.1.0.0.UPF
     MD5 check sum: abc371be705c47a6b6a6b4088b452d3e
     Pseudo is Projector augmented-wave + core cor, Zval = 11.0
     Generated using "atomic" code by A. Dal Corso v.6.3
     Shape of augmentation charge: PSQ
     Using radial grid of 1279 points,  6 beta functions with: 
                l(1) =   0
                l(2) =   0
                l(3) =   1
                l(4) =   1
                l(5) =   2
                l(6) =   2
     Q(r) pseudized with 0 coefficients 


     atomic species   valence    mass     pseudopotential
        Au            11.00   196.96600     Au( 1.00)

     48 Sym. Ops., with inversion, found



   Cartesian axes

     site n.     atom                  positions (alat units)
         1           Au  tau(   1) = (   0.0000000   0.0000000   0.0000000  )

     number of k points=    56  gaussian smearing, width (Ry)=  0.0100
                       cart. coord. in units 2pi/alat
        k(    1) = (   0.0000000   0.0000000   0.0000000), wk =   0.0015026
        k(    2) = (  -0.0909091   0.0909091  -0.0909091), wk =   0.0120210
        k(    3) = (  -0.1818182   0.1818182  -0.1818182), wk =   0.0120210
        k(    4) = (  -0.2727273   0.2727273  -0.2727273), wk =   0.0120210
        k(    5) = (  -0.3636364   0.3636364  -0.3636364), wk =   0.0120210
        k(    6) = (  -0.4545455   0.4545455  -0.4545455), wk =   0.0120210
        k(    7) = (   0.0000000   0.1818182   0.0000000), wk =   0.0090158
        k(    8) = (  -0.0909091   0.2727273  -0.0909091), wk =   0.0360631
        k(    9) = (  -0.1818182   0.3636364  -0.1818182), wk =   0.0360631
        k(   10) = (  -0.2727273   0.4545455  -0.2727273), wk =   0.0360631
        k(   11) = (  -0.3636364   0.5454545  -0.3636364), wk =   0.0360631
        k(   12) = (   0.5454545  -0.3636364   0.5454545), wk =   0.0360631
        k(   13) = (   0.4545455  -0.2727273   0.4545455), wk =   0.0360631
        k(   14) = (   0.3636364  -0.1818182   0.3636364), wk =   0.0360631
        k(   15) = (   0.2727273  -0.0909091   0.2727273), wk =   0.0360631
        k(   16) = (   0.1818182  -0.0000000   0.1818182), wk =   0.0180316
        k(   17) = (   0.0000000   0.3636364   0.0000000), wk =   0.0090158
        k(   18) = (  -0.0909091   0.4545455  -0.0909091), wk =   0.0360631
        k(   19) = (  -0.1818182   0.5454545  -0.1818182), wk =   0.0360631
        k(   20) = (  -0.2727273   0.6363636  -0.2727273), wk =   0.0360631
        k(   21) = (   0.6363636  -0.2727273   0.6363636), wk =   0.0360631
        k(   22) = (   0.5454545  -0.1818182   0.5454545), wk =   0.0360631
        k(   23) = (   0.4545455  -0.0909091   0.4545455), wk =   0.0360631
        k(   24) = (   0.3636364   0.0000000   0.3636364), wk =   0.0180316
        k(   25) = (   0.0000000   0.5454545   0.0000000), wk =   0.0090158
        k(   26) = (  -0.0909091   0.6363636  -0.0909091), wk =   0.0360631
        k(   27) = (  -0.1818182   0.7272727  -0.1818182), wk =   0.0360631
        k(   28) = (   0.7272727  -0.1818182   0.7272727), wk =   0.0360631
        k(   29) = (   0.6363636  -0.0909091   0.6363636), wk =   0.0360631
        k(   30) = (   0.5454545   0.0000000   0.5454545), wk =   0.0180316
        k(   31) = (   0.0000000   0.7272727   0.0000000), wk =   0.0090158
        k(   32) = (  -0.0909091   0.8181818  -0.0909091), wk =   0.0360631
        k(   33) = (   0.8181818  -0.0909091   0.8181818), wk =   0.0360631
        k(   34) = (   0.7272727   0.0000000   0.7272727), wk =   0.0180316
        k(   35) = (   0.0000000   0.9090909   0.0000000), wk =   0.0090158
        k(   36) = (   0.9090909  -0.0000000   0.9090909), wk =   0.0180316
        k(   37) = (  -0.1818182   0.3636364   0.0000000), wk =   0.0360631
        k(   38) = (  -0.2727273   0.4545455  -0.0909091), wk =   0.0721262
        k(   39) = (  -0.3636364   0.5454545  -0.1818182), wk =   0.0721262
        k(   40) = (   0.5454545  -0.3636364   0.7272727), wk =   0.0721262
        k(   41) = (  -0.1818182   0.5454545   0.0000000), wk =   0.0360631
        k(   42) = (  -0.2727273   0.6363636  -0.0909091), wk =   0.0721262
        k(   43) = (   0.6363636  -0.2727273   0.8181818), wk =   0.0721262
        k(   44) = (   0.5454545  -0.1818182   0.7272727), wk =   0.0721262
        k(   45) = (   0.4545455  -0.0909091   0.6363636), wk =   0.0721262
        k(   46) = (   0.3636364   0.0000000   0.5454545), wk =   0.0360631
        k(   47) = (  -0.1818182   0.7272727   0.0000000), wk =   0.0360631
        k(   48) = (   0.7272727  -0.1818182   0.9090909), wk =   0.0721262
        k(   49) = (   0.6363636  -0.0909091   0.8181818), wk =   0.0721262
        k(   50) = (   0.5454545   0.0000000   0.7272727), wk =   0.0360631
        k(   51) = (   0.8181818  -0.0909091   1.0000000), wk =   0.0360631
        k(   52) = (   0.7272727   0.0000000   0.9090909), wk =   0.0360631
        k(   53) = (   0.6363636  -0.2727273   1.0000000), wk =   0.0360631
        k(   54) = (   0.5454545  -0.1818182   0.9090909), wk =   0.0721262
        k(   55) = (   0.6363636  -0.0909091   1.0000000), wk =   0.0360631
        k(   56) = (   0.5454545   0.0000000   0.9090909), wk =   0.0360631

     Dense  grid:     9985 G-vectors     FFT dimensions: (  32,  32,  32)

     Estimated max dynamical RAM per process >      11.40 MB

     Estimated total dynamical RAM >      57.02 MB

     Initial potential from superposition of free atoms

     starting charge   10.99990, renormalised to   11.00000
     Starting wfcs are    9 randomized atomic wfcs +    1 random wfcs
     Checking if some PAW data can be deallocated... 

     total cpu time spent up to now is        1.4 secs

     Self-consistent Calculation

     iteration #  1     ecut=    75.00 Ry     beta= 0.70
     Davidson diagonalization with overlap
     ethr =  1.00E-02,  avg # of iterations =  5.2

     Threshold (ethr) on eigenvalues was too large:
     Diagonalizing with lowered threshold

     Davidson diagonalization with overlap
     ethr =  5.62E-04,  avg # of iterations =  1.6

     total cpu time spent up to now is        3.1 secs

     total energy              =    -764.65943076 Ry
     Harris-Foulkes estimate   =    -764.70289355 Ry
     estimated scf accuracy    <       0.06293480 Ry

     iteration #  2     ecut=    75.00 Ry     beta= 0.70
     Davidson diagonalization with overlap
     ethr =  5.72E-04,  avg # of iterations =  3.0

     negative rho (up, down):  1.598E-02 0.000E+00

     total cpu time spent up to now is        4.1 secs

     total energy              =    -764.70121247 Ry
     Harris-Foulkes estimate   =    -764.69268046 Ry
     estimated scf accuracy    <       0.05918119 Ry

     iteration #  3     ecut=    75.00 Ry     beta= 0.70
     Davidson diagonalization with overlap
     ethr =  5.38E-04,  avg # of iterations =  4.4

     total cpu time spent up to now is        5.3 secs

     total energy              =    -730.55178265 Ry
     Harris-Foulkes estimate   =    -780.01728630 Ry
     estimated scf accuracy    <  155588.95758027 Ry

     iteration #  4     ecut=    75.00 Ry     beta= 0.70
     Davidson diagonalization with overlap
     ethr =  5.38E-04,  avg # of iterations =  6.4

     total cpu time spent up to now is        6.6 secs

     total energy              =    -764.68391286 Ry
     Harris-Foulkes estimate   =    -764.68390722 Ry
     estimated scf accuracy    <       0.01834825 Ry

     iteration #  5     ecut=    75.00 Ry     beta= 0.70
     Davidson diagonalization with overlap
     ethr =  1.67E-04,  avg # of iterations =  1.1

     total cpu time spent up to now is        7.2 secs

     total energy              =    -764.68393909 Ry
     Harris-Foulkes estimate   =    -764.68394717 Ry
     estimated scf accuracy    <       0.01797420 Ry

     iteration #  6     ecut=    75.00 Ry     beta= 0.70
     Davidson diagonalization with overlap
     ethr =  1.63E-04,  avg # of iterations =  1.1

     total cpu time spent up to now is        7.9 secs

     total energy              =    -764.68393717 Ry
     Harris-Foulkes estimate   =    -764.68394200 Ry
     estimated scf accuracy    <       0.01786925 Ry

     iteration #  7     ecut=    75.00 Ry     beta= 0.70
     Davidson diagonalization with overlap
     ethr =  1.62E-04,  avg # of iterations =  1.0

     total cpu time spent up to now is        8.5 secs

     total energy              =    -764.68393291 Ry
     Harris-Foulkes estimate   =    -764.68393804 Ry
     estimated scf accuracy    <       0.01781645 Ry

     iteration #  8     ecut=    75.00 Ry     beta= 0.70
     Davidson diagonalization with overlap
     ethr =  1.62E-04,  avg # of iterations =  1.2

     total cpu time spent up to now is        9.2 secs

     total energy              =    -764.68392748 Ry
     Harris-Foulkes estimate   =    -764.68393324 Ry
     estimated scf accuracy    <       0.01772760 Ry

     iteration #  9     ecut=    75.00 Ry     beta= 0.70
     Davidson diagonalization with overlap
     ethr =  1.61E-04,  avg # of iterations =  1.0

     total cpu time spent up to now is        9.9 secs

     total energy              =    -764.68392573 Ry
     Harris-Foulkes estimate   =    -764.68392763 Ry
     estimated scf accuracy    <       0.01762606 Ry

     iteration # 10     ecut=    75.00 Ry     beta= 0.70
     Davidson diagonalization with overlap
     ethr =  1.60E-04,  avg # of iterations =  1.0

     total cpu time spent up to now is       10.5 secs

     total energy              =    -764.68393134 Ry
     Harris-Foulkes estimate   =    -764.68392580 Ry
     estimated scf accuracy    <       0.01757332 Ry

     iteration # 11     ecut=    75.00 Ry     beta= 0.70
     Davidson diagonalization with overlap
     ethr =  1.60E-04,  avg # of iterations =  1.0

     total cpu time spent up to now is       11.3 secs

     total energy              =    -764.68391475 Ry
     Harris-Foulkes estimate   =    -764.68393137 Ry
     estimated scf accuracy    <       0.01756343 Ry

     iteration # 12     ecut=    75.00 Ry     beta= 0.70
     Davidson diagonalization with overlap
     ethr =  1.60E-04,  avg # of iterations =  1.0

     total cpu time spent up to now is       12.0 secs

     total energy              =    -764.68229536 Ry
     Harris-Foulkes estimate   =    -764.68391485 Ry
     estimated scf accuracy    <       0.01731865 Ry

     iteration # 13     ecut=    75.00 Ry     beta= 0.70
     Davidson diagonalization with overlap
     ethr =  1.57E-04,  avg # of iterations =  2.2

     total cpu time spent up to now is       12.7 secs

     total energy              =    -764.68288128 Ry
     Harris-Foulkes estimate   =    -764.68291965 Ry
     estimated scf accuracy    <       0.00181460 Ry

     iteration # 14     ecut=    75.00 Ry     beta= 0.70
     Davidson diagonalization with overlap
     ethr =  1.65E-05,  avg # of iterations =  1.5

     total cpu time spent up to now is       13.5 secs

     total energy              =    -764.68285746 Ry
     Harris-Foulkes estimate   =    -764.68288962 Ry
     estimated scf accuracy    <       0.00164873 Ry

     iteration # 15     ecut=    75.00 Ry     beta= 0.70
     Davidson diagonalization with overlap
     ethr =  1.50E-05,  avg # of iterations =  1.1

     total cpu time spent up to now is       14.2 secs

     total energy              =    -764.68281988 Ry
     Harris-Foulkes estimate   =    -764.68286363 Ry
     estimated scf accuracy    <       0.00117127 Ry

     iteration # 16     ecut=    75.00 Ry     beta= 0.70
     Davidson diagonalization with overlap
     ethr =  1.06E-05,  avg # of iterations =  1.9

     total cpu time spent up to now is       15.0 secs

     total energy              =    -764.68278692 Ry
     Harris-Foulkes estimate   =    -764.68282878 Ry
     estimated scf accuracy    <       0.00076997 Ry

     iteration # 17     ecut=    75.00 Ry     beta= 0.70
     Davidson diagonalization with overlap
     ethr =  7.00E-06,  avg # of iterations =  2.7

     total cpu time spent up to now is       15.7 secs

     total energy              =    -764.68279968 Ry
     Harris-Foulkes estimate   =    -764.68280568 Ry
     estimated scf accuracy    <       0.00024657 Ry

     iteration # 18     ecut=    75.00 Ry     beta= 0.70
     Davidson diagonalization with overlap
     ethr =  2.24E-06,  avg # of iterations =  2.4

     total cpu time spent up to now is       16.5 secs

     total energy              =    -764.68279484 Ry
     Harris-Foulkes estimate   =    -764.68280667 Ry
     estimated scf accuracy    <       0.00011754 Ry

     iteration # 19     ecut=    75.00 Ry     beta= 0.70
     Davidson diagonalization with overlap
     ethr =  1.07E-06,  avg # of iterations =  3.1

     total cpu time spent up to now is       17.3 secs

     total energy              =    -764.68280779 Ry
     Harris-Foulkes estimate   =    -764.68280817 Ry
     estimated scf accuracy    <       0.00000620 Ry

     iteration # 20     ecut=    75.00 Ry     beta= 0.70
     Davidson diagonalization with overlap
     ethr =  5.64E-08,  avg # of iterations =  1.9

     total cpu time spent up to now is       18.2 secs

     total energy              =    -764.68280802 Ry
     Harris-Foulkes estimate   =    -764.68280829 Ry
     estimated scf accuracy    <       0.00000568 Ry

     iteration # 21     ecut=    75.00 Ry     beta= 0.70
     Davidson diagonalization with overlap
     ethr =  5.16E-08,  avg # of iterations =  1.0

     total cpu time spent up to now is       18.8 secs

     total energy              =    -764.68280779 Ry
     Harris-Foulkes estimate   =    -764.68280811 Ry
     estimated scf accuracy    <       0.00000292 Ry

     iteration # 22     ecut=    75.00 Ry     beta= 0.70
     Davidson diagonalization with overlap
     ethr =  2.66E-08,  avg # of iterations =  2.0

     total cpu time spent up to now is       19.6 secs

     total energy              =    -764.68280807 Ry
     Harris-Foulkes estimate   =    -764.68280807 Ry
     estimated scf accuracy    <       0.00000002 Ry

     iteration # 23     ecut=    75.00 Ry     beta= 0.70
     Davidson diagonalization with overlap
     ethr =  1.81E-10,  avg # of iterations =  3.9

     total cpu time spent up to now is       20.5 secs

     End of self-consistent calculation

          k = 0.0000 0.0000 0.0000 (  1243 PWs)   bands (ev):

     5.8127  11.0803  11.0803  11.0803  12.6175  12.6175  31.1340  34.9831
    34.9831  34.9831

          k =-0.0909 0.0909-0.0909 (  1255 PWs)   bands (ev):

     6.0991  10.9902  11.1769  11.1769  12.5778  12.5778  31.4167  33.1668
    35.2575  35.2575

          k =-0.1818 0.1818-0.1818 (  1272 PWs)   bands (ev):

     6.8872  10.8411  11.3513  11.3513  12.5830  12.5830  29.7341  32.2206
    35.8571  35.8571

          k =-0.2727 0.2727-0.2727 (  1254 PWs)   bands (ev):

     7.8445  11.0627  11.3390  11.3390  12.8960  12.8960  26.1550  31.9074
    35.7547  35.7547

          k =-0.3636 0.3636-0.3636 (  1260 PWs)   bands (ev):

     8.3392  11.1798  11.1798  12.3201  13.4074  13.4074  22.5157  31.0354
    34.4496  34.4496

          k =-0.4545 0.4545-0.4545 (  1242 PWs)   bands (ev):

     8.4129  11.0600  11.0600  13.7776  13.7776  14.2563  19.4826  30.4839
    33.4673  33.4673

          k = 0.0000 0.1818 0.0000 (  1255 PWs)   bands (ev):

     6.1956  10.8843  11.2552  11.2552  12.4094  12.7033  31.5723  33.7524
    34.5369  34.5369

          k =-0.0909 0.2727-0.0909 (  1271 PWs)   bands (ev):

     6.8252  10.6827  11.4452  11.4604  12.2668  12.7964  31.0044  32.2812
    34.1133  35.3571

          k =-0.1818 0.3636-0.1818 (  1267 PWs)   bands (ev):

     7.7820  10.6336  11.3838  11.5411  12.6041  13.0667  27.5300  32.2508
    33.6049  35.8154

          k =-0.2727 0.4545-0.2727 (  1257 PWs)   bands (ev):

     8.4707  11.1216  11.2731  11.4222  13.4832  13.5106  23.8196  31.4372
    32.9079  34.4191

          k =-0.3636 0.5455-0.3636 (  1250 PWs)   bands (ev):

     8.6184  10.9469  11.2700  12.3875  13.8215  14.8913  20.4194  30.7255
    32.5127  32.9121

          k = 0.5455-0.3636 0.5455 (  1246 PWs)   bands (ev):

     8.6266  10.9135  11.2048  12.8604  13.7595  15.8871  18.9409  30.4544
    32.0733  32.9490

          k = 0.4545-0.2727 0.4545 (  1257 PWs)   bands (ev):

     8.6150  11.0248  11.2691  12.2064  13.3200  14.5904  21.5145  30.6419
    32.2001  34.3859

          k = 0.3636-0.1818 0.3636 (  1263 PWs)   bands (ev):

     8.3265  10.9834  11.3060  11.4355  12.7132  13.6770  25.0597  31.1607
    33.2055  36.6722

          k = 0.2727-0.0909 0.2727 (  1277 PWs)   bands (ev):

     7.4551  10.6703  11.4156  11.5257  12.2960  13.0463  28.6855  31.6622
    34.4078  36.3753

          k = 0.1818-0.0000 0.1818 (  1277 PWs)   bands (ev):

     6.5590  10.8243  11.3190  11.3472  12.3734  12.7172  31.6919  31.7137
    34.3202  36.4445

          k = 0.0000 0.3636 0.0000 (  1275 PWs)   bands (ev):

     7.2603  10.3908  11.7634  11.7634  11.9380  12.9385  32.4905  32.6974
    32.7348  32.7348

          k =-0.0909 0.4545-0.0909 (  1267 PWs)   bands (ev):

     8.0675  10.1566  11.4978  12.0016  12.4888  13.1717  29.1693  31.6465
    32.5301  33.7748

          k =-0.1818 0.5455-0.1818 (  1262 PWs)   bands (ev):

     8.8383  10.2653  11.1372  11.9661  13.5851  13.6625  25.3504  30.8854
    31.1923  33.2069

          k =-0.2727 0.6364-0.2727 (  1259 PWs)   bands (ev):

     9.0761  10.6379  11.2391  11.8060  13.8746  15.4242  21.7363  29.7508
    30.6889  32.5478

          k = 0.6364-0.2727 0.6364 (  1255 PWs)   bands (ev):

     9.1367  10.5992  11.6781  11.7981  13.7781  17.5698  18.9145  28.6049
    31.3344  32.0843

          k = 0.5455-0.1818 0.5455 (  1250 PWs)   bands (ev):

     9.2151  10.6865  11.6431  11.6584  13.2939  16.2395  20.9624  28.0067
    32.1134  32.8782

          k = 0.4545-0.0909 0.4545 (  1260 PWs)   bands (ev):

     9.1445  10.6944  11.0643  11.7713  12.6185  14.8482  24.2600  28.1367
    32.7474  35.0995

          k = 0.3636 0.0000 0.3636 (  1257 PWs)   bands (ev):

     8.3980  10.4651  11.2806  11.9674  12.0092  13.8244  27.2556  29.2596
    33.9892  35.7625

          k = 0.0000 0.5455 0.0000 (  1275 PWs)   bands (ev):

     8.5207   9.8032  11.8651  12.5398  12.5398  13.2586  30.0673  30.0673
    31.1034  32.3296

          k =-0.0909 0.6364-0.0909 (  1259 PWs)   bands (ev):

     8.9592   9.6300  11.8519  12.7097  13.5968  13.6506  26.8304  29.0139
    29.1728  33.1328

          k =-0.1818 0.7273-0.1818 (  1262 PWs)   bands (ev):

     9.1937   9.8238  11.6633  12.5715  13.9192  15.6381  23.2113  27.4863
    28.7093  33.2957

          k = 0.7273-0.1818 0.7273 (  1250 PWs)   bands (ev):

     9.3559  10.1903  11.5105  12.3880  13.8379  18.1649  20.1517  25.9617
    29.3388  33.0453

          k = 0.6364-0.0909 0.6364 (  1254 PWs)   bands (ev):

     9.6193  10.4733  11.2197  12.2387  13.3769  17.8032  21.1147  24.8234
    30.8452  32.7991

          k = 0.5455 0.0000 0.5455 (  1260 PWs)   bands (ev):

     9.7893  10.6556  10.7595  12.0937  12.8300  16.1780  23.6683  25.0192
    32.7143  32.9198

          k = 0.0000 0.7273 0.0000 (  1258 PWs)   bands (ev):

     8.8614   9.3103  13.4201  13.4201  13.4625  13.5661  26.3199  27.6291
    27.6291  32.3911

          k =-0.0909 0.8182-0.0909 (  1256 PWs)   bands (ev):

     8.9026   9.2498  13.0361  13.3627  13.9485  15.6442  23.7361  26.1106
    27.0526  33.2676

          k = 0.8182-0.0909 0.8182 (  1252 PWs)   bands (ev):

     9.0798   9.5292  12.4642  13.1420  13.9454  18.2306  21.2845  24.3308
    27.5080  33.7217

          k = 0.7273 0.0000 0.7273 (  1254 PWs)   bands (ev):

     9.3702  10.0535  11.7300  12.7915  13.6275  19.2884  20.9310  23.0001
    28.8964  33.4142

          k = 0.0000 0.9091 0.0000 (  1262 PWs)   bands (ev):

     8.6936   9.0351  13.7555  14.0651  14.0651  16.0753  22.3286  26.1447
    26.1447  32.6941

          k = 0.9091-0.0000 0.9091 (  1260 PWs)   bands (ev):

     8.7832   9.1125  13.5680  13.6316  14.0986  17.5327  21.3012  25.1500
    26.3131  33.4173

          k =-0.1818 0.3636 0.0000 (  1268 PWs)   bands (ev):

     7.5686  10.4467  11.4600  11.7696  12.1849  13.0965  29.7090  31.1166
    34.2390  34.6054

          k =-0.2727 0.4545-0.0909 (  1265 PWs)   bands (ev):

     8.5133  10.4175  11.1774  11.8575  12.5932  13.7689  26.4996  30.1370
    32.8266  35.2552

          k =-0.3636 0.5455-0.1818 (  1261 PWs)   bands (ev):

     8.9779  10.8707  11.0776  11.7122  13.2973  14.8252  22.8909  29.6932
    31.4189  34.2969

          k = 0.5455-0.3636 0.7273 (  1250 PWs)   bands (ev):

     9.0121  10.6875  11.5400  11.9482  13.6983  16.5268  19.6938  29.7631
    30.3987  33.2520

          k =-0.1818 0.5455 0.0000 (  1266 PWs)   bands (ev):

     8.7957   9.9353  11.2857  12.5338  12.6874  13.7488  27.6639  29.0937
    31.2230  35.0024

          k =-0.2727 0.6364-0.0909 (  1262 PWs)   bands (ev):

     9.3354  10.0670  11.0156  12.4568  13.3776  14.9732  24.3957  28.0790
    29.6324  34.6499

          k = 0.6364-0.2727 0.8182 (  1249 PWs)   bands (ev):

     9.4572  10.3581  11.1091  12.2423  13.7452  16.9234  21.0905  27.6365
    28.6824  34.1479

          k = 0.5455-0.1818 0.7273 (  1251 PWs)   bands (ev):

     9.5837  10.3464  11.3354  12.0783  13.6363  18.3403  19.5069  26.7437
    29.2434  34.0679

          k = 0.4545-0.0909 0.6364 (  1253 PWs)   bands (ev):

     9.7121  10.4857  10.8254  12.1729  13.1915  16.3200  22.5049  26.3009
    30.4133  34.7502

          k = 0.3636 0.0000 0.5455 (  1270 PWs)   bands (ev):

     9.4276  10.2801  10.8226  12.2990  12.5717  14.8937  25.2409  27.1647
    31.6597  36.1556

          k =-0.1818 0.7273 0.0000 (  1258 PWs)   bands (ev):

     9.1427   9.4947  11.9643  13.3464  13.4142  15.0544  25.1213  26.9160
    27.7272  34.3277

          k = 0.7273-0.1818 0.9091 (  1251 PWs)   bands (ev):

     9.3149   9.7006  11.7330  13.0206  13.8571  17.1475  22.4498  25.5456
    27.0420  34.8842

          k = 0.6364-0.0909 0.8182 (  1248 PWs)   bands (ev):

     9.5385  10.1040  11.3893  12.6445  13.7977  19.3793  20.3860  24.0921
    27.7250  34.7832

          k = 0.5455 0.0000 0.7273 (  1256 PWs)   bands (ev):

     9.8782  10.4039  10.8502  12.4318  13.4375  17.8858  22.8937  23.0345
    29.0567  34.7638

          k = 0.8182-0.0909 1.0000 (  1251 PWs)   bands (ev):

     8.9515   9.2460  12.8887  13.5159  14.0645  17.3701  22.0201  25.5255
    25.8042  34.3641

          k = 0.7273 0.0000 0.9091 (  1252 PWs)   bands (ev):

     9.2014   9.5671  12.2358  13.1053  14.0583  19.4293  20.6657  23.9113
    26.3518  35.1184

          k = 0.6364-0.2727 1.0000 (  1247 PWs)   bands (ev):

     9.8552  10.0315  10.7546  12.8044  13.4062  16.5695  23.5763  25.1825
    28.1955  36.6225

          k = 0.5455-0.1818 0.9091 (  1251 PWs)   bands (ev):

     9.9610  10.1937  10.7956  12.5139  13.7706  18.5381  21.3001  24.7098
    27.0548  36.3863

          k = 0.6364-0.0909 1.0000 (  1249 PWs)   bands (ev):

     9.5631   9.8731  11.4211  12.8184  14.0624  19.0984  21.7890  23.8966
    25.5417  37.6710

          k = 0.5455 0.0000 0.9091 (  1240 PWs)   bands (ev):

     9.7791  10.3107  10.8934  12.5126  14.0589  20.0181  21.7212  22.6673
    25.7642  37.5347

     the Fermi energy is    15.7872 ev

!    total energy              =    -764.68280809 Ry
     Harris-Foulkes estimate   =    -764.68280809 Ry
     estimated scf accuracy    <          7.2E-09 Ry

     total all-electron energy =    -38013.517270 Ry

     The total energy is the sum of the following terms:

     one-electron contribution =      13.86342774 Ry
     hartree contribution      =       7.57438741 Ry
     xc contribution           =     -31.82090207 Ry
     ewald contribution        =     -71.95438534 Ry
     one-center paw contrib.   =    -682.34521180 Ry
     smearing contrib. (-TS)   =      -0.00012403 Ry

     convergence has been achieved in  23 iterations

     Forces acting on atoms (cartesian axes, Ry/au):

     atom    1 type  1   force =     0.00000000    0.00000000    0.00000000

     Total force =     0.000000     Total SCF correction =     0.000000


     Computing stress (Cartesian axis) and pressure

          total   stress  (Ry/bohr**3)                   (kbar)     P=   12.05
   0.00008191   0.00000000   0.00000000         12.05      0.00      0.00
   0.00000000   0.00008191   0.00000000          0.00     12.05      0.00
   0.00000000   0.00000000   0.00008191          0.00      0.00     12.05


     Writing output data file Au.save/

     init_run     :      0.51s CPU      0.56s WALL (       1 calls)
     electrons    :     17.46s CPU     19.08s WALL (       1 calls)
     forces       :      0.08s CPU      0.08s WALL (       1 calls)
     stress       :      0.27s CPU      0.27s WALL (       1 calls)

     Called by init_run:
     wfcinit      :      0.18s CPU      0.21s WALL (       1 calls)
     potinit      :      0.11s CPU      0.12s WALL (       1 calls)
     hinit0       :      0.19s CPU      0.20s WALL (       1 calls)

     Called by electrons:
     c_bands      :     12.27s CPU     13.31s WALL (      24 calls)
     sum_band     :      2.52s CPU      2.74s WALL (      24 calls)
     v_of_rho     :      0.14s CPU      0.15s WALL (      24 calls)
     newd         :      0.23s CPU      0.28s WALL (      24 calls)
     PAW_pot      :      2.36s CPU      2.68s WALL (      24 calls)
     mix_rho      :      0.02s CPU      0.02s WALL (      24 calls)

     Called by c_bands:
     init_us_2    :      0.40s CPU      0.43s WALL (    2856 calls)
     cegterg      :     11.65s CPU     12.66s WALL (    1344 calls)

     Called by sum_band:
     sum_band:bec :      0.01s CPU      0.01s WALL (    1344 calls)
     addusdens    :      0.22s CPU      0.22s WALL (      24 calls)

     Called by *egterg:
     h_psi        :      9.01s CPU      9.88s WALL (    4352 calls)
     s_psi        :      0.30s CPU      0.32s WALL (    4352 calls)
     g_psi        :      0.03s CPU      0.03s WALL (    2952 calls)
     cdiaghg      :      0.91s CPU      0.96s WALL (    4240 calls)

     Called by h_psi:
     h_psi:pot    :      8.96s CPU      9.83s WALL (    4352 calls)
     h_psi:calbec :      0.44s CPU      0.49s WALL (    4352 calls)
     vloc_psi     :      8.19s CPU      8.98s WALL (    4352 calls)
     add_vuspsi   :      0.30s CPU      0.33s WALL (    4352 calls)

     General routines
     calbec       :      0.66s CPU      0.72s WALL (    5976 calls)
     fft          :      0.07s CPU      0.08s WALL (     291 calls)
     ffts         :      0.00s CPU      0.00s WALL (      24 calls)
     fftw         :      9.27s CPU     10.16s WALL (   78640 calls)

     Parallel routines
     fft_scatt_xy :      0.91s CPU      1.00s WALL (   78955 calls)
     fft_scatt_yz :      2.97s CPU      3.25s WALL (   78955 calls)

     PWSCF        :    19.24s CPU        20.99s WALL


   This run was terminated on:  12:12: 2  26Mar2024            

=------------------------------------------------------------------------------=
   JOB DONE.
=------------------------------------------------------------------------------=
