
     Program PWSCF v.6.3MaX starts on 26Mar2024 at 12: 2:40 

     This program is part of the open-source Quantum ESPRESSO suite
     for quantum simulation of materials; please cite
         "P. Giannozzi et al., J. Phys.:Condens. Matter 21 395502 (2009);
         "P. Giannozzi et al., J. Phys.:Condens. Matter 29 465901 (2017);
          URL http://www.quantum-espresso.org", 
     in publications or presentations arising from this work. More details at
     http://www.quantum-espresso.org/quote

     Parallel version (MPI), running on     5 processors

     MPI processes distributed on     1 nodes
     R & G space division:  proc/nbgrp/npool/nimage =       5
     Waiting for input...
     Reading input from standard input

     Current dimensions of program PWSCF are:
     Max number of different atomic species (ntypx) = 10
     Max number of k-points (npk) =  40000
     Max angular momentum in pseudopotentials (lmaxx) =  3

     Subspace diagonalization in iterative solution of the eigenvalue problem:
     a serial algorithm will be used


     Parallelization info
     --------------------
     sticks:   dense  smooth     PW     G-vecs:    dense   smooth      PW
     Min         103     103     32                 1597     1597     290
     Max         104     104     33                 1600     1600     293
     Sum         517     517    163                 7991     7991    1459



     bravais-lattice index     =            2
     lattice parameter (alat)  =       7.7100  a.u.
     unit-cell volume          =     114.5785 (a.u.)^3
     number of atoms/cell      =            1
     number of atomic types    =            1
     number of electrons       =        11.00
     number of Kohn-Sham states=           10
     kinetic-energy cutoff     =      65.0000  Ry
     charge density cutoff     =     260.0000  Ry
     convergence threshold     =      1.0E-08
     mixing beta               =       0.7000
     number of iterations used =            8  plain     mixing
     Exchange-correlation      = PBE ( 1  4  3  4 0 0)

     celldm(1)=   7.710000  celldm(2)=   0.000000  celldm(3)=   0.000000
     celldm(4)=   0.000000  celldm(5)=   0.000000  celldm(6)=   0.000000

     crystal axes: (cart. coord. in units of alat)
               a(1) = (  -0.500000   0.000000   0.500000 )  
               a(2) = (   0.000000   0.500000   0.500000 )  
               a(3) = (  -0.500000   0.500000   0.000000 )  

     reciprocal axes: (cart. coord. in units 2 pi/alat)
               b(1) = ( -1.000000 -1.000000  1.000000 )  
               b(2) = (  1.000000  1.000000  1.000000 )  
               b(3) = ( -1.000000  1.000000 -1.000000 )  


     PseudoPot. # 1 for Au read from file:
     /home/lorenzo/pseudos/Au/Au.pbe-n-rrkjus_psl.1.0.0.UPF
     MD5 check sum: d7e77ba19504afed2c9b41c931dde4f0
     Pseudo is Ultrasoft + core correction, Zval = 11.0
     Generated using "atomic" code by A. Dal Corso v.6.3
     Using radial grid of 1279 points,  6 beta functions with: 
                l(1) =   0
                l(2) =   0
                l(3) =   1
                l(4) =   1
                l(5) =   2
                l(6) =   2
     Q(r) pseudized with 0 coefficients 


     atomic species   valence    mass     pseudopotential
        Au            11.00   196.96600     Au( 1.00)

     48 Sym. Ops., with inversion, found



   Cartesian axes

     site n.     atom                  positions (alat units)
         1           Au  tau(   1) = (   0.0000000   0.0000000   0.0000000  )

     number of k points=    35  gaussian smearing, width (Ry)=  0.0100
                       cart. coord. in units 2pi/alat
        k(    1) = (   0.0000000   0.0000000   0.0000000), wk =   0.0027435
        k(    2) = (  -0.1111111   0.1111111  -0.1111111), wk =   0.0219479
        k(    3) = (  -0.2222222   0.2222222  -0.2222222), wk =   0.0219479
        k(    4) = (  -0.3333333   0.3333333  -0.3333333), wk =   0.0219479
        k(    5) = (  -0.4444444   0.4444444  -0.4444444), wk =   0.0219479
        k(    6) = (   0.0000000   0.2222222   0.0000000), wk =   0.0164609
        k(    7) = (  -0.1111111   0.3333333  -0.1111111), wk =   0.0658436
        k(    8) = (  -0.2222222   0.4444444  -0.2222222), wk =   0.0658436
        k(    9) = (  -0.3333333   0.5555556  -0.3333333), wk =   0.0658436
        k(   10) = (   0.5555556  -0.3333333   0.5555556), wk =   0.0658436
        k(   11) = (   0.4444444  -0.2222222   0.4444444), wk =   0.0658436
        k(   12) = (   0.3333333  -0.1111111   0.3333333), wk =   0.0658436
        k(   13) = (   0.2222222  -0.0000000   0.2222222), wk =   0.0329218
        k(   14) = (   0.0000000   0.4444444   0.0000000), wk =   0.0164609
        k(   15) = (  -0.1111111   0.5555556  -0.1111111), wk =   0.0658436
        k(   16) = (  -0.2222222   0.6666667  -0.2222222), wk =   0.0658436
        k(   17) = (   0.6666667  -0.2222222   0.6666667), wk =   0.0658436
        k(   18) = (   0.5555556  -0.1111111   0.5555556), wk =   0.0658436
        k(   19) = (   0.4444444   0.0000000   0.4444444), wk =   0.0329218
        k(   20) = (   0.0000000   0.6666667   0.0000000), wk =   0.0164609
        k(   21) = (  -0.1111111   0.7777778  -0.1111111), wk =   0.0658436
        k(   22) = (   0.7777778  -0.1111111   0.7777778), wk =   0.0658436
        k(   23) = (   0.6666667  -0.0000000   0.6666667), wk =   0.0329218
        k(   24) = (   0.0000000   0.8888889   0.0000000), wk =   0.0164609
        k(   25) = (   0.8888889   0.0000000   0.8888889), wk =   0.0329218
        k(   26) = (  -0.2222222   0.4444444   0.0000000), wk =   0.0658436
        k(   27) = (  -0.3333333   0.5555556  -0.1111111), wk =   0.1316872
        k(   28) = (   0.5555556  -0.3333333   0.7777778), wk =   0.1316872
        k(   29) = (  -0.2222222   0.6666667   0.0000000), wk =   0.0658436
        k(   30) = (   0.6666667  -0.2222222   0.8888889), wk =   0.1316872
        k(   31) = (   0.5555556  -0.1111111   0.7777778), wk =   0.1316872
        k(   32) = (   0.4444444   0.0000000   0.6666667), wk =   0.0658436
        k(   33) = (   0.7777778  -0.1111111   1.0000000), wk =   0.0658436
        k(   34) = (   0.6666667  -0.0000000   0.8888889), wk =   0.0658436
        k(   35) = (   0.5555556  -0.1111111   1.0000000), wk =   0.0658436

     Dense  grid:     7991 G-vectors     FFT dimensions: (  27,  27,  27)

     Estimated max dynamical RAM per process >       8.63 MB

     Estimated total dynamical RAM >      43.13 MB

     Initial potential from superposition of free atoms

     starting charge   10.99989, renormalised to   11.00000
     Starting wfcs are    9 randomized atomic wfcs +    1 random wfcs

     total cpu time spent up to now is        1.3 secs

     Self-consistent Calculation

     iteration #  1     ecut=    65.00 Ry     beta= 0.70
     Davidson diagonalization with overlap
     ethr =  1.00E-02,  avg # of iterations =  5.5

     Threshold (ethr) on eigenvalues was too large:
     Diagonalizing with lowered threshold

     Davidson diagonalization with overlap
     ethr =  4.72E-04,  avg # of iterations =  1.6

     total cpu time spent up to now is        2.6 secs

     total energy              =     -85.37234914 Ry
     Harris-Foulkes estimate   =     -85.40525083 Ry
     estimated scf accuracy    <       0.05223262 Ry

     iteration #  2     ecut=    65.00 Ry     beta= 0.70
     Davidson diagonalization with overlap
     ethr =  4.75E-04,  avg # of iterations =  2.4

     total cpu time spent up to now is        3.2 secs

     total energy              =     -85.38634913 Ry
     Harris-Foulkes estimate   =     -85.39320440 Ry
     estimated scf accuracy    <       0.01094936 Ry

     iteration #  3     ecut=    65.00 Ry     beta= 0.70
     Davidson diagonalization with overlap
     ethr =  9.95E-05,  avg # of iterations =  2.2

     total cpu time spent up to now is        3.7 secs

     total energy              =     -85.38897973 Ry
     Harris-Foulkes estimate   =     -85.38902544 Ry
     estimated scf accuracy    <       0.00017096 Ry

     iteration #  4     ecut=    65.00 Ry     beta= 0.70
     Davidson diagonalization with overlap
     ethr =  1.55E-06,  avg # of iterations =  3.6

     total cpu time spent up to now is        4.5 secs

     total energy              =     -85.38911159 Ry
     Harris-Foulkes estimate   =     -85.38916100 Ry
     estimated scf accuracy    <       0.00009373 Ry

     iteration #  5     ecut=    65.00 Ry     beta= 0.70
     Davidson diagonalization with overlap
     ethr =  8.52E-07,  avg # of iterations =  1.1

     total cpu time spent up to now is        4.8 secs

     total energy              =     -85.38911899 Ry
     Harris-Foulkes estimate   =     -85.38912213 Ry
     estimated scf accuracy    <       0.00000521 Ry

     iteration #  6     ecut=    65.00 Ry     beta= 0.70
     Davidson diagonalization with overlap
     ethr =  4.73E-08,  avg # of iterations =  3.1

     total cpu time spent up to now is        5.4 secs

     total energy              =     -85.38912314 Ry
     Harris-Foulkes estimate   =     -85.38912340 Ry
     estimated scf accuracy    <       0.00000081 Ry

     iteration #  7     ecut=    65.00 Ry     beta= 0.70
     Davidson diagonalization with overlap
     ethr =  7.32E-09,  avg # of iterations =  1.1

     total cpu time spent up to now is        5.7 secs

     total energy              =     -85.38912303 Ry
     Harris-Foulkes estimate   =     -85.38912318 Ry
     estimated scf accuracy    <       0.00000024 Ry

     iteration #  8     ecut=    65.00 Ry     beta= 0.70
     Davidson diagonalization with overlap
     ethr =  2.19E-09,  avg # of iterations =  2.5

     total cpu time spent up to now is        6.1 secs

     total energy              =     -85.38912311 Ry
     Harris-Foulkes estimate   =     -85.38912312 Ry
     estimated scf accuracy    <       0.00000002 Ry

     iteration #  9     ecut=    65.00 Ry     beta= 0.70
     Davidson diagonalization with overlap
     ethr =  1.71E-10,  avg # of iterations =  2.2

     total cpu time spent up to now is        6.5 secs

     End of self-consistent calculation

          k = 0.0000 0.0000 0.0000 (   965 PWs)   bands (ev):

     6.0959  11.3145  11.3145  11.3145  12.8437  12.8437  31.3965  35.2591
    35.2591  35.2591

          k =-0.1111 0.1111-0.1111 (   995 PWs)   bands (ev):

     6.5199  11.1880  11.4520  11.4520  12.7919  12.7919  31.7075  32.8599
    35.6605  35.6605

          k =-0.2222 0.2222-0.2222 (  1001 PWs)   bands (ev):

     7.6081  11.0926  11.6099  11.6099  12.9057  12.9057  28.4155  32.4584
    36.2517  36.2517

          k =-0.3333 0.3333-0.3333 (  1008 PWs)   bands (ev):

     8.5048  11.4668  11.4668  12.0348  13.4655  13.4655  23.9449  31.5740
    35.1653  35.1653

          k =-0.4444 0.4444-0.4444 (  1026 PWs)   bands (ev):

     8.6599  11.2991  11.2991  13.9803  13.9803  14.3427  19.9873  30.7901
    33.8190  33.8190

          k = 0.0000 0.2222 0.0000 (  1002 PWs)   bands (ev):

     6.6637  11.0284  11.5751  11.5751  12.5417  12.9706  32.0121  33.7138
    34.5119  34.5119

          k =-0.1111 0.3333-0.1111 (   994 PWs)   bands (ev):

     7.5594  10.7756  11.7407  11.8276  12.4988  13.1458  30.1184  32.6939
    33.7407  35.6146

          k =-0.2222 0.4444-0.2222 (  1006 PWs)   bands (ev):

     8.6424  11.0016  11.4292  11.8007  13.3978  13.6128  25.6261  32.1113
    32.9315  34.8266

          k =-0.3333 0.5556-0.3333 (  1015 PWs)   bands (ev):

     8.9580  11.1447  11.6092  12.2107  14.0435  15.0969  21.2851  31.1041
    32.4451  33.0552

          k = 0.5556-0.3333 0.5556 (  1011 PWs)   bands (ev):

     8.9738  11.0878  11.5130  12.8558  13.9542  16.4822  19.2387  30.5538
    32.0709  33.1019

          k = 0.4444-0.2222 0.4444 (  1013 PWs)   bands (ev):

     8.9542  11.2467  11.6070  11.9849  13.3331  14.7912  22.7210  30.6054
    32.4820  35.1842

          k = 0.3333-0.1111 0.3333 (  1004 PWs)   bands (ev):

     8.3506  10.9025  11.5791  11.8196  12.6011  13.7153  27.1258  31.1485
    34.0835  36.6911

          k = 0.2222-0.0000 0.2222 (   993 PWs)   bands (ev):

     7.1872  10.9633  11.6431  11.6667  12.5062  13.0593  31.0087  31.7851
    34.5267  37.4666

          k = 0.0000 0.4444 0.0000 (   998 PWs)   bands (ev):

     8.1400  10.3635  12.0143  12.3161  12.3161  13.3026  31.8109  31.8109
    32.5567  33.4552

          k =-0.1111 0.5556-0.1111 (  1013 PWs)   bands (ev):

     9.0202  10.1389  11.6676  12.5371  13.4414  13.6845  27.5929  30.4973
    31.3847  33.4874

          k =-0.2222 0.6667-0.2222 (  1017 PWs)   bands (ev):

     9.4401  10.4978  11.4667  12.3765  14.1081  15.5687  23.0466  29.2939
    30.0715  33.1414

          k = 0.6667-0.2222 0.6667 (  1018 PWs)   bands (ev):

     9.5790  10.7031  11.7519  12.1896  13.9895  18.5269  19.3015  27.6045
    30.9281  32.7231

          k = 0.5556-0.1111 0.5556 (  1011 PWs)   bands (ev):

     9.7781  10.8436  11.4625  12.1331  13.3300  16.6327  22.2398  26.7379
    32.7491  33.0610

          k = 0.4444 0.0000 0.4444 (  1015 PWs)   bands (ev):

     9.4933  10.6915  11.2751  12.1963  12.5723  14.9882  25.6948  27.5995
    33.3770  35.9145

          k = 0.0000 0.6667 0.0000 (  1018 PWs)   bands (ev):

     9.1227   9.6892  12.9925  13.3629  13.3629  13.7004  28.2443  28.6285
    28.6285  32.7054

          k =-0.1111 0.7778-0.1111 (  1019 PWs)   bands (ev):

     9.2464   9.6119  12.8259  13.3646  14.1416  15.6440  24.4636  26.8442
    27.8318  33.7202

          k = 0.7778-0.1111 0.7778 (  1015 PWs)   bands (ev):

     9.4579  10.0318  12.2707  13.1055  14.0991  18.8053  21.0870  24.7764
    28.5093  33.7954

          k = 0.6667-0.0000 0.6667 (  1015 PWs)   bands (ev):

     9.8277  10.6376  11.5111  12.7322  13.6154  18.4919  22.4845  23.2128
    30.4890  33.3437

          k = 0.0000 0.8889 0.0000 (  1006 PWs)   bands (ev):

     8.9587   9.2862  13.9730  14.2447  14.2447  16.0925  23.0022  26.5289
    26.5289  33.1516

          k = 0.8889 0.0000 0.8889 (  1009 PWs)   bands (ev):

     9.0833   9.4076  13.5916  13.7920  14.2928  18.1147  21.5041  25.1591
    26.7897  34.0030

          k =-0.2222 0.4444 0.0000 (  1000 PWs)   bands (ev):

     8.5518  10.4974  11.5148  12.3204  12.5288  13.7467  28.4975  30.0974
    33.5729  35.1366

          k =-0.3333 0.5556-0.1111 (  1013 PWs)   bands (ev):

     9.4309  10.7730  11.0900  12.2476  13.2850  14.9790  24.5083  28.9501
    31.6634  35.2152

          k = 0.5556-0.3333 0.7778 (  1012 PWs)   bands (ev):

     9.5111  10.7848  11.7353  12.0695  13.8738  17.0614  20.4621  28.9579
    30.1795  34.0237

          k =-0.2222 0.6667 0.0000 (  1026 PWs)   bands (ev):

     9.5430   9.9430  11.6218  13.3124  13.3536  15.0597  25.8392  27.4879
    29.2839  35.4715

          k = 0.6667-0.2222 0.8889 (  1022 PWs)   bands (ev):

     9.7719  10.2664  11.4301  12.9444  13.9762  17.4033  22.3375  26.3940
    27.9100  35.3547

          k = 0.5556-0.1111 0.7778 (  1020 PWs)   bands (ev):

    10.0458  10.4892  11.3006  12.6141  13.8954  19.0094  20.7392  25.1971
    28.5486  35.2813

          k = 0.4444 0.0000 0.6667 (  1019 PWs)   bands (ev):

    10.3594  10.6187  10.6445  12.6803  13.3722  16.7595  23.8408  25.0848
    30.1339  35.8286

          k = 0.7778-0.1111 1.0000 (  1017 PWs)   bands (ev):

     9.3351   9.6002  12.7134  13.6182  14.2429  17.7718  22.5268  25.5924
    26.1970  35.4750

          k = 0.6667-0.0000 0.8889 (  1008 PWs)   bands (ev):

     9.6490  10.0686  11.9872  13.0844  14.2354  20.5385  20.5789  23.7028
    26.8217  35.8302

          k = 0.5556-0.1111 1.0000 (  1022 PWs)   bands (ev):

    10.0501  10.5260  11.0673  12.8036  14.2379  19.6001  22.4908  23.3071
    26.1926  38.7160

     the Fermi energy is    16.0277 ev

!    total energy              =     -85.38912311 Ry
     Harris-Foulkes estimate   =     -85.38912311 Ry
     estimated scf accuracy    <          3.6E-09 Ry

     The total energy is the sum of the following terms:

     one-electron contribution =      11.07632686 Ry
     hartree contribution      =       7.59420332 Ry
     xc contribution           =     -32.10523087 Ry
     ewald contribution        =     -71.95438534 Ry
     smearing contrib. (-TS)   =      -0.00003707 Ry

     convergence has been achieved in   9 iterations

     Forces acting on atoms (cartesian axes, Ry/au):

     atom    1 type  1   force =     0.00000000    0.00000000    0.00000000

     Total force =     0.000000     Total SCF correction =     0.000000


     Computing stress (Cartesian axis) and pressure

          total   stress  (Ry/bohr**3)                   (kbar)     P=  103.21
   0.00070159  -0.00000000  -0.00000000        103.21     -0.00     -0.00
  -0.00000000   0.00070159   0.00000000         -0.00    103.21      0.00
  -0.00000000   0.00000000   0.00070159         -0.00      0.00    103.21


     Writing output data file Au.save/

     init_run     :      0.38s CPU      0.39s WALL (       1 calls)
     electrons    :      5.07s CPU      5.29s WALL (       1 calls)
     forces       :      0.05s CPU      0.05s WALL (       1 calls)
     stress       :      0.17s CPU      0.17s WALL (       1 calls)

     Called by init_run:
     wfcinit      :      0.18s CPU      0.19s WALL (       1 calls)
     potinit      :      0.01s CPU      0.01s WALL (       1 calls)
     hinit0       :      0.17s CPU      0.17s WALL (       1 calls)

     Called by electrons:
     c_bands      :      4.20s CPU      4.38s WALL (      10 calls)
     sum_band     :      0.73s CPU      0.76s WALL (      10 calls)
     v_of_rho     :      0.05s CPU      0.05s WALL (      10 calls)
     newd         :      0.10s CPU      0.10s WALL (      10 calls)
     mix_rho      :      0.01s CPU      0.01s WALL (      10 calls)

     Called by c_bands:
     init_us_2    :      0.12s CPU      0.13s WALL (     805 calls)
     cegterg      :      4.02s CPU      4.18s WALL (     350 calls)

     Called by sum_band:
     sum_band:bec :      0.00s CPU      0.00s WALL (     350 calls)
     addusdens    :      0.09s CPU      0.09s WALL (      10 calls)

     Called by *egterg:
     h_psi        :      3.14s CPU      3.27s WALL (    1268 calls)
     s_psi        :      0.11s CPU      0.11s WALL (    1268 calls)
     g_psi        :      0.01s CPU      0.01s WALL (     883 calls)
     cdiaghg      :      0.35s CPU      0.36s WALL (    1198 calls)

     Called by h_psi:
     h_psi:pot    :      3.12s CPU      3.25s WALL (    1268 calls)
     h_psi:calbec :      0.16s CPU      0.17s WALL (    1268 calls)
     vloc_psi     :      2.84s CPU      2.95s WALL (    1268 calls)
     add_vuspsi   :      0.11s CPU      0.11s WALL (    1268 calls)

     General routines
     calbec       :      0.24s CPU      0.25s WALL (    1793 calls)
     fft          :      0.04s CPU      0.04s WALL (     137 calls)
     ffts         :      0.00s CPU      0.00s WALL (      10 calls)
     fftw         :      3.13s CPU      3.26s WALL (   22276 calls)

     Parallel routines
     fft_scatt_xy :      0.25s CPU      0.26s WALL (   22423 calls)
     fft_scatt_yz :      0.85s CPU      0.87s WALL (   22423 calls)

     PWSCF        :     6.59s CPU         6.87s WALL


   This run was terminated on:  12: 2:47  26Mar2024            

=------------------------------------------------------------------------------=
   JOB DONE.
=------------------------------------------------------------------------------=
