
     Program PWSCF v.6.3MaX starts on 26Mar2024 at 12: 6:49 

     This program is part of the open-source Quantum ESPRESSO suite
     for quantum simulation of materials; please cite
         "P. Giannozzi et al., J. Phys.:Condens. Matter 21 395502 (2009);
         "P. Giannozzi et al., J. Phys.:Condens. Matter 29 465901 (2017);
          URL http://www.quantum-espresso.org", 
     in publications or presentations arising from this work. More details at
     http://www.quantum-espresso.org/quote

     Parallel version (MPI), running on     5 processors

     MPI processes distributed on     1 nodes
     R & G space division:  proc/nbgrp/npool/nimage =       5
     Waiting for input...
     Reading input from standard input

     Current dimensions of program PWSCF are:
     Max number of different atomic species (ntypx) = 10
     Max number of k-points (npk) =  40000
     Max angular momentum in pseudopotentials (lmaxx) =  3
               file Au.pbesol-n-kjpaw_psl.1.0.0.UPF: wavefunction(s)  6S 5D renormalized

     Subspace diagonalization in iterative solution of the eigenvalue problem:
     a serial algorithm will be used


     Parallelization info
     --------------------
     sticks:   dense  smooth     PW     G-vecs:    dense   smooth      PW
     Min         116     116     32                 1836     1836     290
     Max         117     117     33                 1838     1838     293
     Sum         583     583    163                 9185     9185    1459



     bravais-lattice index     =            2
     lattice parameter (alat)  =       7.7100  a.u.
     unit-cell volume          =     114.5785 (a.u.)^3
     number of atoms/cell      =            1
     number of atomic types    =            1
     number of electrons       =        11.00
     number of Kohn-Sham states=           10
     kinetic-energy cutoff     =      70.0000  Ry
     charge density cutoff     =     280.0000  Ry
     convergence threshold     =      1.0E-08
     mixing beta               =       0.7000
     number of iterations used =            8  plain     mixing
     Exchange-correlation      = SLA PW PSX PSC ( 1  4 10  8 0 0)

     celldm(1)=   7.710000  celldm(2)=   0.000000  celldm(3)=   0.000000
     celldm(4)=   0.000000  celldm(5)=   0.000000  celldm(6)=   0.000000

     crystal axes: (cart. coord. in units of alat)
               a(1) = (  -0.500000   0.000000   0.500000 )  
               a(2) = (   0.000000   0.500000   0.500000 )  
               a(3) = (  -0.500000   0.500000   0.000000 )  

     reciprocal axes: (cart. coord. in units 2 pi/alat)
               b(1) = ( -1.000000 -1.000000  1.000000 )  
               b(2) = (  1.000000  1.000000  1.000000 )  
               b(3) = ( -1.000000  1.000000 -1.000000 )  


     PseudoPot. # 1 for Au read from file:
     /home/lorenzo/pseudos/Au/Au.pbesol-n-kjpaw_psl.1.0.0.UPF
     MD5 check sum: abc371be705c47a6b6a6b4088b452d3e
     Pseudo is Projector augmented-wave + core cor, Zval = 11.0
     Generated using "atomic" code by A. Dal Corso v.6.3
     Shape of augmentation charge: PSQ
     Using radial grid of 1279 points,  6 beta functions with: 
                l(1) =   0
                l(2) =   0
                l(3) =   1
                l(4) =   1
                l(5) =   2
                l(6) =   2
     Q(r) pseudized with 0 coefficients 


     atomic species   valence    mass     pseudopotential
        Au            11.00   196.96600     Au( 1.00)

     48 Sym. Ops., with inversion, found



   Cartesian axes

     site n.     atom                  positions (alat units)
         1           Au  tau(   1) = (   0.0000000   0.0000000   0.0000000  )

     number of k points=     4  gaussian smearing, width (Ry)=  0.0100
                       cart. coord. in units 2pi/alat
        k(    1) = (   0.0000000   0.0000000   0.0000000), wk =   0.0740741
        k(    2) = (  -0.3333333   0.3333333  -0.3333333), wk =   0.5925926
        k(    3) = (   0.0000000   0.6666667   0.0000000), wk =   0.4444444
        k(    4) = (   0.6666667  -0.0000000   0.6666667), wk =   0.8888889

     Dense  grid:     9185 G-vectors     FFT dimensions: (  30,  30,  30)

     Estimated max dynamical RAM per process >       8.65 MB

     Estimated total dynamical RAM >      43.27 MB

     Initial potential from superposition of free atoms

     starting charge   10.99990, renormalised to   11.00000
     Starting wfcs are    9 randomized atomic wfcs +    1 random wfcs
     Checking if some PAW data can be deallocated... 

     total cpu time spent up to now is        1.4 secs

     Self-consistent Calculation

     iteration #  1     ecut=    70.00 Ry     beta= 0.70
     Davidson diagonalization with overlap
     ethr =  1.00E-02,  avg # of iterations =  6.2

     Threshold (ethr) on eigenvalues was too large:
     Diagonalizing with lowered threshold

     Davidson diagonalization with overlap
     ethr =  6.06E-04,  avg # of iterations =  1.5

     total cpu time spent up to now is        1.6 secs

     total energy              =    -764.68778316 Ry
     Harris-Foulkes estimate   =    -764.73422548 Ry
     estimated scf accuracy    <       0.06616161 Ry

     iteration #  2     ecut=    70.00 Ry     beta= 0.70
     Davidson diagonalization with overlap
     ethr =  6.01E-04,  avg # of iterations =  2.8

     negative rho (up, down):  1.507E-02 0.000E+00

     total cpu time spent up to now is        1.8 secs

     total energy              =    -764.76604240 Ry
     Harris-Foulkes estimate   =    -764.72187947 Ry
     estimated scf accuracy    <       0.07715273 Ry

     iteration #  3     ecut=    70.00 Ry     beta= 0.70
     Davidson diagonalization with overlap
     ethr =  6.01E-04,  avg # of iterations =  4.2

     total cpu time spent up to now is        2.1 secs

     total energy              =    -722.89462618 Ry
     Harris-Foulkes estimate   =    -844.99359245 Ry
     estimated scf accuracy    <  202085.51321666 Ry

     iteration #  4     ecut=    70.00 Ry     beta= 0.70
     Davidson diagonalization with overlap
     ethr =  6.01E-04,  avg # of iterations =  5.2

     total cpu time spent up to now is        2.3 secs

     total energy              =    -764.71286745 Ry
     Harris-Foulkes estimate   =    -764.71283892 Ry
     estimated scf accuracy    <       0.02281019 Ry

     iteration #  5     ecut=    70.00 Ry     beta= 0.70
     Davidson diagonalization with overlap
     ethr =  2.07E-04,  avg # of iterations =  4.5

     total cpu time spent up to now is        2.5 secs

     total energy              =    -764.71302877 Ry
     Harris-Foulkes estimate   =    -764.71310241 Ry
     estimated scf accuracy    <       0.02156417 Ry

     iteration #  6     ecut=    70.00 Ry     beta= 0.70
     Davidson diagonalization with overlap
     ethr =  1.96E-04,  avg # of iterations =  4.0

     total cpu time spent up to now is        2.7 secs

     total energy              =    -764.71303896 Ry
     Harris-Foulkes estimate   =    -764.71305178 Ry
     estimated scf accuracy    <       0.02130154 Ry

     iteration #  7     ecut=    70.00 Ry     beta= 0.70
     Davidson diagonalization with overlap
     ethr =  1.94E-04,  avg # of iterations =  1.0

     total cpu time spent up to now is        2.9 secs

     total energy              =    -764.71301675 Ry
     Harris-Foulkes estimate   =    -764.71304278 Ry
     estimated scf accuracy    <       0.02108574 Ry

     iteration #  8     ecut=    70.00 Ry     beta= 0.70
     Davidson diagonalization with overlap
     ethr =  1.92E-04,  avg # of iterations =  1.0

     total cpu time spent up to now is        3.0 secs

     total energy              =    -764.71301319 Ry
     Harris-Foulkes estimate   =    -764.71301830 Ry
     estimated scf accuracy    <       0.02071330 Ry

     iteration #  9     ecut=    70.00 Ry     beta= 0.70
     Davidson diagonalization with overlap
     ethr =  1.88E-04,  avg # of iterations =  1.0

     total cpu time spent up to now is        3.2 secs

     total energy              =    -764.71300901 Ry
     Harris-Foulkes estimate   =    -764.71301376 Ry
     estimated scf accuracy    <       0.02056363 Ry

     iteration # 10     ecut=    70.00 Ry     beta= 0.70
     Davidson diagonalization with overlap
     ethr =  1.87E-04,  avg # of iterations =  1.0

     total cpu time spent up to now is        3.4 secs

     total energy              =    -764.71301329 Ry
     Harris-Foulkes estimate   =    -764.71300929 Ry
     estimated scf accuracy    <       0.02038274 Ry

     iteration # 11     ecut=    70.00 Ry     beta= 0.70
     Davidson diagonalization with overlap
     ethr =  1.85E-04,  avg # of iterations =  1.0

     total cpu time spent up to now is        3.6 secs

     total energy              =    -764.71299505 Ry
     Harris-Foulkes estimate   =    -764.71301343 Ry
     estimated scf accuracy    <       0.02033085 Ry

     iteration # 12     ecut=    70.00 Ry     beta= 0.70
     Davidson diagonalization with overlap
     ethr =  1.85E-04,  avg # of iterations =  1.0

     total cpu time spent up to now is        3.8 secs

     total energy              =    -764.71139912 Ry
     Harris-Foulkes estimate   =    -764.71299523 Ry
     estimated scf accuracy    <       0.02001113 Ry

     iteration # 13     ecut=    70.00 Ry     beta= 0.70
     Davidson diagonalization with overlap
     ethr =  1.82E-04,  avg # of iterations =  1.8

     total cpu time spent up to now is        4.0 secs

     total energy              =    -764.71185917 Ry
     Harris-Foulkes estimate   =    -764.71187145 Ry
     estimated scf accuracy    <       0.00409184 Ry

     iteration # 14     ecut=    70.00 Ry     beta= 0.70
     Davidson diagonalization with overlap
     ethr =  3.72E-05,  avg # of iterations =  1.0

     total cpu time spent up to now is        4.1 secs

     total energy              =    -764.71184881 Ry
     Harris-Foulkes estimate   =    -764.71187124 Ry
     estimated scf accuracy    <       0.00404649 Ry

     iteration # 15     ecut=    70.00 Ry     beta= 0.70
     Davidson diagonalization with overlap
     ethr =  3.68E-05,  avg # of iterations =  1.0

     total cpu time spent up to now is        4.3 secs

     total energy              =    -764.71182419 Ry
     Harris-Foulkes estimate   =    -764.71185261 Ry
     estimated scf accuracy    <       0.00367006 Ry

     iteration # 16     ecut=    70.00 Ry     beta= 0.70
     Davidson diagonalization with overlap
     ethr =  3.34E-05,  avg # of iterations =  1.0

     total cpu time spent up to now is        4.5 secs

     total energy              =    -764.71180954 Ry
     Harris-Foulkes estimate   =    -764.71182665 Ry
     estimated scf accuracy    <       0.00331352 Ry

     iteration # 17     ecut=    70.00 Ry     beta= 0.70
     Davidson diagonalization with overlap
     ethr =  3.01E-05,  avg # of iterations =  1.0

     total cpu time spent up to now is        4.7 secs

     total energy              =    -764.71184425 Ry
     Harris-Foulkes estimate   =    -764.71181123 Ry
     estimated scf accuracy    <       0.00305605 Ry

     iteration # 18     ecut=    70.00 Ry     beta= 0.70
     Davidson diagonalization with overlap
     ethr =  2.78E-05,  avg # of iterations =  1.0

     total cpu time spent up to now is        4.9 secs

     total energy              =    -764.71178174 Ry
     Harris-Foulkes estimate   =    -764.71184481 Ry
     estimated scf accuracy    <       0.00311342 Ry

     iteration # 19     ecut=    70.00 Ry     beta= 0.70
     Davidson diagonalization with overlap
     ethr =  2.78E-05,  avg # of iterations =  1.0

     total cpu time spent up to now is        5.1 secs

     total energy              =    -764.71091843 Ry
     Harris-Foulkes estimate   =    -764.71178557 Ry
     estimated scf accuracy    <       0.00245898 Ry

     iteration # 20     ecut=    70.00 Ry     beta= 0.70
     Davidson diagonalization with overlap
     ethr =  2.24E-05,  avg # of iterations =  2.8

     total cpu time spent up to now is        5.3 secs

     total energy              =    -764.71146000 Ry
     Harris-Foulkes estimate   =    -764.71198114 Ry
     estimated scf accuracy    <       0.00668222 Ry

     iteration # 21     ecut=    70.00 Ry     beta= 0.70
     Davidson diagonalization with overlap
     ethr =  2.24E-05,  avg # of iterations =  1.8

     total cpu time spent up to now is        5.5 secs

     total energy              =    -764.71158675 Ry
     Harris-Foulkes estimate   =    -764.71165301 Ry
     estimated scf accuracy    <       0.00068511 Ry

     iteration # 22     ecut=    70.00 Ry     beta= 0.70
     Davidson diagonalization with overlap
     ethr =  6.23E-06,  avg # of iterations =  2.2

     total cpu time spent up to now is        5.7 secs

     total energy              =    -764.71160627 Ry
     Harris-Foulkes estimate   =    -764.71161570 Ry
     estimated scf accuracy    <       0.00008749 Ry

     iteration # 23     ecut=    70.00 Ry     beta= 0.70
     Davidson diagonalization with overlap
     ethr =  7.95E-07,  avg # of iterations =  4.5

     total cpu time spent up to now is        5.9 secs

     total energy              =    -764.71162154 Ry
     Harris-Foulkes estimate   =    -764.71162116 Ry
     estimated scf accuracy    <       0.00000598 Ry

     iteration # 24     ecut=    70.00 Ry     beta= 0.70
     Davidson diagonalization with overlap
     ethr =  5.44E-08,  avg # of iterations =  2.0

     total cpu time spent up to now is        6.1 secs

     total energy              =    -764.71161817 Ry
     Harris-Foulkes estimate   =    -764.71162205 Ry
     estimated scf accuracy    <       0.00001171 Ry

     iteration # 25     ecut=    70.00 Ry     beta= 0.70
     Davidson diagonalization with overlap
     ethr =  5.44E-08,  avg # of iterations =  3.0

     total cpu time spent up to now is        6.2 secs

     total energy              =    -764.71162228 Ry
     Harris-Foulkes estimate   =    -764.71162197 Ry
     estimated scf accuracy    <       0.00001451 Ry

     iteration # 26     ecut=    70.00 Ry     beta= 0.70
     Davidson diagonalization with overlap
     ethr =  5.44E-08,  avg # of iterations =  1.0

     total cpu time spent up to now is        6.4 secs

     total energy              =    -764.71162134 Ry
     Harris-Foulkes estimate   =    -764.71162234 Ry
     estimated scf accuracy    <       0.00001806 Ry

     iteration # 27     ecut=    70.00 Ry     beta= 0.70
     Davidson diagonalization with overlap
     ethr =  5.44E-08,  avg # of iterations =  1.2

     total cpu time spent up to now is        6.6 secs

     total energy              =    -764.71162099 Ry
     Harris-Foulkes estimate   =    -764.71162149 Ry
     estimated scf accuracy    <       0.00000927 Ry

     iteration # 28     ecut=    70.00 Ry     beta= 0.70
     Davidson diagonalization with overlap
     ethr =  5.44E-08,  avg # of iterations =  1.0

     total cpu time spent up to now is        6.7 secs

     total energy              =    -764.71162107 Ry
     Harris-Foulkes estimate   =    -764.71162111 Ry
     estimated scf accuracy    <       0.00000420 Ry

     iteration # 29     ecut=    70.00 Ry     beta= 0.70
     Davidson diagonalization with overlap
     ethr =  3.82E-08,  avg # of iterations =  1.0

     total cpu time spent up to now is        6.9 secs

     total energy              =    -764.71162107 Ry
     Harris-Foulkes estimate   =    -764.71162110 Ry
     estimated scf accuracy    <       0.00000356 Ry

     iteration # 30     ecut=    70.00 Ry     beta= 0.70
     Davidson diagonalization with overlap
     ethr =  3.23E-08,  avg # of iterations =  1.0

     total cpu time spent up to now is        7.1 secs

     total energy              =    -764.71162096 Ry
     Harris-Foulkes estimate   =    -764.71162109 Ry
     estimated scf accuracy    <       0.00000266 Ry

     iteration # 31     ecut=    70.00 Ry     beta= 0.70
     Davidson diagonalization with overlap
     ethr =  2.41E-08,  avg # of iterations =  1.0

     total cpu time spent up to now is        7.3 secs

     total energy              =    -764.71162076 Ry
     Harris-Foulkes estimate   =    -764.71162100 Ry
     estimated scf accuracy    <       0.00000127 Ry

     iteration # 32     ecut=    70.00 Ry     beta= 0.70
     Davidson diagonalization with overlap
     ethr =  1.15E-08,  avg # of iterations =  2.8

     total cpu time spent up to now is        7.4 secs

     total energy              =    -764.71162102 Ry
     Harris-Foulkes estimate   =    -764.71162104 Ry
     estimated scf accuracy    <       0.00000064 Ry

     iteration # 33     ecut=    70.00 Ry     beta= 0.70
     Davidson diagonalization with overlap
     ethr =  5.82E-09,  avg # of iterations =  1.0

     total cpu time spent up to now is        7.6 secs

     total energy              =    -764.71162103 Ry
     Harris-Foulkes estimate   =    -764.71162103 Ry
     estimated scf accuracy    <       0.00000057 Ry

     iteration # 34     ecut=    70.00 Ry     beta= 0.70
     Davidson diagonalization with overlap
     ethr =  5.15E-09,  avg # of iterations =  1.0

     total cpu time spent up to now is        7.8 secs

     total energy              =    -764.71162102 Ry
     Harris-Foulkes estimate   =    -764.71162103 Ry
     estimated scf accuracy    <       0.00000057 Ry

     iteration # 35     ecut=    70.00 Ry     beta= 0.70
     Davidson diagonalization with overlap
     ethr =  5.15E-09,  avg # of iterations =  1.0

     total cpu time spent up to now is        8.0 secs

     total energy              =    -764.71162099 Ry
     Harris-Foulkes estimate   =    -764.71162102 Ry
     estimated scf accuracy    <       0.00000037 Ry

     iteration # 36     ecut=    70.00 Ry     beta= 0.70
     Davidson diagonalization with overlap
     ethr =  3.34E-09,  avg # of iterations =  1.0

     total cpu time spent up to now is        8.2 secs

     total energy              =    -764.71162098 Ry
     Harris-Foulkes estimate   =    -764.71162100 Ry
     estimated scf accuracy    <       0.00000010 Ry

     iteration # 37     ecut=    70.00 Ry     beta= 0.70
     Davidson diagonalization with overlap
     ethr =  8.97E-10,  avg # of iterations =  2.5

     total cpu time spent up to now is        8.4 secs

     total energy              =    -764.71162099 Ry
     Harris-Foulkes estimate   =    -764.71162100 Ry
     estimated scf accuracy    <       0.00000002 Ry

     iteration # 38     ecut=    70.00 Ry     beta= 0.70
     Davidson diagonalization with overlap
     ethr =  2.17E-10,  avg # of iterations =  1.8

     total cpu time spent up to now is        8.6 secs

     total energy              =    -764.71162099 Ry
     Harris-Foulkes estimate   =    -764.71162099 Ry
     estimated scf accuracy    <       0.00000002 Ry

     iteration # 39     ecut=    70.00 Ry     beta= 0.70
     Davidson diagonalization with overlap
     ethr =  1.68E-10,  avg # of iterations =  1.8

     total cpu time spent up to now is        8.7 secs

     End of self-consistent calculation

          k = 0.0000 0.0000 0.0000 (  1139 PWs)   bands (ev):

     5.8067  11.0242  11.0242  11.0242  12.5446  12.5446  31.1460  34.9745
    34.9745  34.9745

          k =-0.3333 0.3333-0.3333 (  1149 PWs)   bands (ev):

     8.2206  11.1749  11.1749  11.7426  13.1664  13.1664  23.6638  31.3154
    34.8830  34.8830

          k = 0.0000 0.6667 0.0000 (  1118 PWs)   bands (ev):

     8.8314   9.4075  12.6979  13.0675  13.0675  13.3960  27.8913  28.3428
    28.3428  32.3255

          k = 0.6667-0.0000 0.6667 (  1141 PWs)   bands (ev):

     9.5419  10.3478  11.2220  12.4345  13.3197  18.1953  22.2055  22.8661
    30.1375  33.0664

     the Fermi energy is    13.4882 ev

!    total energy              =    -764.71162099 Ry
     Harris-Foulkes estimate   =    -764.71162099 Ry
     estimated scf accuracy    <          1.1E-10 Ry

     total all-electron energy =    -38013.546083 Ry

     The total energy is the sum of the following terms:

     one-electron contribution =      13.85953992 Ry
     hartree contribution      =       7.53383426 Ry
     xc contribution           =     -31.80638982 Ry
     ewald contribution        =     -71.95438534 Ry
     one-center paw contrib.   =    -682.34287411 Ry
     smearing contrib. (-TS)   =      -0.00134590 Ry

     convergence has been achieved in  39 iterations

     Forces acting on atoms (cartesian axes, Ry/au):

     atom    1 type  1   force =     0.00000000    0.00000000    0.00000000

     Total force =     0.000000     Total SCF correction =     0.000000


     Computing stress (Cartesian axis) and pressure

          total   stress  (Ry/bohr**3)                   (kbar)     P=  -46.26
  -0.00031447   0.00000000   0.00000000        -46.26      0.00      0.00
   0.00000000  -0.00031447  -0.00000000          0.00    -46.26     -0.00
   0.00000000  -0.00000000  -0.00031447          0.00     -0.00    -46.26


     Writing output data file Au.save/

     init_run     :      0.33s CPU      0.36s WALL (       1 calls)
     electrons    :      6.76s CPU      7.39s WALL (       1 calls)
     forces       :      0.03s CPU      0.03s WALL (       1 calls)
     stress       :      0.10s CPU      0.10s WALL (       1 calls)

     Called by init_run:
     wfcinit      :      0.01s CPU      0.01s WALL (       1 calls)
     potinit      :      0.11s CPU      0.13s WALL (       1 calls)
     hinit0       :      0.18s CPU      0.18s WALL (       1 calls)

     Called by electrons:
     c_bands      :      1.41s CPU      1.47s WALL (      40 calls)
     sum_band     :      0.70s CPU      0.72s WALL (      40 calls)
     v_of_rho     :      0.22s CPU      0.23s WALL (      40 calls)
     newd         :      0.37s CPU      0.43s WALL (      40 calls)
     PAW_pot      :      4.11s CPU      4.59s WALL (      40 calls)
     mix_rho      :      0.04s CPU      0.04s WALL (      40 calls)

     Called by c_bands:
     init_us_2    :      0.05s CPU      0.06s WALL (     332 calls)
     cegterg      :      1.33s CPU      1.38s WALL (     160 calls)

     Called by sum_band:
     sum_band:bec :      0.00s CPU      0.00s WALL (     160 calls)
     addusdens    :      0.36s CPU      0.36s WALL (      40 calls)

     Called by *egterg:
     h_psi        :      1.04s CPU      1.09s WALL (     474 calls)
     s_psi        :      0.03s CPU      0.03s WALL (     474 calls)
     g_psi        :      0.00s CPU      0.00s WALL (     310 calls)
     cdiaghg      :      0.09s CPU      0.10s WALL (     466 calls)

     Called by h_psi:
     h_psi:pot    :      1.04s CPU      1.08s WALL (     474 calls)
     h_psi:calbec :      0.05s CPU      0.05s WALL (     474 calls)
     vloc_psi     :      0.95s CPU      0.99s WALL (     474 calls)
     add_vuspsi   :      0.03s CPU      0.04s WALL (     474 calls)

     General routines
     calbec       :      0.07s CPU      0.08s WALL (     654 calls)
     fft          :      0.13s CPU      0.13s WALL (     467 calls)
     ffts         :      0.01s CPU      0.01s WALL (      40 calls)
     fftw         :      1.07s CPU      1.12s WALL (    9016 calls)

     Parallel routines
     fft_scatt_xy :      0.10s CPU      0.10s WALL (    9523 calls)
     fft_scatt_yz :      0.36s CPU      0.38s WALL (    9523 calls)

     PWSCF        :     8.22s CPU         8.90s WALL


   This run was terminated on:  12: 6:58  26Mar2024            

=------------------------------------------------------------------------------=
   JOB DONE.
=------------------------------------------------------------------------------=
