
     Program PWSCF v.6.3MaX starts on 26Mar2024 at 11:25:37 

     This program is part of the open-source Quantum ESPRESSO suite
     for quantum simulation of materials; please cite
         "P. Giannozzi et al., J. Phys.:Condens. Matter 21 395502 (2009);
         "P. Giannozzi et al., J. Phys.:Condens. Matter 29 465901 (2017);
          URL http://www.quantum-espresso.org", 
     in publications or presentations arising from this work. More details at
     http://www.quantum-espresso.org/quote

     Parallel version (MPI), running on     5 processors

     MPI processes distributed on     1 nodes
     R & G space division:  proc/nbgrp/npool/nimage =       5
     Waiting for input...
     Reading input from standard input

     Current dimensions of program PWSCF are:
     Max number of different atomic species (ntypx) = 10
     Max number of k-points (npk) =  40000
     Max angular momentum in pseudopotentials (lmaxx) =  3

     Subspace diagonalization in iterative solution of the eigenvalue problem:
     a serial algorithm will be used


     Parallelization info
     --------------------
     sticks:   dense  smooth     PW     G-vecs:    dense   smooth      PW
     Min          50      50     17                  527      527     106
     Max          51      51     17                  528      528     107
     Sum         253     253     85                 2637     2637     531



     bravais-lattice index     =            2
     lattice parameter (alat)  =       7.7100  a.u.
     unit-cell volume          =     114.5785 (a.u.)^3
     number of atoms/cell      =            1
     number of atomic types    =            1
     number of electrons       =        11.00
     number of Kohn-Sham states=           10
     kinetic-energy cutoff     =      30.0000  Ry
     charge density cutoff     =     120.0000  Ry
     convergence threshold     =      1.0E-08
     mixing beta               =       0.7000
     number of iterations used =            8  plain     mixing
     Exchange-correlation      = PBE ( 1  4  3  4 0 0)

     celldm(1)=   7.710000  celldm(2)=   0.000000  celldm(3)=   0.000000
     celldm(4)=   0.000000  celldm(5)=   0.000000  celldm(6)=   0.000000

     crystal axes: (cart. coord. in units of alat)
               a(1) = (  -0.500000   0.000000   0.500000 )  
               a(2) = (   0.000000   0.500000   0.500000 )  
               a(3) = (  -0.500000   0.500000   0.000000 )  

     reciprocal axes: (cart. coord. in units 2 pi/alat)
               b(1) = ( -1.000000 -1.000000  1.000000 )  
               b(2) = (  1.000000  1.000000  1.000000 )  
               b(3) = ( -1.000000  1.000000 -1.000000 )  


     PseudoPot. # 1 for Au read from file:
     /home/lorenzo/pseudos/Au/Au.pbe-n-rrkjus_psl.1.0.0.UPF
     MD5 check sum: d7e77ba19504afed2c9b41c931dde4f0
     Pseudo is Ultrasoft + core correction, Zval = 11.0
     Generated using "atomic" code by A. Dal Corso v.6.3
     Using radial grid of 1279 points,  6 beta functions with: 
                l(1) =   0
                l(2) =   0
                l(3) =   1
                l(4) =   1
                l(5) =   2
                l(6) =   2
     Q(r) pseudized with 0 coefficients 


     atomic species   valence    mass     pseudopotential
        Au            11.00   196.96600     Au( 1.00)

     48 Sym. Ops., with inversion, found



   Cartesian axes

     site n.     atom                  positions (alat units)
         1           Au  tau(   1) = (   0.0000000   0.0000000   0.0000000  )

     number of k points=    10  gaussian smearing, width (Ry)=  0.0100
                       cart. coord. in units 2pi/alat
        k(    1) = (   0.0000000   0.0000000   0.0000000), wk =   0.0160000
        k(    2) = (  -0.2000000   0.2000000  -0.2000000), wk =   0.1280000
        k(    3) = (  -0.4000000   0.4000000  -0.4000000), wk =   0.1280000
        k(    4) = (   0.0000000   0.4000000   0.0000000), wk =   0.0960000
        k(    5) = (  -0.2000000   0.6000000  -0.2000000), wk =   0.3840000
        k(    6) = (   0.6000000  -0.2000000   0.6000000), wk =   0.3840000
        k(    7) = (   0.4000000   0.0000000   0.4000000), wk =   0.1920000
        k(    8) = (   0.0000000   0.8000000   0.0000000), wk =   0.0960000
        k(    9) = (   0.8000000   0.0000000   0.8000000), wk =   0.1920000
        k(   10) = (   0.6000000  -0.2000000   1.0000000), wk =   0.3840000

     Dense  grid:     2637 G-vectors     FFT dimensions: (  20,  20,  20)

     Estimated max dynamical RAM per process >       3.15 MB

     Estimated total dynamical RAM >      15.76 MB

     Initial potential from superposition of free atoms

     starting charge   10.99989, renormalised to   11.00000
     Starting wfcs are    9 randomized atomic wfcs +    1 random wfcs

     total cpu time spent up to now is        1.0 secs

     Self-consistent Calculation

     iteration #  1     ecut=    30.00 Ry     beta= 0.70
     Davidson diagonalization with overlap
     ethr =  1.00E-02,  avg # of iterations =  5.3

     Threshold (ethr) on eigenvalues was too large:
     Diagonalizing with lowered threshold

     Davidson diagonalization with overlap
     ethr =  4.61E-04,  avg # of iterations =  1.7

     total cpu time spent up to now is        1.2 secs

     total energy              =     -85.37568945 Ry
     Harris-Foulkes estimate   =     -85.40779073 Ry
     estimated scf accuracy    <       0.05163951 Ry

     iteration #  2     ecut=    30.00 Ry     beta= 0.70
     Davidson diagonalization with overlap
     ethr =  4.69E-04,  avg # of iterations =  2.3

     total cpu time spent up to now is        1.2 secs

     total energy              =     -85.38912153 Ry
     Harris-Foulkes estimate   =     -85.39655767 Ry
     estimated scf accuracy    <       0.01201563 Ry

     iteration #  3     ecut=    30.00 Ry     beta= 0.70
     Davidson diagonalization with overlap
     ethr =  1.09E-04,  avg # of iterations =  2.0

     total cpu time spent up to now is        1.3 secs

     total energy              =     -85.39180674 Ry
     Harris-Foulkes estimate   =     -85.39187098 Ry
     estimated scf accuracy    <       0.00018022 Ry

     iteration #  4     ecut=    30.00 Ry     beta= 0.70
     Davidson diagonalization with overlap
     ethr =  1.64E-06,  avg # of iterations =  4.3

     total cpu time spent up to now is        1.4 secs

     total energy              =     -85.39198211 Ry
     Harris-Foulkes estimate   =     -85.39206305 Ry
     estimated scf accuracy    <       0.00016027 Ry

     iteration #  5     ecut=    30.00 Ry     beta= 0.70
     Davidson diagonalization with overlap
     ethr =  1.46E-06,  avg # of iterations =  1.0

     total cpu time spent up to now is        1.4 secs

     total energy              =     -85.39199461 Ry
     Harris-Foulkes estimate   =     -85.39200024 Ry
     estimated scf accuracy    <       0.00001087 Ry

     iteration #  6     ecut=    30.00 Ry     beta= 0.70
     Davidson diagonalization with overlap
     ethr =  9.88E-08,  avg # of iterations =  3.0

     total cpu time spent up to now is        1.5 secs

     total energy              =     -85.39200105 Ry
     Harris-Foulkes estimate   =     -85.39200103 Ry
     estimated scf accuracy    <       0.00000031 Ry

     iteration #  7     ecut=    30.00 Ry     beta= 0.70
     Davidson diagonalization with overlap
     ethr =  2.80E-09,  avg # of iterations =  2.0

     total cpu time spent up to now is        1.6 secs

     total energy              =     -85.39200093 Ry
     Harris-Foulkes estimate   =     -85.39200111 Ry
     estimated scf accuracy    <       0.00000032 Ry

     iteration #  8     ecut=    30.00 Ry     beta= 0.70
     Davidson diagonalization with overlap
     ethr =  2.80E-09,  avg # of iterations =  1.1

     total cpu time spent up to now is        1.6 secs

     End of self-consistent calculation

          k = 0.0000 0.0000 0.0000 (   331 PWs)   bands (ev):

     6.1006  11.3476  11.3476  11.3476  12.8759  12.8759  31.3945  35.2614
    35.2614  35.2614

          k =-0.2000 0.2000-0.2000 (   320 PWs)   bands (ev):

     7.3714  11.1043  11.6360  11.6360  12.8763  12.8763  29.2973  32.4920
    36.2281  36.2281

          k =-0.4000 0.4000-0.4000 (   320 PWs)   bands (ev):

     8.6660  11.3839  11.3839  13.3777  13.8524  13.8524  21.4323  31.0212
    34.2517  34.2517

          k = 0.0000 0.4000 0.0000 (   311 PWs)   bands (ev):

     7.8165  10.5418  12.1143  12.1697  12.1697  13.2583  32.4852  32.4852
    32.7075  33.1645

          k =-0.2000 0.6000-0.2000 (   316 PWs)   bands (ev):

     9.3280  10.5439  11.3895  12.3102  14.0080  14.6017  24.4423  30.6142
    30.6299  33.2295

          k = 0.6000-0.2000 0.6000 (   315 PWs)   bands (ev):

     9.5707  10.8341  11.9441  12.0276  13.7942  17.6233  20.0193  27.8845
    32.1608  32.4709

          k = 0.4000 0.0000 0.4000 (   323 PWs)   bands (ev):

     9.0758  10.7125  11.4428  12.2352  12.3986  14.4819  26.6879  28.6596
    33.8106  36.6305

          k = 0.0000 0.8000 0.0000 (   322 PWs)   bands (ev):

     9.0718   9.4344  13.9242  13.9955  13.9955  14.7881  24.9034  27.1754
    27.1754  33.0095

          k = 0.8000 0.0000 0.8000 (   318 PWs)   bands (ev):

     9.3836   9.8667  12.6788  13.4229  14.1292  19.7246  20.6821  23.9496
    27.9573  34.0598

          k = 0.6000-0.2000 1.0000 (   317 PWs)   bands (ev):

    10.1282  10.3821  11.0823  13.0008  13.9815  18.0568  23.1534  24.4037
    27.4267  37.4879

     the Fermi energy is    14.8201 ev

!    total energy              =     -85.39200098 Ry
     Harris-Foulkes estimate   =     -85.39200098 Ry
     estimated scf accuracy    <          5.9E-09 Ry

     The total energy is the sum of the following terms:

     one-electron contribution =      11.06362507 Ry
     hartree contribution      =       7.61419395 Ry
     xc contribution           =     -32.11509483 Ry
     ewald contribution        =     -71.95438537 Ry
     smearing contrib. (-TS)   =      -0.00033980 Ry

     convergence has been achieved in   8 iterations

     Forces acting on atoms (cartesian axes, Ry/au):

     atom    1 type  1   force =     0.00000000    0.00000000    0.00000000

     Total force =     0.000000     Total SCF correction =     0.000000


     Computing stress (Cartesian axis) and pressure

          total   stress  (Ry/bohr**3)                   (kbar)     P=   83.74
   0.00056926   0.00000000  -0.00000000         83.74      0.00     -0.00
   0.00000000   0.00056926  -0.00000000          0.00     83.74     -0.00
  -0.00000000   0.00000000   0.00056926         -0.00      0.00     83.74


     Writing output data file Au.save/

     init_run     :      0.15s CPU      0.15s WALL (       1 calls)
     electrons    :      0.57s CPU      0.62s WALL (       1 calls)
     forces       :      0.02s CPU      0.02s WALL (       1 calls)
     stress       :      0.03s CPU      0.03s WALL (       1 calls)

     Called by init_run:
     wfcinit      :      0.01s CPU      0.02s WALL (       1 calls)
     potinit      :      0.00s CPU      0.00s WALL (       1 calls)
     hinit0       :      0.12s CPU      0.12s WALL (       1 calls)

     Called by electrons:
     c_bands      :      0.44s CPU      0.48s WALL (       9 calls)
     sum_band     :      0.09s CPU      0.09s WALL (       9 calls)
     v_of_rho     :      0.01s CPU      0.01s WALL (       9 calls)
     newd         :      0.03s CPU      0.03s WALL (       9 calls)
     mix_rho      :      0.00s CPU      0.00s WALL (       9 calls)

     Called by c_bands:
     init_us_2    :      0.01s CPU      0.01s WALL (     210 calls)
     cegterg      :      0.41s CPU      0.45s WALL (      90 calls)

     Called by sum_band:
     sum_band:bec :      0.00s CPU      0.00s WALL (      90 calls)
     addusdens    :      0.02s CPU      0.02s WALL (       9 calls)

     Called by *egterg:
     h_psi        :      0.28s CPU      0.32s WALL (     327 calls)
     s_psi        :      0.01s CPU      0.01s WALL (     327 calls)
     g_psi        :      0.00s CPU      0.00s WALL (     227 calls)
     cdiaghg      :      0.08s CPU      0.08s WALL (     307 calls)

     Called by h_psi:
     h_psi:pot    :      0.28s CPU      0.31s WALL (     327 calls)
     h_psi:calbec :      0.02s CPU      0.02s WALL (     327 calls)
     vloc_psi     :      0.25s CPU      0.28s WALL (     327 calls)
     add_vuspsi   :      0.01s CPU      0.01s WALL (     327 calls)

     General routines
     calbec       :      0.03s CPU      0.03s WALL (     467 calls)
     fft          :      0.01s CPU      0.01s WALL (     126 calls)
     ffts         :      0.00s CPU      0.00s WALL (       9 calls)
     fftw         :      0.28s CPU      0.31s WALL (    5680 calls)

     Parallel routines
     fft_scatt_xy :      0.02s CPU      0.02s WALL (    5815 calls)
     fft_scatt_yz :      0.12s CPU      0.13s WALL (    5815 calls)

     PWSCF        :     1.64s CPU         1.77s WALL


   This run was terminated on:  11:25:38  26Mar2024            

=------------------------------------------------------------------------------=
   JOB DONE.
=------------------------------------------------------------------------------=
