
     Program PWSCF v.6.3MaX starts on 26Mar2024 at 11:44:13 

     This program is part of the open-source Quantum ESPRESSO suite
     for quantum simulation of materials; please cite
         "P. Giannozzi et al., J. Phys.:Condens. Matter 21 395502 (2009);
         "P. Giannozzi et al., J. Phys.:Condens. Matter 29 465901 (2017);
          URL http://www.quantum-espresso.org", 
     in publications or presentations arising from this work. More details at
     http://www.quantum-espresso.org/quote

     Parallel version (MPI), running on     5 processors

     MPI processes distributed on     1 nodes
     R & G space division:  proc/nbgrp/npool/nimage =       5
     Waiting for input...
     Reading input from standard input

     Current dimensions of program PWSCF are:
     Max number of different atomic species (ntypx) = 10
     Max number of k-points (npk) =  40000
     Max angular momentum in pseudopotentials (lmaxx) =  3

     Subspace diagonalization in iterative solution of the eigenvalue problem:
     a serial algorithm will be used


     Parallelization info
     --------------------
     sticks:   dense  smooth     PW     G-vecs:    dense   smooth      PW
     Min          84      84     27                 1115     1115     207
     Max          85      85     28                 1117     1117     208
     Sum         421     421    139                 5577     5577    1037



     bravais-lattice index     =            2
     lattice parameter (alat)  =       7.7100  a.u.
     unit-cell volume          =     114.5785 (a.u.)^3
     number of atoms/cell      =            1
     number of atomic types    =            1
     number of electrons       =        11.00
     number of Kohn-Sham states=           10
     kinetic-energy cutoff     =      50.0000  Ry
     charge density cutoff     =     200.0000  Ry
     convergence threshold     =      1.0E-08
     mixing beta               =       0.7000
     number of iterations used =            8  plain     mixing
     Exchange-correlation      = PBESOL ( 1  4 10  8 0 0)

     celldm(1)=   7.710000  celldm(2)=   0.000000  celldm(3)=   0.000000
     celldm(4)=   0.000000  celldm(5)=   0.000000  celldm(6)=   0.000000

     crystal axes: (cart. coord. in units of alat)
               a(1) = (  -0.500000   0.000000   0.500000 )  
               a(2) = (   0.000000   0.500000   0.500000 )  
               a(3) = (  -0.500000   0.500000   0.000000 )  

     reciprocal axes: (cart. coord. in units 2 pi/alat)
               b(1) = ( -1.000000 -1.000000  1.000000 )  
               b(2) = (  1.000000  1.000000  1.000000 )  
               b(3) = ( -1.000000  1.000000 -1.000000 )  


     PseudoPot. # 1 for Au read from file:
     /home/lorenzo/pseudos/Au/Au.pbesol-n-rrkjus_psl.1.0.0.UPF
     MD5 check sum: 09626e9411213730b9a56fcc59c03ca8
     Pseudo is Ultrasoft + core correction, Zval = 11.0
     Generated using "atomic" code by A. Dal Corso v.6.3
     Using radial grid of 1279 points,  6 beta functions with: 
                l(1) =   0
                l(2) =   0
                l(3) =   1
                l(4) =   1
                l(5) =   2
                l(6) =   2
     Q(r) pseudized with 0 coefficients 


     atomic species   valence    mass     pseudopotential
        Au            11.00   196.96600     Au( 1.00)

     48 Sym. Ops., with inversion, found



   Cartesian axes

     site n.     atom                  positions (alat units)
         1           Au  tau(   1) = (   0.0000000   0.0000000   0.0000000  )

     number of k points=    29  gaussian smearing, width (Ry)=  0.0100
                       cart. coord. in units 2pi/alat
        k(    1) = (   0.0000000   0.0000000   0.0000000), wk =   0.0039062
        k(    2) = (  -0.1250000   0.1250000  -0.1250000), wk =   0.0312500
        k(    3) = (  -0.2500000   0.2500000  -0.2500000), wk =   0.0312500
        k(    4) = (  -0.3750000   0.3750000  -0.3750000), wk =   0.0312500
        k(    5) = (   0.5000000  -0.5000000   0.5000000), wk =   0.0156250
        k(    6) = (   0.0000000   0.2500000   0.0000000), wk =   0.0234375
        k(    7) = (  -0.1250000   0.3750000  -0.1250000), wk =   0.0937500
        k(    8) = (  -0.2500000   0.5000000  -0.2500000), wk =   0.0937500
        k(    9) = (   0.6250000  -0.3750000   0.6250000), wk =   0.0937500
        k(   10) = (   0.5000000  -0.2500000   0.5000000), wk =   0.0937500
        k(   11) = (   0.3750000  -0.1250000   0.3750000), wk =   0.0937500
        k(   12) = (   0.2500000   0.0000000   0.2500000), wk =   0.0468750
        k(   13) = (   0.0000000   0.5000000   0.0000000), wk =   0.0234375
        k(   14) = (  -0.1250000   0.6250000  -0.1250000), wk =   0.0937500
        k(   15) = (   0.7500000  -0.2500000   0.7500000), wk =   0.0937500
        k(   16) = (   0.6250000  -0.1250000   0.6250000), wk =   0.0937500
        k(   17) = (   0.5000000   0.0000000   0.5000000), wk =   0.0468750
        k(   18) = (   0.0000000   0.7500000   0.0000000), wk =   0.0234375
        k(   19) = (   0.8750000  -0.1250000   0.8750000), wk =   0.0937500
        k(   20) = (   0.7500000   0.0000000   0.7500000), wk =   0.0468750
        k(   21) = (   0.0000000  -1.0000000   0.0000000), wk =   0.0117188
        k(   22) = (  -0.2500000   0.5000000   0.0000000), wk =   0.0937500
        k(   23) = (   0.6250000  -0.3750000   0.8750000), wk =   0.1875000
        k(   24) = (   0.5000000  -0.2500000   0.7500000), wk =   0.0937500
        k(   25) = (   0.7500000  -0.2500000   1.0000000), wk =   0.0937500
        k(   26) = (   0.6250000  -0.1250000   0.8750000), wk =   0.1875000
        k(   27) = (   0.5000000   0.0000000   0.7500000), wk =   0.0937500
        k(   28) = (  -0.2500000  -1.0000000   0.0000000), wk =   0.0468750
        k(   29) = (  -0.5000000  -1.0000000   0.0000000), wk =   0.0234375

     Dense  grid:     5577 G-vectors     FFT dimensions: (  25,  25,  25)

     Estimated max dynamical RAM per process >       6.16 MB

     Estimated total dynamical RAM >      30.79 MB

     Initial potential from superposition of free atoms

     starting charge   10.99990, renormalised to   11.00000
     Starting wfcs are    9 randomized atomic wfcs +    1 random wfcs

     total cpu time spent up to now is        1.1 secs

     Self-consistent Calculation

     iteration #  1     ecut=    50.00 Ry     beta= 0.70
     Davidson diagonalization with overlap
     ethr =  1.00E-02,  avg # of iterations =  5.3

     Threshold (ethr) on eigenvalues was too large:
     Diagonalizing with lowered threshold

     Davidson diagonalization with overlap
     ethr =  5.54E-04,  avg # of iterations =  1.5

     total cpu time spent up to now is        1.8 secs

     total energy              =     -85.19335554 Ry
     Harris-Foulkes estimate   =     -85.22533683 Ry
     estimated scf accuracy    <       0.06226821 Ry

     iteration #  2     ecut=    50.00 Ry     beta= 0.70
     Davidson diagonalization with overlap
     ethr =  5.66E-04,  avg # of iterations =  4.4

     total cpu time spent up to now is        2.3 secs

     total energy              =     -36.01670945 Ry
     Harris-Foulkes estimate   =    -212.92224796 Ry
     estimated scf accuracy    <  181124.31949366 Ry

     iteration #  3     ecut=    50.00 Ry     beta= 0.70
     Davidson diagonalization with overlap
     ethr =  5.66E-04,  avg # of iterations =  7.6

     total cpu time spent up to now is        2.8 secs

     total energy              =     -85.20199128 Ry
     Harris-Foulkes estimate   =     -85.21220479 Ry
     estimated scf accuracy    <       0.02302031 Ry

     iteration #  4     ecut=    50.00 Ry     beta= 0.70
     Davidson diagonalization with overlap
     ethr =  2.09E-04,  avg # of iterations =  1.7

     total cpu time spent up to now is        3.1 secs

     total energy              =     -85.20515180 Ry
     Harris-Foulkes estimate   =     -85.20529120 Ry
     estimated scf accuracy    <       0.00594729 Ry

     iteration #  5     ecut=    50.00 Ry     beta= 0.70
     Davidson diagonalization with overlap
     ethr =  5.41E-05,  avg # of iterations =  2.0

     total cpu time spent up to now is        3.3 secs

     total energy              =     -85.20558152 Ry
     Harris-Foulkes estimate   =     -85.20560391 Ry
     estimated scf accuracy    <       0.00401814 Ry

     iteration #  6     ecut=    50.00 Ry     beta= 0.70
     Davidson diagonalization with overlap
     ethr =  3.65E-05,  avg # of iterations =  1.2

     total cpu time spent up to now is        3.5 secs

     total energy              =     -85.20565650 Ry
     Harris-Foulkes estimate   =     -85.20566627 Ry
     estimated scf accuracy    <       0.00391004 Ry

     iteration #  7     ecut=    50.00 Ry     beta= 0.70
     Davidson diagonalization with overlap
     ethr =  3.55E-05,  avg # of iterations =  1.0

     total cpu time spent up to now is        3.7 secs

     total energy              =     -85.20568807 Ry
     Harris-Foulkes estimate   =     -85.20568761 Ry
     estimated scf accuracy    <       0.00396363 Ry

     iteration #  8     ecut=    50.00 Ry     beta= 0.70
     Davidson diagonalization with overlap
     ethr =  3.55E-05,  avg # of iterations =  1.0

     total cpu time spent up to now is        3.9 secs

     total energy              =     -85.20569691 Ry
     Harris-Foulkes estimate   =     -85.20570016 Ry
     estimated scf accuracy    <       0.00398102 Ry

     iteration #  9     ecut=    50.00 Ry     beta= 0.70
     Davidson diagonalization with overlap
     ethr =  3.55E-05,  avg # of iterations =  1.2

     total cpu time spent up to now is        4.1 secs

     total energy              =     -85.20569472 Ry
     Harris-Foulkes estimate   =     -85.20570098 Ry
     estimated scf accuracy    <       0.00396573 Ry

     iteration # 10     ecut=    50.00 Ry     beta= 0.70
     Davidson diagonalization with overlap
     ethr =  3.55E-05,  avg # of iterations =  1.0

     total cpu time spent up to now is        4.3 secs

     total energy              =     -85.20569429 Ry
     Harris-Foulkes estimate   =     -85.20569717 Ry
     estimated scf accuracy    <       0.00390964 Ry

     iteration # 11     ecut=    50.00 Ry     beta= 0.70
     Davidson diagonalization with overlap
     ethr =  3.55E-05,  avg # of iterations =  1.0

     total cpu time spent up to now is        4.5 secs

     total energy              =     -85.20580204 Ry
     Harris-Foulkes estimate   =     -85.20569554 Ry
     estimated scf accuracy    <       0.00388255 Ry

     iteration # 12     ecut=    50.00 Ry     beta= 0.70
     Davidson diagonalization with overlap
     ethr =  3.53E-05,  avg # of iterations =  3.3

     total cpu time spent up to now is        4.8 secs

     total energy              =     -85.20595922 Ry
     Harris-Foulkes estimate   =     -85.20686069 Ry
     estimated scf accuracy    <       0.00381220 Ry

     iteration # 13     ecut=    50.00 Ry     beta= 0.70
     Davidson diagonalization with overlap
     ethr =  3.47E-05,  avg # of iterations =  1.0

     total cpu time spent up to now is        5.0 secs

     total energy              =     -85.20519900 Ry
     Harris-Foulkes estimate   =     -85.20604239 Ry
     estimated scf accuracy    <       0.00170057 Ry

     iteration # 14     ecut=    50.00 Ry     beta= 0.70
     Davidson diagonalization with overlap
     ethr =  1.55E-05,  avg # of iterations =  1.9

     total cpu time spent up to now is        5.3 secs

     total energy              =     -85.20541264 Ry
     Harris-Foulkes estimate   =     -85.20543974 Ry
     estimated scf accuracy    <       0.00013450 Ry

     iteration # 15     ecut=    50.00 Ry     beta= 0.70
     Davidson diagonalization with overlap
     ethr =  1.22E-06,  avg # of iterations =  2.9

     total cpu time spent up to now is        5.6 secs

     total energy              =     -85.20546084 Ry
     Harris-Foulkes estimate   =     -85.20546524 Ry
     estimated scf accuracy    <       0.00008443 Ry

     iteration # 16     ecut=    50.00 Ry     beta= 0.70
     Davidson diagonalization with overlap
     ethr =  7.68E-07,  avg # of iterations =  1.8

     total cpu time spent up to now is        5.8 secs

     total energy              =     -85.20545711 Ry
     Harris-Foulkes estimate   =     -85.20546346 Ry
     estimated scf accuracy    <       0.00002430 Ry

     iteration # 17     ecut=    50.00 Ry     beta= 0.70
     Davidson diagonalization with overlap
     ethr =  2.21E-07,  avg # of iterations =  3.1

     total cpu time spent up to now is        6.1 secs

     total energy              =     -85.20545146 Ry
     Harris-Foulkes estimate   =     -85.20546780 Ry
     estimated scf accuracy    <       0.00010783 Ry

     iteration # 18     ecut=    50.00 Ry     beta= 0.70
     Davidson diagonalization with overlap
     ethr =  2.21E-07,  avg # of iterations =  2.2

     total cpu time spent up to now is        6.4 secs

     total energy              =     -85.20545849 Ry
     Harris-Foulkes estimate   =     -85.20545850 Ry
     estimated scf accuracy    <       0.00000009 Ry

     iteration # 19     ecut=    50.00 Ry     beta= 0.70
     Davidson diagonalization with overlap
     ethr =  8.34E-10,  avg # of iterations =  3.6

     total cpu time spent up to now is        6.7 secs

     total energy              =     -85.20545859 Ry
     Harris-Foulkes estimate   =     -85.20545860 Ry
     estimated scf accuracy    <       0.00000002 Ry

     iteration # 20     ecut=    50.00 Ry     beta= 0.70
     Davidson diagonalization with overlap
     ethr =  1.84E-10,  avg # of iterations =  2.6

     total cpu time spent up to now is        6.9 secs

     total energy              =     -85.20545859 Ry
     Harris-Foulkes estimate   =     -85.20545860 Ry
     estimated scf accuracy    <       0.00000006 Ry

     iteration # 21     ecut=    50.00 Ry     beta= 0.70
     Davidson diagonalization with overlap
     ethr =  1.84E-10,  avg # of iterations =  2.3

     total cpu time spent up to now is        7.2 secs

     End of self-consistent calculation

          k = 0.0000 0.0000 0.0000 (   701 PWs)   bands (ev):

     5.8357  11.1337  11.1337  11.1337  12.6792  12.6792  31.1387  35.0026
    35.0026  35.0026

          k =-0.1250 0.1250-0.1250 (   679 PWs)   bands (ev):

     6.3683  10.9787  11.3015  11.3015  12.6207  12.6207  31.4199  32.2965
    35.4985  35.4985

          k =-0.2500 0.2500-0.2500 (   679 PWs)   bands (ev):

     7.6508  10.9793  11.4192  11.4192  12.8477  12.8477  27.1073  32.0943
    35.9663  35.9663

          k =-0.3750 0.3750-0.3750 (   679 PWs)   bands (ev):

     8.3953  11.2141  11.2141  12.5849  13.5320  13.5320  22.1228  30.9497
    34.3160  34.3160

          k = 0.5000-0.5000 0.5000 (   700 PWs)   bands (ev):

     8.4502  11.0969  11.0969  13.8962  13.8962  14.7574  18.9215  30.4214
    33.3605  33.3605

          k = 0.0000 0.2500 0.0000 (   681 PWs)   bands (ev):

     6.5495  10.7756  11.4634  11.4634  12.3033  12.8389  31.9411  33.2128
    34.0613  34.0613

          k =-0.1250 0.3750-0.1250 (   683 PWs)   bands (ev):

     7.6366  10.4973  11.5319  11.7357  12.4387  13.0899  29.0686  32.5272
    33.0461  35.0620

          k =-0.2500 0.5000-0.2500 (   676 PWs)   bands (ev):

     8.6823  11.0024  11.1181  11.6300  13.6604  13.7861  23.9488  31.4625
    32.1258  33.6706

          k = 0.6250-0.3750 0.6250 (   685 PWs)   bands (ev):

     8.8310  10.8607  11.4328  12.3035  13.9214  16.1159  19.4899  30.3481
    32.0639  32.0733

          k = 0.5000-0.2500 0.5000 (   680 PWs)   bands (ev):

     8.8530  10.9415  11.4267  12.1623  13.4370  15.4332  20.8842  29.9136
    31.8599  33.7373

          k = 0.3750-0.1250 0.3750 (   674 PWs)   bands (ev):

     8.4831  10.7854  11.3167  11.6454  12.5646  13.9313  25.6621  30.3561
    33.2482  36.9436

          k = 0.2500 0.0000 0.2500 (   682 PWs)   bands (ev):

     7.1942  10.7131  11.4822  11.5772  12.2749  13.0143  30.0924  31.3598
    34.3863  36.4539

          k = 0.0000 0.5000 0.0000 (   681 PWs)   bands (ev):

     8.2777   9.9953  11.8224  12.3847  12.3847  13.2398  30.7772  30.7772
    31.9488  32.9052

          k =-0.1250 0.6250-0.1250 (   683 PWs)   bands (ev):

     9.0556   9.8110  11.6020  12.5615  13.7191  13.9336  26.0653  29.4033
    29.5557  33.2823

          k = 0.7500-0.2500 0.7500 (   687 PWs)   bands (ev):

     9.3275  10.2508  11.4616  12.3362  13.9872  16.8466  21.2560  27.3339
    29.4334  32.9899

          k = 0.6250-0.1250 0.6250 (   687 PWs)   bands (ev):

     9.6057  10.5285  11.3603  12.1528  13.4795  17.7185  20.6721  25.7266
    31.1806  32.6553

          k = 0.5000 0.0000 0.5000 (   676 PWs)   bands (ev):

     9.6639  10.5790  10.9182  12.0696  12.6684  15.5557  24.3794  26.1262
    32.8018  34.1010

          k = 0.0000 0.7500 0.0000 (   684 PWs)   bands (ev):

     8.8852   9.3070  13.5854  13.5854  13.6648  13.8059  25.8000  27.4069
    27.4069  32.4864

          k = 0.8750-0.1250 0.8750 (   682 PWs)   bands (ev):

     8.9777   9.3321  12.9945  13.4118  14.0837  16.9352  22.4486  25.2478
    26.9988  33.6464

          k = 0.7500 0.0000 0.7500 (   694 PWs)   bands (ev):

     9.3321   9.9548  11.9779  12.9683  13.7729  19.6973  20.4928  23.1860
    28.5098  33.5687

          k = 0.0000-1.0000 0.0000 (   692 PWs)   bands (ev):

     8.7027   9.0432  13.8487  14.2270  14.2270  16.7662  21.5505  25.9681
    25.9681  32.8080

          k =-0.2500 0.5000 0.0000 (   676 PWs)   bands (ev):

     8.7735  10.2042  11.1749  12.3872  12.4749  13.9697  27.2204  29.0003
    32.2312  35.4716

          k = 0.6250-0.3750 0.8750 (   681 PWs)   bands (ev):

     9.4714  10.6271  10.8232  12.1883  13.3953  15.6978  22.8551  27.8466
    30.2544  34.7929

          k = 0.5000-0.2500 0.7500 (   682 PWs)   bands (ev):

     9.4821  10.4480  11.5483  11.9828  13.7570  18.4338  18.9130  28.0701
    29.0404  34.0220

          k = 0.7500-0.2500 1.0000 (   680 PWs)   bands (ev):

     9.3948   9.6635  11.6334  13.2751  13.5762  15.9559  24.2052  26.1586
    27.5218  35.5175

          k = 0.6250-0.1250 0.8750 (   689 PWs)   bands (ev):

     9.6502  10.0968  11.3098  12.7487  13.9435  18.9632  20.9878  24.5743
    26.9047  35.6993

          k = 0.5000 0.0000 0.7500 (   684 PWs)   bands (ev):

    10.1014  10.3828  10.6726  12.5376  13.5794  17.8777  22.9381  23.4093
    28.4223  35.7182

          k =-0.2500-1.0000 0.0000 (   686 PWs)   bands (ev):

     9.1652   9.4485  12.5381  13.2978  14.2280  18.9473  21.0101  24.8520
    25.4383  35.6767

          k =-0.5000-1.0000 0.0000 (   700 PWs)   bands (ev):

     9.8251  10.6457  10.6457  12.5236  14.2290  20.5582  22.1411  22.1411
    25.1351  39.3311

     the Fermi energy is    15.7911 ev

!    total energy              =     -85.20545862 Ry
     Harris-Foulkes estimate   =     -85.20545860 Ry
     estimated scf accuracy    <          4.7E-09 Ry

     The total energy is the sum of the following terms:

     one-electron contribution =      11.01578076 Ry
     hartree contribution      =       7.54076005 Ry
     xc contribution           =     -31.80721503 Ry
     ewald contribution        =     -71.95438538 Ry
     smearing contrib. (-TS)   =      -0.00039902 Ry

     convergence has been achieved in  21 iterations

     Forces acting on atoms (cartesian axes, Ry/au):

     atom    1 type  1   force =     0.00000000    0.00000000    0.00000000

     Total force =     0.000000     Total SCF correction =     0.000000


     Computing stress (Cartesian axis) and pressure

          total   stress  (Ry/bohr**3)                   (kbar)     P=   22.74
   0.00015456  -0.00000000   0.00000000         22.74     -0.00      0.00
  -0.00000000   0.00015456   0.00000000         -0.00     22.74      0.00
   0.00000000   0.00000000   0.00015456          0.00      0.00     22.74


     Writing output data file Au.save/

     init_run     :      0.24s CPU      0.26s WALL (       1 calls)
     electrons    :      5.78s CPU      6.09s WALL (       1 calls)
     forces       :      0.07s CPU      0.07s WALL (       1 calls)
     stress       :      0.10s CPU      0.11s WALL (       1 calls)

     Called by init_run:
     wfcinit      :      0.08s CPU      0.08s WALL (       1 calls)
     potinit      :      0.01s CPU      0.01s WALL (       1 calls)
     hinit0       :      0.15s CPU      0.15s WALL (       1 calls)

     Called by electrons:
     c_bands      :      4.69s CPU      4.94s WALL (      22 calls)
     sum_band     :      0.88s CPU      0.93s WALL (      22 calls)
     v_of_rho     :      0.08s CPU      0.08s WALL (      22 calls)
     newd         :      0.13s CPU      0.13s WALL (      22 calls)
     mix_rho      :      0.02s CPU      0.02s WALL (      22 calls)

     Called by c_bands:
     init_us_2    :      0.12s CPU      0.13s WALL (    1363 calls)
     cegterg      :      4.48s CPU      4.73s WALL (     638 calls)

     Called by sum_band:
     sum_band:bec :      0.01s CPU      0.01s WALL (     638 calls)
     addusdens    :      0.12s CPU      0.12s WALL (      22 calls)

     Called by *egterg:
     h_psi        :      3.36s CPU      3.54s WALL (    2220 calls)
     s_psi        :      0.09s CPU      0.10s WALL (    2220 calls)
     g_psi        :      0.01s CPU      0.01s WALL (    1553 calls)
     cdiaghg      :      0.52s CPU      0.54s WALL (    2162 calls)

     Called by h_psi:
     h_psi:pot    :      3.34s CPU      3.52s WALL (    2220 calls)
     h_psi:calbec :      0.16s CPU      0.17s WALL (    2220 calls)
     vloc_psi     :      3.07s CPU      3.24s WALL (    2220 calls)
     add_vuspsi   :      0.09s CPU      0.10s WALL (    2220 calls)

     General routines
     calbec       :      0.24s CPU      0.25s WALL (    3003 calls)
     fft          :      0.06s CPU      0.06s WALL (     269 calls)
     ffts         :      0.00s CPU      0.00s WALL (      22 calls)
     fftw         :      3.45s CPU      3.65s WALL (   38750 calls)

     Parallel routines
     fft_scatt_xy :      0.27s CPU      0.28s WALL (   39041 calls)
     fft_scatt_yz :      1.12s CPU      1.18s WALL (   39041 calls)

     PWSCF        :     7.07s CPU         7.46s WALL


   This run was terminated on:  11:44:20  26Mar2024            

=------------------------------------------------------------------------------=
   JOB DONE.
=------------------------------------------------------------------------------=
