
     Program PWSCF v.6.3MaX starts on 26Mar2024 at 11:54: 0 

     This program is part of the open-source Quantum ESPRESSO suite
     for quantum simulation of materials; please cite
         "P. Giannozzi et al., J. Phys.:Condens. Matter 21 395502 (2009);
         "P. Giannozzi et al., J. Phys.:Condens. Matter 29 465901 (2017);
          URL http://www.quantum-espresso.org", 
     in publications or presentations arising from this work. More details at
     http://www.quantum-espresso.org/quote

     Parallel version (MPI), running on     5 processors

     MPI processes distributed on     1 nodes
     R & G space division:  proc/nbgrp/npool/nimage =       5
     Waiting for input...
     Reading input from standard input

     Current dimensions of program PWSCF are:
     Max number of different atomic species (ntypx) = 10
     Max number of k-points (npk) =  40000
     Max angular momentum in pseudopotentials (lmaxx) =  3
               file Au.pbe-n-kjpaw_psl.1.0.0.UPF: wavefunction(s)  6S 5D renormalized

     Subspace diagonalization in iterative solution of the eigenvalue problem:
     a serial algorithm will be used


     Parallelization info
     --------------------
     sticks:   dense  smooth     PW     G-vecs:    dense   smooth      PW
     Min          99      99     30                 1446     1446     248
     Max         100     100     31                 1449     1449     251
     Sum         499     499    151                 7239     7239    1243



     bravais-lattice index     =            2
     lattice parameter (alat)  =       7.7100  a.u.
     unit-cell volume          =     114.5785 (a.u.)^3
     number of atoms/cell      =            1
     number of atomic types    =            1
     number of electrons       =        11.00
     number of Kohn-Sham states=           10
     kinetic-energy cutoff     =      60.0000  Ry
     charge density cutoff     =     240.0000  Ry
     convergence threshold     =      1.0E-08
     mixing beta               =       0.7000
     number of iterations used =            8  plain     mixing
     Exchange-correlation      = SLA PW PBX PBC ( 1  4  3  4 0 0)

     celldm(1)=   7.710000  celldm(2)=   0.000000  celldm(3)=   0.000000
     celldm(4)=   0.000000  celldm(5)=   0.000000  celldm(6)=   0.000000

     crystal axes: (cart. coord. in units of alat)
               a(1) = (  -0.500000   0.000000   0.500000 )  
               a(2) = (   0.000000   0.500000   0.500000 )  
               a(3) = (  -0.500000   0.500000   0.000000 )  

     reciprocal axes: (cart. coord. in units 2 pi/alat)
               b(1) = ( -1.000000 -1.000000  1.000000 )  
               b(2) = (  1.000000  1.000000  1.000000 )  
               b(3) = ( -1.000000  1.000000 -1.000000 )  


     PseudoPot. # 1 for Au read from file:
     /home/lorenzo/pseudos/Au/Au.pbe-n-kjpaw_psl.1.0.0.UPF
     MD5 check sum: 4db85c736373c707a97ce4c36c2a9d23
     Pseudo is Projector augmented-wave + core cor, Zval = 11.0
     Generated using "atomic" code by A. Dal Corso v.6.3
     Shape of augmentation charge: PSQ
     Using radial grid of 1279 points,  6 beta functions with: 
                l(1) =   0
                l(2) =   0
                l(3) =   1
                l(4) =   1
                l(5) =   2
                l(6) =   2
     Q(r) pseudized with 0 coefficients 


     atomic species   valence    mass     pseudopotential
        Au            11.00   196.96600     Au( 1.00)

     48 Sym. Ops., with inversion, found



   Cartesian axes

     site n.     atom                  positions (alat units)
         1           Au  tau(   1) = (   0.0000000   0.0000000   0.0000000  )

     number of k points=     8  gaussian smearing, width (Ry)=  0.0100
                       cart. coord. in units 2pi/alat
        k(    1) = (   0.0000000   0.0000000   0.0000000), wk =   0.0312500
        k(    2) = (  -0.2500000   0.2500000  -0.2500000), wk =   0.2500000
        k(    3) = (   0.5000000  -0.5000000   0.5000000), wk =   0.1250000
        k(    4) = (   0.0000000   0.5000000   0.0000000), wk =   0.1875000
        k(    5) = (   0.7500000  -0.2500000   0.7500000), wk =   0.7500000
        k(    6) = (   0.5000000   0.0000000   0.5000000), wk =   0.3750000
        k(    7) = (   0.0000000  -1.0000000   0.0000000), wk =   0.0937500
        k(    8) = (  -0.5000000  -1.0000000   0.0000000), wk =   0.1875000

     Dense  grid:     7239 G-vectors     FFT dimensions: (  27,  27,  27)

     Estimated max dynamical RAM per process >       7.17 MB

     Estimated total dynamical RAM >      35.84 MB

     Initial potential from superposition of free atoms

     starting charge   10.99989, renormalised to   11.00000
     Starting wfcs are    9 randomized atomic wfcs +    1 random wfcs
     Checking if some PAW data can be deallocated... 

     total cpu time spent up to now is        1.3 secs

     Self-consistent Calculation

     iteration #  1     ecut=    60.00 Ry     beta= 0.70
     Davidson diagonalization with overlap
     ethr =  1.00E-02,  avg # of iterations =  6.1

     Threshold (ethr) on eigenvalues was too large:
     Diagonalizing with lowered threshold

     Davidson diagonalization with overlap
     ethr =  4.68E-04,  avg # of iterations =  2.5

     total cpu time spent up to now is        1.7 secs

     total energy              =    -775.10249542 Ry
     Harris-Foulkes estimate   =    -775.13800944 Ry
     estimated scf accuracy    <       0.05229532 Ry

     iteration #  2     ecut=    60.00 Ry     beta= 0.70
     Davidson diagonalization with overlap
     ethr =  4.75E-04,  avg # of iterations =  2.9

     total cpu time spent up to now is        1.9 secs

     total energy              =    -775.11826177 Ry
     Harris-Foulkes estimate   =    -775.12719210 Ry
     estimated scf accuracy    <       0.01464699 Ry

     iteration #  3     ecut=    60.00 Ry     beta= 0.70
     Davidson diagonalization with overlap
     ethr =  1.33E-04,  avg # of iterations =  2.0

     total cpu time spent up to now is        2.1 secs

     total energy              =    -775.12144249 Ry
     Harris-Foulkes estimate   =    -775.12147400 Ry
     estimated scf accuracy    <       0.00022953 Ry

     iteration #  4     ecut=    60.00 Ry     beta= 0.70
     Davidson diagonalization with overlap
     ethr =  2.09E-06,  avg # of iterations =  3.9

     total cpu time spent up to now is        2.4 secs

     total energy              =    -775.12164891 Ry
     Harris-Foulkes estimate   =    -775.12174094 Ry
     estimated scf accuracy    <       0.00019077 Ry

     iteration #  5     ecut=    60.00 Ry     beta= 0.70
     Davidson diagonalization with overlap
     ethr =  1.73E-06,  avg # of iterations =  1.0

     total cpu time spent up to now is        2.6 secs

     total energy              =    -775.12165938 Ry
     Harris-Foulkes estimate   =    -775.12166746 Ry
     estimated scf accuracy    <       0.00001820 Ry

     iteration #  6     ecut=    60.00 Ry     beta= 0.70
     Davidson diagonalization with overlap
     ethr =  1.65E-07,  avg # of iterations =  3.0

     total cpu time spent up to now is        2.8 secs

     total energy              =    -775.12166527 Ry
     Harris-Foulkes estimate   =    -775.12166575 Ry
     estimated scf accuracy    <       0.00000058 Ry

     iteration #  7     ecut=    60.00 Ry     beta= 0.70
     Davidson diagonalization with overlap
     ethr =  5.30E-09,  avg # of iterations =  3.8

     total cpu time spent up to now is        3.1 secs

     total energy              =    -775.12166570 Ry
     Harris-Foulkes estimate   =    -775.12166575 Ry
     estimated scf accuracy    <       0.00000013 Ry

     iteration #  8     ecut=    60.00 Ry     beta= 0.70
     Davidson diagonalization with overlap
     ethr =  1.15E-09,  avg # of iterations =  1.4

     total cpu time spent up to now is        3.3 secs

     total energy              =    -775.12166571 Ry
     Harris-Foulkes estimate   =    -775.12166571 Ry
     estimated scf accuracy    <       0.00000001 Ry

     iteration #  9     ecut=    60.00 Ry     beta= 0.70
     Davidson diagonalization with overlap
     ethr =  1.30E-10,  avg # of iterations =  2.6

     total cpu time spent up to now is        3.6 secs

     End of self-consistent calculation

          k = 0.0000 0.0000 0.0000 (   893 PWs)   bands (ev):

     6.0714  11.2639  11.2639  11.2639  12.7931  12.7931  31.3847  35.2445
    35.2445  35.2445

          k =-0.2500 0.2500-0.2500 (   902 PWs)   bands (ev):

     7.8750  11.1314  11.5472  11.5472  12.9619  12.9619  27.2738  32.3097
    36.1413  36.1413

          k = 0.5000-0.5000 0.5000 (   886 PWs)   bands (ev):

     8.6243  11.2279  11.2279  13.9995  13.9995  14.9988  19.0620  30.6702
    33.5936  33.5936

          k = 0.0000 0.5000 0.0000 (   902 PWs)   bands (ev):

     8.5024  10.1363  11.9660  12.5065  12.5065  13.3505  30.9529  30.9529
    32.3148  33.1189

          k = 0.7500-0.2500 0.7500 (   898 PWs)   bands (ev):

     9.4904  10.4051  11.6150  12.4572  14.0891  17.0106  21.4543  27.5935
    29.6783  33.1679

          k = 0.5000 0.0000 0.5000 (   889 PWs)   bands (ev):

     9.8525  10.7252  11.0697  12.1925  12.7845  15.6928  24.6129  26.2580
    33.0600  34.4408

          k = 0.0000-1.0000 0.0000 (   934 PWs)   bands (ev):

     8.8760   9.1902  13.9566  14.3224  14.3224  17.0052  21.7731  26.2056
    26.2056  33.2030

          k =-0.5000-1.0000 0.0000 (   892 PWs)   bands (ev):

     9.9842  10.7934  10.7934  12.6486  14.3244  20.7760  22.3222  22.3222
    25.4347  39.4430

     the Fermi energy is    16.8381 ev

!    total energy              =    -775.12166571 Ry
     Harris-Foulkes estimate   =    -775.12166571 Ry
     estimated scf accuracy    <          9.4E-11 Ry

     total all-electron energy =    -38023.967757 Ry

     The total energy is the sum of the following terms:

     one-electron contribution =      13.85002623 Ry
     hartree contribution      =       7.62939268 Ry
     xc contribution           =     -32.12119619 Ry
     ewald contribution        =     -71.95438535 Ry
     one-center paw contrib.   =    -692.52502029 Ry
     smearing contrib. (-TS)   =      -0.00048279 Ry

     convergence has been achieved in   9 iterations

     Forces acting on atoms (cartesian axes, Ry/au):

     atom    1 type  1   force =     0.00000000    0.00000000    0.00000000

     Total force =     0.000000     Total SCF correction =     0.000000


     Computing stress (Cartesian axis) and pressure

          total   stress  (Ry/bohr**3)                   (kbar)     P=  127.74
   0.00086836   0.00000000   0.00000000        127.74      0.00      0.00
   0.00000000   0.00086836  -0.00000000          0.00    127.74     -0.00
   0.00000000  -0.00000000   0.00086836          0.00     -0.00    127.74


     Writing output data file Au.save/

     init_run     :      0.33s CPU      0.36s WALL (       1 calls)
     electrons    :      2.08s CPU      2.24s WALL (       1 calls)
     forces       :      0.03s CPU      0.03s WALL (       1 calls)
     stress       :      0.09s CPU      0.09s WALL (       1 calls)

     Called by init_run:
     wfcinit      :      0.02s CPU      0.02s WALL (       1 calls)
     potinit      :      0.11s CPU      0.13s WALL (       1 calls)
     hinit0       :      0.18s CPU      0.18s WALL (       1 calls)

     Called by electrons:
     c_bands      :      0.76s CPU      0.78s WALL (      10 calls)
     sum_band     :      0.22s CPU      0.22s WALL (      10 calls)
     v_of_rho     :      0.04s CPU      0.05s WALL (      10 calls)
     newd         :      0.07s CPU      0.09s WALL (      10 calls)
     PAW_pot      :      1.09s CPU      1.22s WALL (      10 calls)
     mix_rho      :      0.01s CPU      0.01s WALL (      10 calls)

     Called by c_bands:
     init_us_2    :      0.02s CPU      0.02s WALL (     184 calls)
     cegterg      :      0.73s CPU      0.75s WALL (      80 calls)

     Called by sum_band:
     sum_band:bec :      0.00s CPU      0.00s WALL (      80 calls)
     addusdens    :      0.07s CPU      0.07s WALL (      10 calls)

     Called by *egterg:
     h_psi        :      0.55s CPU      0.57s WALL (     321 calls)
     s_psi        :      0.02s CPU      0.02s WALL (     321 calls)
     g_psi        :      0.00s CPU      0.00s WALL (     233 calls)
     cdiaghg      :      0.08s CPU      0.08s WALL (     305 calls)

     Called by h_psi:
     h_psi:pot    :      0.55s CPU      0.56s WALL (     321 calls)
     h_psi:calbec :      0.03s CPU      0.03s WALL (     321 calls)
     vloc_psi     :      0.50s CPU      0.51s WALL (     321 calls)
     add_vuspsi   :      0.02s CPU      0.02s WALL (     321 calls)

     General routines
     calbec       :      0.04s CPU      0.05s WALL (     441 calls)
     fft          :      0.03s CPU      0.03s WALL (     137 calls)
     ffts         :      0.00s CPU      0.00s WALL (      10 calls)
     fftw         :      0.57s CPU      0.58s WALL (    5244 calls)

     Parallel routines
     fft_scatt_xy :      0.05s CPU      0.05s WALL (    5391 calls)
     fft_scatt_yz :      0.18s CPU      0.18s WALL (    5391 calls)

     PWSCF        :     3.50s CPU         3.73s WALL


   This run was terminated on:  11:54: 4  26Mar2024            

=------------------------------------------------------------------------------=
   JOB DONE.
=------------------------------------------------------------------------------=
