
     Program PWSCF v.6.3MaX starts on 26Mar2024 at 11:34:46 

     This program is part of the open-source Quantum ESPRESSO suite
     for quantum simulation of materials; please cite
         "P. Giannozzi et al., J. Phys.:Condens. Matter 21 395502 (2009);
         "P. Giannozzi et al., J. Phys.:Condens. Matter 29 465901 (2017);
          URL http://www.quantum-espresso.org", 
     in publications or presentations arising from this work. More details at
     http://www.quantum-espresso.org/quote

     Parallel version (MPI), running on     5 processors

     MPI processes distributed on     1 nodes
     R & G space division:  proc/nbgrp/npool/nimage =       5
     Waiting for input...
     Reading input from standard input

     Current dimensions of program PWSCF are:
     Max number of different atomic species (ntypx) = 10
     Max number of k-points (npk) =  40000
     Max angular momentum in pseudopotentials (lmaxx) =  3
               file Au.pbe-n-kjpaw_psl.1.0.0.UPF: wavefunction(s)  6S 5D renormalized

     Subspace diagonalization in iterative solution of the eigenvalue problem:
     a serial algorithm will be used


     Parallelization info
     --------------------
     sticks:   dense  smooth     PW     G-vecs:    dense   smooth      PW
     Min          62      62     21                  765      765     148
     Max          63      63     22                  770      770     151
     Sum         313     313    109                 3839     3839     749



     bravais-lattice index     =            2
     lattice parameter (alat)  =       7.7100  a.u.
     unit-cell volume          =     114.5785 (a.u.)^3
     number of atoms/cell      =            1
     number of atomic types    =            1
     number of electrons       =        11.00
     number of Kohn-Sham states=           10
     kinetic-energy cutoff     =      40.0000  Ry
     charge density cutoff     =     160.0000  Ry
     convergence threshold     =      1.0E-08
     mixing beta               =       0.7000
     number of iterations used =            8  plain     mixing
     Exchange-correlation      = SLA PW PBX PBC ( 1  4  3  4 0 0)

     celldm(1)=   7.710000  celldm(2)=   0.000000  celldm(3)=   0.000000
     celldm(4)=   0.000000  celldm(5)=   0.000000  celldm(6)=   0.000000

     crystal axes: (cart. coord. in units of alat)
               a(1) = (  -0.500000   0.000000   0.500000 )  
               a(2) = (   0.000000   0.500000   0.500000 )  
               a(3) = (  -0.500000   0.500000   0.000000 )  

     reciprocal axes: (cart. coord. in units 2 pi/alat)
               b(1) = ( -1.000000 -1.000000  1.000000 )  
               b(2) = (  1.000000  1.000000  1.000000 )  
               b(3) = ( -1.000000  1.000000 -1.000000 )  


     PseudoPot. # 1 for Au read from file:
     /home/lorenzo/pseudos/Au/Au.pbe-n-kjpaw_psl.1.0.0.UPF
     MD5 check sum: 4db85c736373c707a97ce4c36c2a9d23
     Pseudo is Projector augmented-wave + core cor, Zval = 11.0
     Generated using "atomic" code by A. Dal Corso v.6.3
     Shape of augmentation charge: PSQ
     Using radial grid of 1279 points,  6 beta functions with: 
                l(1) =   0
                l(2) =   0
                l(3) =   1
                l(4) =   1
                l(5) =   2
                l(6) =   2
     Q(r) pseudized with 0 coefficients 


     atomic species   valence    mass     pseudopotential
        Au            11.00   196.96600     Au( 1.00)

     48 Sym. Ops., with inversion, found



   Cartesian axes

     site n.     atom                  positions (alat units)
         1           Au  tau(   1) = (   0.0000000   0.0000000   0.0000000  )

     number of k points=    29  gaussian smearing, width (Ry)=  0.0100
                       cart. coord. in units 2pi/alat
        k(    1) = (   0.0000000   0.0000000   0.0000000), wk =   0.0039062
        k(    2) = (  -0.1250000   0.1250000  -0.1250000), wk =   0.0312500
        k(    3) = (  -0.2500000   0.2500000  -0.2500000), wk =   0.0312500
        k(    4) = (  -0.3750000   0.3750000  -0.3750000), wk =   0.0312500
        k(    5) = (   0.5000000  -0.5000000   0.5000000), wk =   0.0156250
        k(    6) = (   0.0000000   0.2500000   0.0000000), wk =   0.0234375
        k(    7) = (  -0.1250000   0.3750000  -0.1250000), wk =   0.0937500
        k(    8) = (  -0.2500000   0.5000000  -0.2500000), wk =   0.0937500
        k(    9) = (   0.6250000  -0.3750000   0.6250000), wk =   0.0937500
        k(   10) = (   0.5000000  -0.2500000   0.5000000), wk =   0.0937500
        k(   11) = (   0.3750000  -0.1250000   0.3750000), wk =   0.0937500
        k(   12) = (   0.2500000   0.0000000   0.2500000), wk =   0.0468750
        k(   13) = (   0.0000000   0.5000000   0.0000000), wk =   0.0234375
        k(   14) = (  -0.1250000   0.6250000  -0.1250000), wk =   0.0937500
        k(   15) = (   0.7500000  -0.2500000   0.7500000), wk =   0.0937500
        k(   16) = (   0.6250000  -0.1250000   0.6250000), wk =   0.0937500
        k(   17) = (   0.5000000   0.0000000   0.5000000), wk =   0.0468750
        k(   18) = (   0.0000000   0.7500000   0.0000000), wk =   0.0234375
        k(   19) = (   0.8750000  -0.1250000   0.8750000), wk =   0.0937500
        k(   20) = (   0.7500000   0.0000000   0.7500000), wk =   0.0468750
        k(   21) = (   0.0000000  -1.0000000   0.0000000), wk =   0.0117188
        k(   22) = (  -0.2500000   0.5000000   0.0000000), wk =   0.0937500
        k(   23) = (   0.6250000  -0.3750000   0.8750000), wk =   0.1875000
        k(   24) = (   0.5000000  -0.2500000   0.7500000), wk =   0.0937500
        k(   25) = (   0.7500000  -0.2500000   1.0000000), wk =   0.0937500
        k(   26) = (   0.6250000  -0.1250000   0.8750000), wk =   0.1875000
        k(   27) = (   0.5000000   0.0000000   0.7500000), wk =   0.0937500
        k(   28) = (  -0.2500000  -1.0000000   0.0000000), wk =   0.0468750
        k(   29) = (  -0.5000000  -1.0000000   0.0000000), wk =   0.0234375

     Dense  grid:     3839 G-vectors     FFT dimensions: (  24,  24,  24)

     Estimated max dynamical RAM per process >       4.60 MB

     Estimated total dynamical RAM >      22.98 MB

     Initial potential from superposition of free atoms

     starting charge   10.99989, renormalised to   11.00000
     Starting wfcs are    9 randomized atomic wfcs +    1 random wfcs
     Checking if some PAW data can be deallocated... 

     total cpu time spent up to now is        2.2 secs

     Self-consistent Calculation

     iteration #  1     ecut=    40.00 Ry     beta= 0.70
     Davidson diagonalization with overlap
     ethr =  1.00E-02,  avg # of iterations =  5.4

     Threshold (ethr) on eigenvalues was too large:
     Diagonalizing with lowered threshold

     Davidson diagonalization with overlap
     ethr =  4.59E-04,  avg # of iterations =  1.7

     total cpu time spent up to now is        2.8 secs

     total energy              =    -775.11525211 Ry
     Harris-Foulkes estimate   =    -775.14947110 Ry
     estimated scf accuracy    <       0.05067427 Ry

     iteration #  2     ecut=    40.00 Ry     beta= 0.70
     Davidson diagonalization with overlap
     ethr =  4.61E-04,  avg # of iterations =  2.8

     total cpu time spent up to now is        3.1 secs

     total energy              =    -775.13042812 Ry
     Harris-Foulkes estimate   =    -775.13908154 Ry
     estimated scf accuracy    <       0.01420016 Ry

     iteration #  3     ecut=    40.00 Ry     beta= 0.70
     Davidson diagonalization with overlap
     ethr =  1.29E-04,  avg # of iterations =  2.1

     total cpu time spent up to now is        3.4 secs

     total energy              =    -775.13358903 Ry
     Harris-Foulkes estimate   =    -775.13360449 Ry
     estimated scf accuracy    <       0.00023468 Ry

     iteration #  4     ecut=    40.00 Ry     beta= 0.70
     Davidson diagonalization with overlap
     ethr =  2.13E-06,  avg # of iterations =  4.0

     total cpu time spent up to now is        3.8 secs

     total energy              =    -775.13382881 Ry
     Harris-Foulkes estimate   =    -775.13392675 Ry
     estimated scf accuracy    <       0.00022311 Ry

     iteration #  5     ecut=    40.00 Ry     beta= 0.70
     Davidson diagonalization with overlap
     ethr =  2.03E-06,  avg # of iterations =  1.0

     total cpu time spent up to now is        4.0 secs

     total energy              =    -775.13382885 Ry
     Harris-Foulkes estimate   =    -775.13384651 Ry
     estimated scf accuracy    <       0.00002713 Ry

     iteration #  6     ecut=    40.00 Ry     beta= 0.70
     Davidson diagonalization with overlap
     ethr =  2.47E-07,  avg # of iterations =  2.4

     total cpu time spent up to now is        4.3 secs

     total energy              =    -775.13384158 Ry
     Harris-Foulkes estimate   =    -775.13384260 Ry
     estimated scf accuracy    <       0.00000268 Ry

     iteration #  7     ecut=    40.00 Ry     beta= 0.70
     Davidson diagonalization with overlap
     ethr =  2.43E-08,  avg # of iterations =  1.9

     total cpu time spent up to now is        4.6 secs

     total energy              =    -775.13384158 Ry
     Harris-Foulkes estimate   =    -775.13384187 Ry
     estimated scf accuracy    <       0.00000051 Ry

     iteration #  8     ecut=    40.00 Ry     beta= 0.70
     Davidson diagonalization with overlap
     ethr =  4.67E-09,  avg # of iterations =  2.7

     total cpu time spent up to now is        5.0 secs

     total energy              =    -775.13384175 Ry
     Harris-Foulkes estimate   =    -775.13384176 Ry
     estimated scf accuracy    <       0.00000001 Ry

     iteration #  9     ecut=    40.00 Ry     beta= 0.70
     Davidson diagonalization with overlap
     ethr =  1.09E-10,  avg # of iterations =  3.4

     total cpu time spent up to now is        5.3 secs

     End of self-consistent calculation

          k = 0.0000 0.0000 0.0000 (   531 PWs)   bands (ev):

     6.0738  11.2741  11.2741  11.2741  12.7991  12.7991  31.3886  35.2431
    35.2431  35.2431

          k =-0.1250 0.1250-0.1250 (   507 PWs)   bands (ev):

     6.6061  11.1224  11.4406  11.4406  12.7417  12.7417  31.6175  32.5389
    35.7349  35.7349

          k =-0.2500 0.2500-0.2500 (   492 PWs)   bands (ev):

     7.8784  11.1400  11.5560  11.5560  12.9693  12.9693  27.2788  32.3143
    36.1457  36.1457

          k =-0.3750 0.3750-0.3750 (   492 PWs)   bands (ev):

     8.5880  11.3515  11.3515  12.7910  13.6484  13.6484  22.2911  31.1936
    34.5278  34.5278

          k = 0.5000-0.5000 0.5000 (   476 PWs)   bands (ev):

     8.6318  11.2353  11.2353  14.0087  14.0087  15.0006  19.0697  30.6731
    33.5969  33.5969

          k = 0.0000 0.2500 0.0000 (   504 PWs)   bands (ev):

     6.7875  10.9198  11.6020  11.6020  12.4279  12.9579  32.1534  33.4837
    34.2526  34.2526

          k =-0.1250 0.3750-0.1250 (   497 PWs)   bands (ev):

     7.8703  10.6471  11.6681  11.8716  12.5706  13.2085  29.2524  32.7347
    33.2224  35.3630

          k =-0.2500 0.5000-0.2500 (   492 PWs)   bands (ev):

     8.8833  11.1703  11.2618  11.7649  13.7755  13.9294  24.1272  31.7335
    32.3318  33.8739

          k = 0.6250-0.3750 0.6250 (   487 PWs)   bands (ev):

     9.0110  11.0039  11.5685  12.4644  14.0336  16.3014  19.6565  30.6186
    32.2726  32.3246

          k = 0.5000-0.2500 0.5000 (   493 PWs)   bands (ev):

     9.0366  11.0836  11.5621  12.3337  13.5546  15.5928  21.0598  30.1340
    32.1002  34.0229

          k = 0.3750-0.1250 0.3750 (   495 PWs)   bands (ev):

     8.7000  10.9452  11.4610  11.7790  12.6903  14.0569  25.8463  30.5235
    33.4972  37.2029

          k = 0.2500 0.0000 0.2500 (   503 PWs)   bands (ev):

     7.4302  10.8601  11.6212  11.7141  12.3995  13.1354  30.3073  31.5004
    34.6261  36.6864

          k = 0.0000 0.5000 0.0000 (   480 PWs)   bands (ev):

     8.5052  10.1462  11.9711  12.5168  12.5168  13.3567  30.9568  30.9568
    32.3222  33.1232

          k =-0.1250 0.6250-0.1250 (   488 PWs)   bands (ev):

     9.2535   9.9678  11.7617  12.6893  13.8337  14.0820  26.2637  29.6097
    29.8660  33.4657

          k = 0.7500-0.2500 0.7500 (   487 PWs)   bands (ev):

     9.4978  10.4111  11.6233  12.4645  14.0986  17.0170  21.4585  27.6002
    29.6818  33.1761

          k = 0.6250-0.1250 0.6250 (   486 PWs)   bands (ev):

     9.7739  10.6870  11.5200  12.2819  13.5967  17.9008  20.8638  25.9465
    31.4750  32.8824

          k = 0.5000 0.0000 0.5000 (   489 PWs)   bands (ev):

     9.8587  10.7344  11.0747  12.1980  12.7951  15.7005  24.6171  26.2652
    33.0654  34.4475

          k = 0.0000 0.7500 0.0000 (   484 PWs)   bands (ev):

     9.0697   9.4623  13.7033  13.7033  13.7797  14.0177  26.0588  27.6242
    27.6242  32.8508

          k = 0.8750-0.1250 0.8750 (   481 PWs)   bands (ev):

     9.1517   9.4905  13.1414  13.5300  14.1935  17.1267  22.6766  25.4977
    27.2390  33.9345

          k = 0.7500 0.0000 0.7500 (   492 PWs)   bands (ev):

     9.4958  10.1181  12.1316  13.0902  13.8861  19.9059  20.6725  23.4380
    28.7763  33.7697

          k = 0.0000-1.0000 0.0000 (   468 PWs)   bands (ev):

     8.8805   9.1999  13.9629  14.3338  14.3338  17.0078  21.7789  26.2071
    26.2071  33.2134

          k =-0.2500 0.5000 0.0000 (   488 PWs)   bands (ev):

     8.9968  10.3563  11.3161  12.5183  12.6076  14.0960  27.4366  29.1383
    32.5639  35.6488

          k = 0.6250-0.3750 0.8750 (   488 PWs)   bands (ev):

     9.6545  10.7812  10.9845  12.3212  13.5163  15.8511  23.0544  28.0373
    30.5583  35.0094

          k = 0.5000-0.2500 0.7500 (   484 PWs)   bands (ev):

     9.6554  10.5990  11.7083  12.1144  13.8716  18.6336  19.0822  28.2864
    29.3257  34.2514

          k = 0.7500-0.2500 1.0000 (   486 PWs)   bands (ev):

     9.5731   9.8194  11.7931  13.4003  13.6940  16.1206  24.4369  26.3427
    27.8196  35.8079

          k = 0.6250-0.1250 0.8750 (   491 PWs)   bands (ev):

     9.8140  10.2577  11.4672  12.8749  14.0554  19.1488  21.1982  24.7963
    27.1809  35.8916

          k = 0.5000 0.0000 0.7500 (   483 PWs)   bands (ev):

    10.2577  10.5550  10.8292  12.6651  13.6964  18.0598  23.1826  23.5759
    28.7097  35.9510

          k =-0.2500-1.0000 0.0000 (   484 PWs)   bands (ev):

     9.3374   9.6056  12.6855  13.4180  14.3348  19.1447  21.2336  25.0607
    25.7247  36.0333

          k =-0.5000-1.0000 0.0000 (   488 PWs)   bands (ev):

     9.9888  10.8025  10.8025  12.6541  14.3358  20.7803  22.3271  22.3271
    25.4414  39.4509

     the Fermi energy is    15.9460 ev

!    total energy              =    -775.13384176 Ry
     Harris-Foulkes estimate   =    -775.13384176 Ry
     estimated scf accuracy    <          3.3E-09 Ry

     total all-electron energy =    -38023.979933 Ry

     The total energy is the sum of the following terms:

     one-electron contribution =      13.83294624 Ry
     hartree contribution      =       7.63547313 Ry
     xc contribution           =     -32.12269306 Ry
     ewald contribution        =     -71.95438540 Ry
     one-center paw contrib.   =    -692.52480092 Ry
     smearing contrib. (-TS)   =      -0.00038174 Ry

     convergence has been achieved in   9 iterations

     Forces acting on atoms (cartesian axes, Ry/au):

     atom    1 type  1   force =     0.00000000    0.00000000    0.00000000

     Total force =     0.000000     Total SCF correction =     0.000000


     Computing stress (Cartesian axis) and pressure

          total   stress  (Ry/bohr**3)                   (kbar)     P=  110.99
   0.00075453   0.00000000   0.00000000        110.99      0.00      0.00
   0.00000000   0.00075453  -0.00000000          0.00    110.99     -0.00
   0.00000000  -0.00000000   0.00075453          0.00     -0.00    110.99


     Writing output data file Au.save/

     init_run     :      0.39s CPU      0.42s WALL (       1 calls)
     electrons    :      2.88s CPU      3.14s WALL (       1 calls)
     forces       :      0.02s CPU      0.02s WALL (       1 calls)
     stress       :      0.09s CPU      0.09s WALL (       1 calls)

     Called by init_run:
     wfcinit      :      0.06s CPU      0.06s WALL (       1 calls)
     potinit      :      0.13s CPU      0.15s WALL (       1 calls)
     hinit0       :      0.18s CPU      0.19s WALL (       1 calls)

     Called by electrons:
     c_bands      :      1.60s CPU      1.72s WALL (      10 calls)
     sum_band     :      0.28s CPU      0.30s WALL (      10 calls)
     v_of_rho     :      0.03s CPU      0.03s WALL (      10 calls)
     newd         :      0.04s CPU      0.04s WALL (      10 calls)
     PAW_pot      :      1.05s CPU      1.18s WALL (      10 calls)
     mix_rho      :      0.00s CPU      0.00s WALL (      10 calls)

     Called by c_bands:
     init_us_2    :      0.04s CPU      0.05s WALL (     667 calls)
     cegterg      :      1.53s CPU      1.65s WALL (     290 calls)

     Called by sum_band:
     sum_band:bec :      0.00s CPU      0.00s WALL (     290 calls)
     addusdens    :      0.04s CPU      0.04s WALL (      10 calls)

     Called by *egterg:
     h_psi        :      1.12s CPU      1.20s WALL (    1117 calls)
     s_psi        :      0.03s CPU      0.04s WALL (    1117 calls)
     g_psi        :      0.00s CPU      0.00s WALL (     798 calls)
     cdiaghg      :      0.23s CPU      0.25s WALL (    1059 calls)

     Called by h_psi:
     h_psi:pot    :      1.11s CPU      1.19s WALL (    1117 calls)
     h_psi:calbec :      0.05s CPU      0.06s WALL (    1117 calls)
     vloc_psi     :      1.02s CPU      1.09s WALL (    1117 calls)
     add_vuspsi   :      0.03s CPU      0.04s WALL (    1117 calls)

     General routines
     calbec       :      0.08s CPU      0.09s WALL (    1552 calls)
     fft          :      0.02s CPU      0.02s WALL (     137 calls)
     ffts         :      0.00s CPU      0.00s WALL (      10 calls)
     fftw         :      1.11s CPU      1.19s WALL (   18590 calls)

     Parallel routines
     fft_scatt_xy :      0.11s CPU      0.11s WALL (   18737 calls)
     fft_scatt_yz :      0.32s CPU      0.34s WALL (   18737 calls)

     PWSCF        :     5.18s CPU         5.55s WALL


   This run was terminated on:  11:34:52  26Mar2024            

=------------------------------------------------------------------------------=
   JOB DONE.
=------------------------------------------------------------------------------=
