
     Program PWSCF v.6.3MaX starts on 26Mar2024 at 11:33:14 

     This program is part of the open-source Quantum ESPRESSO suite
     for quantum simulation of materials; please cite
         "P. Giannozzi et al., J. Phys.:Condens. Matter 21 395502 (2009);
         "P. Giannozzi et al., J. Phys.:Condens. Matter 29 465901 (2017);
          URL http://www.quantum-espresso.org", 
     in publications or presentations arising from this work. More details at
     http://www.quantum-espresso.org/quote

     Parallel version (MPI), running on     5 processors

     MPI processes distributed on     1 nodes
     R & G space division:  proc/nbgrp/npool/nimage =       5
     Waiting for input...
     Reading input from standard input

     Current dimensions of program PWSCF are:
     Max number of different atomic species (ntypx) = 10
     Max number of k-points (npk) =  40000
     Max angular momentum in pseudopotentials (lmaxx) =  3
               file Au.pbe-n-kjpaw_psl.1.0.0.UPF: wavefunction(s)  6S 5D renormalized

     Subspace diagonalization in iterative solution of the eigenvalue problem:
     a serial algorithm will be used


     Parallelization info
     --------------------
     sticks:   dense  smooth     PW     G-vecs:    dense   smooth      PW
     Min          62      62     21                  765      765     140
     Max          63      63     22                  770      770     141
     Sum         313     313    109                 3839     3839     701



     bravais-lattice index     =            2
     lattice parameter (alat)  =       7.7100  a.u.
     unit-cell volume          =     114.5785 (a.u.)^3
     number of atoms/cell      =            1
     number of atomic types    =            1
     number of electrons       =        11.00
     number of Kohn-Sham states=           10
     kinetic-energy cutoff     =      40.0000  Ry
     charge density cutoff     =     160.0000  Ry
     convergence threshold     =      1.0E-08
     mixing beta               =       0.7000
     number of iterations used =            8  plain     mixing
     Exchange-correlation      = SLA PW PBX PBC ( 1  4  3  4 0 0)

     celldm(1)=   7.710000  celldm(2)=   0.000000  celldm(3)=   0.000000
     celldm(4)=   0.000000  celldm(5)=   0.000000  celldm(6)=   0.000000

     crystal axes: (cart. coord. in units of alat)
               a(1) = (  -0.500000   0.000000   0.500000 )  
               a(2) = (   0.000000   0.500000   0.500000 )  
               a(3) = (  -0.500000   0.500000   0.000000 )  

     reciprocal axes: (cart. coord. in units 2 pi/alat)
               b(1) = ( -1.000000 -1.000000  1.000000 )  
               b(2) = (  1.000000  1.000000  1.000000 )  
               b(3) = ( -1.000000  1.000000 -1.000000 )  


     PseudoPot. # 1 for Au read from file:
     /home/lorenzo/pseudos/Au/Au.pbe-n-kjpaw_psl.1.0.0.UPF
     MD5 check sum: 4db85c736373c707a97ce4c36c2a9d23
     Pseudo is Projector augmented-wave + core cor, Zval = 11.0
     Generated using "atomic" code by A. Dal Corso v.6.3
     Shape of augmentation charge: PSQ
     Using radial grid of 1279 points,  6 beta functions with: 
                l(1) =   0
                l(2) =   0
                l(3) =   1
                l(4) =   1
                l(5) =   2
                l(6) =   2
     Q(r) pseudized with 0 coefficients 


     atomic species   valence    mass     pseudopotential
        Au            11.00   196.96600     Au( 1.00)

     48 Sym. Ops., with inversion, found



   Cartesian axes

     site n.     atom                  positions (alat units)
         1           Au  tau(   1) = (   0.0000000   0.0000000   0.0000000  )

     number of k points=     4  gaussian smearing, width (Ry)=  0.0100
                       cart. coord. in units 2pi/alat
        k(    1) = (   0.0000000   0.0000000   0.0000000), wk =   0.0740741
        k(    2) = (  -0.3333333   0.3333333  -0.3333333), wk =   0.5925926
        k(    3) = (   0.0000000   0.6666667   0.0000000), wk =   0.4444444
        k(    4) = (   0.6666667  -0.0000000   0.6666667), wk =   0.8888889

     Dense  grid:     3839 G-vectors     FFT dimensions: (  24,  24,  24)

     Estimated max dynamical RAM per process >       4.23 MB

     Estimated total dynamical RAM >      21.13 MB

     Initial potential from superposition of free atoms

     starting charge   10.99989, renormalised to   11.00000
     Starting wfcs are    9 randomized atomic wfcs +    1 random wfcs
     Checking if some PAW data can be deallocated... 

     total cpu time spent up to now is        1.6 secs

     Self-consistent Calculation

     iteration #  1     ecut=    40.00 Ry     beta= 0.70
     Davidson diagonalization with overlap
     ethr =  1.00E-02,  avg # of iterations =  6.5

     Threshold (ethr) on eigenvalues was too large:
     Diagonalizing with lowered threshold

     Davidson diagonalization with overlap
     ethr =  5.14E-04,  avg # of iterations =  1.5

     total cpu time spent up to now is        1.8 secs

     total energy              =    -775.14586282 Ry
     Harris-Foulkes estimate   =    -775.18393390 Ry
     estimated scf accuracy    <       0.05616106 Ry

     iteration #  2     ecut=    40.00 Ry     beta= 0.70
     Davidson diagonalization with overlap
     ethr =  5.11E-04,  avg # of iterations =  2.8

     total cpu time spent up to now is        2.0 secs

     total energy              =    -775.16249412 Ry
     Harris-Foulkes estimate   =    -775.17058011 Ry
     estimated scf accuracy    <       0.01289055 Ry

     iteration #  3     ecut=    40.00 Ry     beta= 0.70
     Davidson diagonalization with overlap
     ethr =  1.17E-04,  avg # of iterations =  2.0

     total cpu time spent up to now is        2.2 secs

     total energy              =    -775.16552072 Ry
     Harris-Foulkes estimate   =    -775.16552359 Ry
     estimated scf accuracy    <       0.00022946 Ry

     iteration #  4     ecut=    40.00 Ry     beta= 0.70
     Davidson diagonalization with overlap
     ethr =  2.09E-06,  avg # of iterations =  3.5

     total cpu time spent up to now is        2.4 secs

     total energy              =    -775.16571012 Ry
     Harris-Foulkes estimate   =    -775.16576453 Ry
     estimated scf accuracy    <       0.00012656 Ry

     iteration #  5     ecut=    40.00 Ry     beta= 0.70
     Davidson diagonalization with overlap
     ethr =  1.15E-06,  avg # of iterations =  1.0

     total cpu time spent up to now is        2.5 secs

     total energy              =    -775.16570727 Ry
     Harris-Foulkes estimate   =    -775.16571939 Ry
     estimated scf accuracy    <       0.00001781 Ry

     iteration #  6     ecut=    40.00 Ry     beta= 0.70
     Davidson diagonalization with overlap
     ethr =  1.62E-07,  avg # of iterations =  3.0

     total cpu time spent up to now is        2.7 secs

     total energy              =    -775.16571571 Ry
     Harris-Foulkes estimate   =    -775.16571700 Ry
     estimated scf accuracy    <       0.00000258 Ry

     iteration #  7     ecut=    40.00 Ry     beta= 0.70
     Davidson diagonalization with overlap
     ethr =  2.34E-08,  avg # of iterations =  1.8

     total cpu time spent up to now is        2.8 secs

     total energy              =    -775.16571598 Ry
     Harris-Foulkes estimate   =    -775.16571608 Ry
     estimated scf accuracy    <       0.00000018 Ry

     iteration #  8     ecut=    40.00 Ry     beta= 0.70
     Davidson diagonalization with overlap
     ethr =  1.64E-09,  avg # of iterations =  3.2

     total cpu time spent up to now is        3.0 secs

     total energy              =    -775.16571609 Ry
     Harris-Foulkes estimate   =    -775.16571610 Ry
     estimated scf accuracy    <       0.00000003 Ry

     iteration #  9     ecut=    40.00 Ry     beta= 0.70
     Davidson diagonalization with overlap
     ethr =  2.54E-10,  avg # of iterations =  1.5

     total cpu time spent up to now is        3.1 secs

     End of self-consistent calculation

          k = 0.0000 0.0000 0.0000 (   531 PWs)   bands (ev):

     6.0648  11.2069  11.2069  11.2069  12.7140  12.7140  31.3953  35.2327
    35.2327  35.2327

          k =-0.3333 0.3333-0.3333 (   492 PWs)   bands (ev):

     8.4499  11.3552  11.3552  11.9656  13.3357  13.3357  23.8778  31.5642
    35.1150  35.1150

          k = 0.0000 0.6667 0.0000 (   480 PWs)   bands (ev):

     9.0543   9.5983  12.9235  13.2400  13.2400  13.5633  28.1803  28.5811
    28.5811  32.6618

          k = 0.6667-0.0000 0.6667 (   498 PWs)   bands (ev):

     9.7386  10.5494  11.4162  12.6076  13.4881  18.4232  22.4148  23.1397
    30.4365  33.3072

     the Fermi energy is    13.6559 ev

!    total energy              =    -775.16571609 Ry
     Harris-Foulkes estimate   =    -775.16571609 Ry
     estimated scf accuracy    <          9.8E-10 Ry

     total all-electron energy =    -38024.011807 Ry

     The total energy is the sum of the following terms:

     one-electron contribution =      13.82984018 Ry
     hartree contribution      =       7.58788561 Ry
     xc contribution           =     -32.10528389 Ry
     ewald contribution        =     -71.95438540 Ry
     one-center paw contrib.   =    -692.52242309 Ry
     smearing contrib. (-TS)   =      -0.00134950 Ry

     convergence has been achieved in   9 iterations

     Forces acting on atoms (cartesian axes, Ry/au):

     atom    1 type  1   force =     0.00000000    0.00000000    0.00000000

     Total force =     0.000000     Total SCF correction =     0.000000


     Computing stress (Cartesian axis) and pressure

          total   stress  (Ry/bohr**3)                   (kbar)     P=   43.04
   0.00029261   0.00000000   0.00000000         43.04      0.00      0.00
   0.00000000   0.00029261  -0.00000000          0.00     43.04     -0.00
   0.00000000  -0.00000000   0.00029261          0.00     -0.00     43.04


     Writing output data file Au.save/

     init_run     :      0.28s CPU      0.29s WALL (       1 calls)
     electrons    :      1.36s CPU      1.50s WALL (       1 calls)
     forces       :      0.02s CPU      0.02s WALL (       1 calls)
     stress       :      0.04s CPU      0.04s WALL (       1 calls)

     Called by init_run:
     wfcinit      :      0.01s CPU      0.01s WALL (       1 calls)
     potinit      :      0.11s CPU      0.12s WALL (       1 calls)
     hinit0       :      0.14s CPU      0.14s WALL (       1 calls)

     Called by electrons:
     c_bands      :      0.24s CPU      0.26s WALL (      10 calls)
     sum_band     :      0.09s CPU      0.09s WALL (      10 calls)
     v_of_rho     :      0.03s CPU      0.03s WALL (      10 calls)
     newd         :      0.04s CPU      0.04s WALL (      10 calls)
     PAW_pot      :      1.06s CPU      1.19s WALL (      10 calls)
     mix_rho      :      0.00s CPU      0.00s WALL (      10 calls)

     Called by c_bands:
     init_us_2    :      0.01s CPU      0.01s WALL (      92 calls)
     cegterg      :      0.23s CPU      0.24s WALL (      40 calls)

     Called by sum_band:
     sum_band:bec :      0.00s CPU      0.00s WALL (      40 calls)
     addusdens    :      0.04s CPU      0.04s WALL (      10 calls)

     Called by *egterg:
     h_psi        :      0.17s CPU      0.18s WALL (     151 calls)
     s_psi        :      0.00s CPU      0.00s WALL (     151 calls)
     g_psi        :      0.00s CPU      0.00s WALL (     107 calls)
     cdiaghg      :      0.03s CPU      0.04s WALL (     143 calls)

     Called by h_psi:
     h_psi:pot    :      0.17s CPU      0.18s WALL (     151 calls)
     h_psi:calbec :      0.01s CPU      0.01s WALL (     151 calls)
     vloc_psi     :      0.15s CPU      0.16s WALL (     151 calls)
     add_vuspsi   :      0.00s CPU      0.01s WALL (     151 calls)

     General routines
     calbec       :      0.01s CPU      0.01s WALL (     211 calls)
     fft          :      0.02s CPU      0.03s WALL (     137 calls)
     ffts         :      0.00s CPU      0.00s WALL (      10 calls)
     fftw         :      0.17s CPU      0.18s WALL (    2580 calls)

     Parallel routines
     fft_scatt_xy :      0.02s CPU      0.02s WALL (    2727 calls)
     fft_scatt_yz :      0.07s CPU      0.07s WALL (    2727 calls)

     PWSCF        :     3.04s CPU         3.23s WALL


   This run was terminated on:  11:33:17  26Mar2024            

=------------------------------------------------------------------------------=
   JOB DONE.
=------------------------------------------------------------------------------=
