
     Program PWSCF v.6.3MaX starts on 26Mar2024 at 12: 7:28 

     This program is part of the open-source Quantum ESPRESSO suite
     for quantum simulation of materials; please cite
         "P. Giannozzi et al., J. Phys.:Condens. Matter 21 395502 (2009);
         "P. Giannozzi et al., J. Phys.:Condens. Matter 29 465901 (2017);
          URL http://www.quantum-espresso.org", 
     in publications or presentations arising from this work. More details at
     http://www.quantum-espresso.org/quote

     Parallel version (MPI), running on     5 processors

     MPI processes distributed on     1 nodes
     R & G space division:  proc/nbgrp/npool/nimage =       5
     Waiting for input...
     Reading input from standard input

     Current dimensions of program PWSCF are:
     Max number of different atomic species (ntypx) = 10
     Max number of k-points (npk) =  40000
     Max angular momentum in pseudopotentials (lmaxx) =  3

     Subspace diagonalization in iterative solution of the eigenvalue problem:
     a serial algorithm will be used


     Parallelization info
     --------------------
     sticks:   dense  smooth     PW     G-vecs:    dense   smooth      PW
     Min         116     116     36                 1836     1836     318
     Max         117     117     38                 1838     1838     319
     Sum         583     583    187                 9185     9185    1591



     bravais-lattice index     =            2
     lattice parameter (alat)  =       7.7100  a.u.
     unit-cell volume          =     114.5785 (a.u.)^3
     number of atoms/cell      =            1
     number of atomic types    =            1
     number of electrons       =        11.00
     number of Kohn-Sham states=           10
     kinetic-energy cutoff     =      70.0000  Ry
     charge density cutoff     =     280.0000  Ry
     convergence threshold     =      1.0E-08
     mixing beta               =       0.7000
     number of iterations used =            8  plain     mixing
     Exchange-correlation      = PBE ( 1  4  3  4 0 0)

     celldm(1)=   7.710000  celldm(2)=   0.000000  celldm(3)=   0.000000
     celldm(4)=   0.000000  celldm(5)=   0.000000  celldm(6)=   0.000000

     crystal axes: (cart. coord. in units of alat)
               a(1) = (  -0.500000   0.000000   0.500000 )  
               a(2) = (   0.000000   0.500000   0.500000 )  
               a(3) = (  -0.500000   0.500000   0.000000 )  

     reciprocal axes: (cart. coord. in units 2 pi/alat)
               b(1) = ( -1.000000 -1.000000  1.000000 )  
               b(2) = (  1.000000  1.000000  1.000000 )  
               b(3) = ( -1.000000  1.000000 -1.000000 )  


     PseudoPot. # 1 for Au read from file:
     /home/lorenzo/pseudos/Au/Au.pbe-n-rrkjus_psl.1.0.0.UPF
     MD5 check sum: d7e77ba19504afed2c9b41c931dde4f0
     Pseudo is Ultrasoft + core correction, Zval = 11.0
     Generated using "atomic" code by A. Dal Corso v.6.3
     Using radial grid of 1279 points,  6 beta functions with: 
                l(1) =   0
                l(2) =   0
                l(3) =   1
                l(4) =   1
                l(5) =   2
                l(6) =   2
     Q(r) pseudized with 0 coefficients 


     atomic species   valence    mass     pseudopotential
        Au            11.00   196.96600     Au( 1.00)

     48 Sym. Ops., with inversion, found



   Cartesian axes

     site n.     atom                  positions (alat units)
         1           Au  tau(   1) = (   0.0000000   0.0000000   0.0000000  )

     number of k points=    10  gaussian smearing, width (Ry)=  0.0100
                       cart. coord. in units 2pi/alat
        k(    1) = (   0.0000000   0.0000000   0.0000000), wk =   0.0160000
        k(    2) = (  -0.2000000   0.2000000  -0.2000000), wk =   0.1280000
        k(    3) = (  -0.4000000   0.4000000  -0.4000000), wk =   0.1280000
        k(    4) = (   0.0000000   0.4000000   0.0000000), wk =   0.0960000
        k(    5) = (  -0.2000000   0.6000000  -0.2000000), wk =   0.3840000
        k(    6) = (   0.6000000  -0.2000000   0.6000000), wk =   0.3840000
        k(    7) = (   0.4000000   0.0000000   0.4000000), wk =   0.1920000
        k(    8) = (   0.0000000   0.8000000   0.0000000), wk =   0.0960000
        k(    9) = (   0.8000000   0.0000000   0.8000000), wk =   0.1920000
        k(   10) = (   0.6000000  -0.2000000   1.0000000), wk =   0.3840000

     Dense  grid:     9185 G-vectors     FFT dimensions: (  30,  30,  30)

     Estimated max dynamical RAM per process >       8.86 MB

     Estimated total dynamical RAM >      44.31 MB

     Initial potential from superposition of free atoms

     starting charge   10.99989, renormalised to   11.00000
     Starting wfcs are    9 randomized atomic wfcs +    1 random wfcs

     total cpu time spent up to now is        1.1 secs

     Self-consistent Calculation

     iteration #  1     ecut=    70.00 Ry     beta= 0.70
     Davidson diagonalization with overlap
     ethr =  1.00E-02,  avg # of iterations =  5.3

     Threshold (ethr) on eigenvalues was too large:
     Diagonalizing with lowered threshold

     Davidson diagonalization with overlap
     ethr =  4.67E-04,  avg # of iterations =  2.2

     total cpu time spent up to now is        1.4 secs

     total energy              =     -85.37818798 Ry
     Harris-Foulkes estimate   =     -85.41175229 Ry
     estimated scf accuracy    <       0.05330539 Ry

     iteration #  2     ecut=    70.00 Ry     beta= 0.70
     Davidson diagonalization with overlap
     ethr =  4.85E-04,  avg # of iterations =  2.4

     total cpu time spent up to now is        1.6 secs

     total energy              =     -85.39245572 Ry
     Harris-Foulkes estimate   =     -85.40045535 Ry
     estimated scf accuracy    <       0.01301737 Ry

     iteration #  3     ecut=    70.00 Ry     beta= 0.70
     Davidson diagonalization with overlap
     ethr =  1.18E-04,  avg # of iterations =  1.9

     total cpu time spent up to now is        1.7 secs

     total energy              =     -85.39527129 Ry
     Harris-Foulkes estimate   =     -85.39533346 Ry
     estimated scf accuracy    <       0.00018010 Ry

     iteration #  4     ecut=    70.00 Ry     beta= 0.70
     Davidson diagonalization with overlap
     ethr =  1.64E-06,  avg # of iterations =  4.6

     total cpu time spent up to now is        1.9 secs

     total energy              =     -85.39548227 Ry
     Harris-Foulkes estimate   =     -85.39558119 Ry
     estimated scf accuracy    <       0.00020271 Ry

     iteration #  5     ecut=    70.00 Ry     beta= 0.70
     Davidson diagonalization with overlap
     ethr =  1.64E-06,  avg # of iterations =  1.0

     total cpu time spent up to now is        2.2 secs

     total energy              =     -85.39549288 Ry
     Harris-Foulkes estimate   =     -85.39550259 Ry
     estimated scf accuracy    <       0.00001790 Ry

     iteration #  6     ecut=    70.00 Ry     beta= 0.70
     Davidson diagonalization with overlap
     ethr =  1.63E-07,  avg # of iterations =  2.8

     total cpu time spent up to now is        2.4 secs

     total energy              =     -85.39550208 Ry
     Harris-Foulkes estimate   =     -85.39550206 Ry
     estimated scf accuracy    <       0.00000049 Ry

     iteration #  7     ecut=    70.00 Ry     beta= 0.70
     Davidson diagonalization with overlap
     ethr =  4.46E-09,  avg # of iterations =  2.6

     total cpu time spent up to now is        2.5 secs

     total energy              =     -85.39550195 Ry
     Harris-Foulkes estimate   =     -85.39550219 Ry
     estimated scf accuracy    <       0.00000049 Ry

     iteration #  8     ecut=    70.00 Ry     beta= 0.70
     Davidson diagonalization with overlap
     ethr =  4.46E-09,  avg # of iterations =  1.0

     total cpu time spent up to now is        2.7 secs

     total energy              =     -85.39550197 Ry
     Harris-Foulkes estimate   =     -85.39550200 Ry
     estimated scf accuracy    <       0.00000003 Ry

     iteration #  9     ecut=    70.00 Ry     beta= 0.70
     Davidson diagonalization with overlap
     ethr =  3.12E-10,  avg # of iterations =  3.2

     total cpu time spent up to now is        2.9 secs

     total energy              =     -85.39550200 Ry
     Harris-Foulkes estimate   =     -85.39550200 Ry
     estimated scf accuracy    <       0.00000002 Ry

     iteration # 10     ecut=    70.00 Ry     beta= 0.70
     Davidson diagonalization with overlap
     ethr =  1.77E-10,  avg # of iterations =  1.0

     total cpu time spent up to now is        3.0 secs

     total energy              =     -85.39550199 Ry
     Harris-Foulkes estimate   =     -85.39550200 Ry
     estimated scf accuracy    <       0.00000001 Ry

     iteration # 11     ecut=    70.00 Ry     beta= 0.70
     Davidson diagonalization with overlap
     ethr =  1.11E-10,  avg # of iterations =  1.0

     total cpu time spent up to now is        3.1 secs

     End of self-consistent calculation

          k = 0.0000 0.0000 0.0000 (  1139 PWs)   bands (ev):

     6.0974  11.3291  11.3291  11.3291  12.8598  12.8598  31.3957  35.2595
    35.2595  35.2595

          k =-0.2000 0.2000-0.2000 (  1134 PWs)   bands (ev):

     7.3669  11.0859  11.6174  11.6174  12.8595  12.8595  29.2833  32.4874
    36.2135  36.2135

          k =-0.4000 0.4000-0.4000 (  1149 PWs)   bands (ev):

     8.6518  11.3658  11.3658  13.3690  13.8348  13.8348  21.4191  31.0204
    34.2413  34.2413

          k = 0.0000 0.4000 0.0000 (  1134 PWs)   bands (ev):

     7.8118  10.5221  12.0984  12.1501  12.1501  13.2419  32.4610  32.4610
    32.6938  33.1430

          k =-0.2000 0.6000-0.2000 (  1121 PWs)   bands (ev):

     9.3154  10.5271  11.3730  12.2923  13.9905  14.5876  24.4298  30.5972
    30.6085  33.2071

          k = 0.6000-0.2000 0.6000 (  1135 PWs)   bands (ev):

     9.5531  10.8170  11.9282  12.0105  13.7761  17.6113  20.0051  27.8642
    32.1423  32.4579

          k = 0.4000 0.0000 0.4000 (  1131 PWs)   bands (ev):

     9.0686  10.6934  11.4262  12.2193  12.3796  14.4658  26.6782  28.6335
    33.8051  36.6279

          k = 0.0000 0.8000 0.0000 (  1126 PWs)   bands (ev):

     9.0572   9.4154  13.9081  13.9765  13.9765  14.7807  24.8920  27.1662
    27.1662  32.9870

          k = 0.8000 0.0000 0.8000 (  1144 PWs)   bands (ev):

     9.3663   9.8481  12.6622  13.4072  14.1101  19.7115  20.6755  23.9302
    27.9464  34.0248

          k = 0.6000-0.2000 1.0000 (  1135 PWs)   bands (ev):

    10.1123  10.3628  11.0656  12.9852  13.9626  18.0447  23.1443  24.3866
    27.4043  37.4788

     the Fermi energy is    14.8111 ev

!    total energy              =     -85.39550199 Ry
     Harris-Foulkes estimate   =     -85.39550200 Ry
     estimated scf accuracy    <          1.2E-09 Ry

     The total energy is the sum of the following terms:

     one-electron contribution =      11.06342734 Ry
     hartree contribution      =       7.60509344 Ry
     xc contribution           =     -32.10930606 Ry
     ewald contribution        =     -71.95438534 Ry
     smearing contrib. (-TS)   =      -0.00033138 Ry

     convergence has been achieved in  11 iterations

     Forces acting on atoms (cartesian axes, Ry/au):

     atom    1 type  1   force =     0.00000000    0.00000000    0.00000000

     Total force =     0.000000     Total SCF correction =     0.000000


     Computing stress (Cartesian axis) and pressure

          total   stress  (Ry/bohr**3)                   (kbar)     P=   96.73
   0.00065753  -0.00000000  -0.00000000         96.73     -0.00     -0.00
  -0.00000000   0.00065753   0.00000000         -0.00     96.73      0.00
  -0.00000000   0.00000000   0.00065753         -0.00      0.00     96.73


     Writing output data file Au.save/

     init_run     :      0.29s CPU      0.29s WALL (       1 calls)
     electrons    :      1.96s CPU      2.03s WALL (       1 calls)
     forces       :      0.03s CPU      0.03s WALL (       1 calls)
     stress       :      0.12s CPU      0.12s WALL (       1 calls)

     Called by init_run:
     wfcinit      :      0.04s CPU      0.04s WALL (       1 calls)
     potinit      :      0.01s CPU      0.01s WALL (       1 calls)
     hinit0       :      0.21s CPU      0.21s WALL (       1 calls)

     Called by electrons:
     c_bands      :      1.38s CPU      1.43s WALL (      12 calls)
     sum_band     :      0.38s CPU      0.39s WALL (      12 calls)
     v_of_rho     :      0.07s CPU      0.07s WALL (      12 calls)
     newd         :      0.13s CPU      0.13s WALL (      12 calls)
     mix_rho      :      0.01s CPU      0.02s WALL (      12 calls)

     Called by c_bands:
     init_us_2    :      0.04s CPU      0.05s WALL (     270 calls)
     cegterg      :      1.32s CPU      1.37s WALL (     120 calls)

     Called by sum_band:
     sum_band:bec :      0.00s CPU      0.00s WALL (     120 calls)
     addusdens    :      0.12s CPU      0.12s WALL (      12 calls)

     Called by *egterg:
     h_psi        :      1.03s CPU      1.07s WALL (     420 calls)
     s_psi        :      0.03s CPU      0.03s WALL (     420 calls)
     g_psi        :      0.00s CPU      0.00s WALL (     290 calls)
     cdiaghg      :      0.11s CPU      0.11s WALL (     400 calls)

     Called by h_psi:
     h_psi:pot    :      1.03s CPU      1.07s WALL (     420 calls)
     h_psi:calbec :      0.06s CPU      0.06s WALL (     420 calls)
     vloc_psi     :      0.94s CPU      0.97s WALL (     420 calls)
     add_vuspsi   :      0.03s CPU      0.03s WALL (     420 calls)

     General routines
     calbec       :      0.09s CPU      0.09s WALL (     590 calls)
     fft          :      0.04s CPU      0.04s WALL (     159 calls)
     ffts         :      0.00s CPU      0.00s WALL (      12 calls)
     fftw         :      1.06s CPU      1.10s WALL (    7430 calls)

     Parallel routines
     fft_scatt_xy :      0.08s CPU      0.09s WALL (    7601 calls)
     fft_scatt_yz :      0.39s CPU      0.40s WALL (    7601 calls)

     PWSCF        :     3.21s CPU         3.32s WALL


   This run was terminated on:  12: 7:31  26Mar2024            

=------------------------------------------------------------------------------=
   JOB DONE.
=------------------------------------------------------------------------------=
