
     Program PWSCF v.6.3MaX starts on 26Mar2024 at 11:24:53 

     This program is part of the open-source Quantum ESPRESSO suite
     for quantum simulation of materials; please cite
         "P. Giannozzi et al., J. Phys.:Condens. Matter 21 395502 (2009);
         "P. Giannozzi et al., J. Phys.:Condens. Matter 29 465901 (2017);
          URL http://www.quantum-espresso.org", 
     in publications or presentations arising from this work. More details at
     http://www.quantum-espresso.org/quote

     Parallel version (MPI), running on     5 processors

     MPI processes distributed on     1 nodes
     R & G space division:  proc/nbgrp/npool/nimage =       5
     Waiting for input...
     Reading input from standard input

     Current dimensions of program PWSCF are:
     Max number of different atomic species (ntypx) = 10
     Max number of k-points (npk) =  40000
     Max angular momentum in pseudopotentials (lmaxx) =  3
               file Au.pbe-n-kjpaw_psl.1.0.0.UPF: wavefunction(s)  6S 5D renormalized

     Subspace diagonalization in iterative solution of the eigenvalue problem:
     a serial algorithm will be used


     Parallelization info
     --------------------
     sticks:   dense  smooth     PW     G-vecs:    dense   smooth      PW
     Min          50      50     17                  527      527     106
     Max          51      51     17                  528      528     107
     Sum         253     253     85                 2637     2637     531



     bravais-lattice index     =            2
     lattice parameter (alat)  =       7.7100  a.u.
     unit-cell volume          =     114.5785 (a.u.)^3
     number of atoms/cell      =            1
     number of atomic types    =            1
     number of electrons       =        11.00
     number of Kohn-Sham states=           10
     kinetic-energy cutoff     =      30.0000  Ry
     charge density cutoff     =     120.0000  Ry
     convergence threshold     =      1.0E-08
     mixing beta               =       0.7000
     number of iterations used =            8  plain     mixing
     Exchange-correlation      = SLA PW PBX PBC ( 1  4  3  4 0 0)

     celldm(1)=   7.710000  celldm(2)=   0.000000  celldm(3)=   0.000000
     celldm(4)=   0.000000  celldm(5)=   0.000000  celldm(6)=   0.000000

     crystal axes: (cart. coord. in units of alat)
               a(1) = (  -0.500000   0.000000   0.500000 )  
               a(2) = (   0.000000   0.500000   0.500000 )  
               a(3) = (  -0.500000   0.500000   0.000000 )  

     reciprocal axes: (cart. coord. in units 2 pi/alat)
               b(1) = ( -1.000000 -1.000000  1.000000 )  
               b(2) = (  1.000000  1.000000  1.000000 )  
               b(3) = ( -1.000000  1.000000 -1.000000 )  


     PseudoPot. # 1 for Au read from file:
     /home/lorenzo/pseudos/Au/Au.pbe-n-kjpaw_psl.1.0.0.UPF
     MD5 check sum: 4db85c736373c707a97ce4c36c2a9d23
     Pseudo is Projector augmented-wave + core cor, Zval = 11.0
     Generated using "atomic" code by A. Dal Corso v.6.3
     Shape of augmentation charge: PSQ
     Using radial grid of 1279 points,  6 beta functions with: 
                l(1) =   0
                l(2) =   0
                l(3) =   1
                l(4) =   1
                l(5) =   2
                l(6) =   2
     Q(r) pseudized with 0 coefficients 


     atomic species   valence    mass     pseudopotential
        Au            11.00   196.96600     Au( 1.00)

     48 Sym. Ops., with inversion, found



   Cartesian axes

     site n.     atom                  positions (alat units)
         1           Au  tau(   1) = (   0.0000000   0.0000000   0.0000000  )

     number of k points=     3  gaussian smearing, width (Ry)=  0.0100
                       cart. coord. in units 2pi/alat
        k(    1) = (   0.0000000   0.0000000   0.0000000), wk =   0.2500000
        k(    2) = (   0.5000000  -0.5000000   0.5000000), wk =   1.0000000
        k(    3) = (   0.0000000  -1.0000000   0.0000000), wk =   0.7500000

     Dense  grid:     2637 G-vectors     FFT dimensions: (  20,  20,  20)

     Estimated max dynamical RAM per process >       3.08 MB

     Estimated total dynamical RAM >      15.42 MB

     Initial potential from superposition of free atoms

     starting charge   10.99989, renormalised to   11.00000
     Starting wfcs are    9 randomized atomic wfcs +    1 random wfcs
     Checking if some PAW data can be deallocated... 

     total cpu time spent up to now is        1.2 secs

     Self-consistent Calculation

     iteration #  1     ecut=    30.00 Ry     beta= 0.70
     Davidson diagonalization with overlap
     ethr =  1.00E-02,  avg # of iterations =  7.0

     Threshold (ethr) on eigenvalues was too large:
     Diagonalizing with lowered threshold

     Davidson diagonalization with overlap
     ethr =  3.53E-04,  avg # of iterations =  1.7

     total cpu time spent up to now is        1.3 secs

     total energy              =    -774.87186902 Ry
     Harris-Foulkes estimate   =    -774.89169541 Ry
     estimated scf accuracy    <       0.03675569 Ry

     iteration #  2     ecut=    30.00 Ry     beta= 0.70
     Davidson diagonalization with overlap
     ethr =  3.34E-04,  avg # of iterations =  2.0

     total cpu time spent up to now is        1.5 secs

     total energy              =    -774.88450936 Ry
     Harris-Foulkes estimate   =    -774.89645915 Ry
     estimated scf accuracy    <       0.02206233 Ry

     iteration #  3     ecut=    30.00 Ry     beta= 0.70
     Davidson diagonalization with overlap
     ethr =  2.01E-04,  avg # of iterations =  2.0

     total cpu time spent up to now is        1.6 secs

     total energy              =    -774.88524059 Ry
     Harris-Foulkes estimate   =    -774.88697844 Ry
     estimated scf accuracy    <       0.00235519 Ry

     iteration #  4     ecut=    30.00 Ry     beta= 0.70
     Davidson diagonalization with overlap
     ethr =  2.14E-05,  avg # of iterations =  3.3

     total cpu time spent up to now is        1.7 secs

     total energy              =    -774.88459213 Ry
     Harris-Foulkes estimate   =    -774.88769101 Ry
     estimated scf accuracy    <       0.00759052 Ry

     iteration #  5     ecut=    30.00 Ry     beta= 0.70
     Davidson diagonalization with overlap
     ethr =  2.14E-05,  avg # of iterations =  2.0

     total cpu time spent up to now is        1.9 secs

     total energy              =    -774.88674779 Ry
     Harris-Foulkes estimate   =    -774.88682369 Ry
     estimated scf accuracy    <       0.00066997 Ry

     iteration #  6     ecut=    30.00 Ry     beta= 0.70
     Davidson diagonalization with overlap
     ethr =  6.09E-06,  avg # of iterations =  1.0

     total cpu time spent up to now is        2.0 secs

     total energy              =    -774.88668625 Ry
     Harris-Foulkes estimate   =    -774.88677871 Ry
     estimated scf accuracy    <       0.00045320 Ry

     iteration #  7     ecut=    30.00 Ry     beta= 0.70
     Davidson diagonalization with overlap
     ethr =  4.12E-06,  avg # of iterations =  1.0

     total cpu time spent up to now is        2.1 secs

     total energy              =    -774.88662209 Ry
     Harris-Foulkes estimate   =    -774.88669895 Ry
     estimated scf accuracy    <       0.00021004 Ry

     iteration #  8     ecut=    30.00 Ry     beta= 0.70
     Davidson diagonalization with overlap
     ethr =  1.91E-06,  avg # of iterations =  1.0

     total cpu time spent up to now is        2.3 secs

     total energy              =    -774.88664364 Ry
     Harris-Foulkes estimate   =    -774.88664546 Ry
     estimated scf accuracy    <       0.00000939 Ry

     iteration #  9     ecut=    30.00 Ry     beta= 0.70
     Davidson diagonalization with overlap
     ethr =  8.54E-08,  avg # of iterations =  3.3

     total cpu time spent up to now is        2.4 secs

     total energy              =    -774.88664762 Ry
     Harris-Foulkes estimate   =    -774.88664742 Ry
     estimated scf accuracy    <       0.00000210 Ry

     iteration # 10     ecut=    30.00 Ry     beta= 0.70
     Davidson diagonalization with overlap
     ethr =  1.91E-08,  avg # of iterations =  1.0

     total cpu time spent up to now is        2.5 secs

     total energy              =    -774.88664671 Ry
     Harris-Foulkes estimate   =    -774.88664767 Ry
     estimated scf accuracy    <       0.00000306 Ry

     iteration # 11     ecut=    30.00 Ry     beta= 0.70
     Davidson diagonalization with overlap
     ethr =  1.91E-08,  avg # of iterations =  1.0

     total cpu time spent up to now is        2.6 secs

     total energy              =    -774.88664720 Ry
     Harris-Foulkes estimate   =    -774.88664712 Ry
     estimated scf accuracy    <       0.00000017 Ry

     iteration # 12     ecut=    30.00 Ry     beta= 0.70
     Davidson diagonalization with overlap
     ethr =  1.58E-09,  avg # of iterations =  4.0

     total cpu time spent up to now is        2.8 secs

     total energy              =    -774.88664726 Ry
     Harris-Foulkes estimate   =    -774.88664750 Ry
     estimated scf accuracy    <       0.00000162 Ry

     iteration # 13     ecut=    30.00 Ry     beta= 0.70
     Davidson diagonalization with overlap
     ethr =  1.58E-09,  avg # of iterations =  1.0

     total cpu time spent up to now is        2.9 secs

     total energy              =    -774.88664687 Ry
     Harris-Foulkes estimate   =    -774.88664728 Ry
     estimated scf accuracy    <       0.00000082 Ry

     iteration # 14     ecut=    30.00 Ry     beta= 0.70
     Davidson diagonalization with overlap
     ethr =  1.58E-09,  avg # of iterations =  3.0

     total cpu time spent up to now is        3.1 secs

     total energy              =    -774.88664709 Ry
     Harris-Foulkes estimate   =    -774.88664712 Ry
     estimated scf accuracy    <       0.00000009 Ry

     iteration # 15     ecut=    30.00 Ry     beta= 0.70
     Davidson diagonalization with overlap
     ethr =  7.83E-10,  avg # of iterations =  1.0

     total cpu time spent up to now is        3.2 secs

     End of self-consistent calculation

          k = 0.0000 0.0000 0.0000 (   331 PWs)   bands (ev):

     6.1071  11.7065  11.7065  11.7065  13.3200  13.3200  31.3203  35.2712
    35.2712  35.2712

          k = 0.5000-0.5000 0.5000 (   332 PWs)   bands (ev):

     8.8792  11.6769  11.6769  14.5517  14.5517  15.0150  19.4105  30.5977
    33.6909  33.6909

          k = 0.0000-1.0000 0.0000 (   326 PWs)   bands (ev):

     9.1880   9.5441  14.5252  14.8756  14.8756  17.0442  22.0635  26.2745
    26.2745  33.3513

     the Fermi energy is    15.0865 ev

!    total energy              =    -774.88664710 Ry
     Harris-Foulkes estimate   =    -774.88664710 Ry
     estimated scf accuracy    <          1.8E-09 Ry

     total all-electron energy =    -38023.732738 Ry

     The total energy is the sum of the following terms:

     one-electron contribution =      13.94144703 Ry
     hartree contribution      =       7.95250786 Ry
     xc contribution           =     -32.25665057 Ry
     ewald contribution        =     -71.95438537 Ry
     one-center paw contrib.   =    -692.56704292 Ry
     smearing contrib. (-TS)   =      -0.00252314 Ry

     convergence has been achieved in  15 iterations

     Forces acting on atoms (cartesian axes, Ry/au):

     atom    1 type  1   force =     0.00000000    0.00000000    0.00000000

     Total force =     0.000000     Total SCF correction =     0.000000


     Computing stress (Cartesian axis) and pressure

          total   stress  (Ry/bohr**3)                   (kbar)     P=  573.56
   0.00389898  -0.00000000   0.00000000        573.56     -0.00      0.00
  -0.00000000   0.00389898  -0.00000000         -0.00    573.56     -0.00
   0.00000000  -0.00000000   0.00389898          0.00     -0.00    573.56


     Writing output data file Au.save/

     init_run     :      0.23s CPU      0.24s WALL (       1 calls)
     electrons    :      1.78s CPU      2.04s WALL (       1 calls)
     forces       :      0.01s CPU      0.01s WALL (       1 calls)
     stress       :      0.03s CPU      0.03s WALL (       1 calls)

     Called by init_run:
     wfcinit      :      0.00s CPU      0.00s WALL (       1 calls)
     potinit      :      0.10s CPU      0.11s WALL (       1 calls)
     hinit0       :      0.11s CPU      0.11s WALL (       1 calls)

     Called by electrons:
     c_bands      :      0.17s CPU      0.19s WALL (      16 calls)
     sum_band     :      0.08s CPU      0.08s WALL (      16 calls)
     v_of_rho     :      0.02s CPU      0.02s WALL (      16 calls)
     newd         :      0.04s CPU      0.04s WALL (      16 calls)
     PAW_pot      :      1.56s CPU      1.79s WALL (      16 calls)
     mix_rho      :      0.00s CPU      0.00s WALL (      16 calls)

     Called by c_bands:
     init_us_2    :      0.01s CPU      0.01s WALL (     105 calls)
     cegterg      :      0.16s CPU      0.18s WALL (      48 calls)

     Called by sum_band:
     sum_band:bec :      0.00s CPU      0.00s WALL (      48 calls)
     addusdens    :      0.04s CPU      0.04s WALL (      16 calls)

     Called by *egterg:
     h_psi        :      0.11s CPU      0.13s WALL (     157 calls)
     s_psi        :      0.00s CPU      0.00s WALL (     157 calls)
     g_psi        :      0.00s CPU      0.00s WALL (     106 calls)
     cdiaghg      :      0.03s CPU      0.03s WALL (     151 calls)

     Called by h_psi:
     h_psi:pot    :      0.11s CPU      0.12s WALL (     157 calls)
     h_psi:calbec :      0.01s CPU      0.01s WALL (     157 calls)
     vloc_psi     :      0.10s CPU      0.11s WALL (     157 calls)
     add_vuspsi   :      0.00s CPU      0.00s WALL (     157 calls)

     General routines
     calbec       :      0.01s CPU      0.01s WALL (     220 calls)
     fft          :      0.01s CPU      0.01s WALL (     203 calls)
     ffts         :      0.00s CPU      0.00s WALL (      16 calls)
     fftw         :      0.11s CPU      0.13s WALL (    2860 calls)

     Parallel routines
     fft_scatt_xy :      0.01s CPU      0.01s WALL (    3079 calls)
     fft_scatt_yz :      0.04s CPU      0.04s WALL (    3079 calls)

     PWSCF        :     2.98s CPU         3.29s WALL


   This run was terminated on:  11:24:57  26Mar2024            

=------------------------------------------------------------------------------=
   JOB DONE.
=------------------------------------------------------------------------------=
