
     Program PWSCF v.6.3MaX starts on 26Mar2024 at 11:20: 6 

     This program is part of the open-source Quantum ESPRESSO suite
     for quantum simulation of materials; please cite
         "P. Giannozzi et al., J. Phys.:Condens. Matter 21 395502 (2009);
         "P. Giannozzi et al., J. Phys.:Condens. Matter 29 465901 (2017);
          URL http://www.quantum-espresso.org", 
     in publications or presentations arising from this work. More details at
     http://www.quantum-espresso.org/quote

     Parallel version (MPI), running on     5 processors

     MPI processes distributed on     1 nodes
     R & G space division:  proc/nbgrp/npool/nimage =       5
     Waiting for input...
     Reading input from standard input

     Current dimensions of program PWSCF are:
     Max number of different atomic species (ntypx) = 10
     Max number of k-points (npk) =  40000
     Max angular momentum in pseudopotentials (lmaxx) =  3

     Subspace diagonalization in iterative solution of the eigenvalue problem:
     a serial algorithm will be used


     Parallelization info
     --------------------
     sticks:   dense  smooth     PW     G-vecs:    dense   smooth      PW
     Min          32      32     12                  280      280      66
     Max          33      33     13                  283      283      67
     Sum         163     163     61                 1411     1411     331



     bravais-lattice index     =            2
     lattice parameter (alat)  =       7.7100  a.u.
     unit-cell volume          =     114.5785 (a.u.)^3
     number of atoms/cell      =            1
     number of atomic types    =            1
     number of electrons       =        11.00
     number of Kohn-Sham states=           10
     kinetic-energy cutoff     =      20.0000  Ry
     charge density cutoff     =      80.0000  Ry
     convergence threshold     =      1.0E-08
     mixing beta               =       0.7000
     number of iterations used =            8  plain     mixing
     Exchange-correlation      = PBESOL ( 1  4 10  8 0 0)

     celldm(1)=   7.710000  celldm(2)=   0.000000  celldm(3)=   0.000000
     celldm(4)=   0.000000  celldm(5)=   0.000000  celldm(6)=   0.000000

     crystal axes: (cart. coord. in units of alat)
               a(1) = (  -0.500000   0.000000   0.500000 )  
               a(2) = (   0.000000   0.500000   0.500000 )  
               a(3) = (  -0.500000   0.500000   0.000000 )  

     reciprocal axes: (cart. coord. in units 2 pi/alat)
               b(1) = ( -1.000000 -1.000000  1.000000 )  
               b(2) = (  1.000000  1.000000  1.000000 )  
               b(3) = ( -1.000000  1.000000 -1.000000 )  


     PseudoPot. # 1 for Au read from file:
     /home/lorenzo/pseudos/Au/Au.pbesol-n-rrkjus_psl.1.0.0.UPF
     MD5 check sum: 09626e9411213730b9a56fcc59c03ca8
     Pseudo is Ultrasoft + core correction, Zval = 11.0
     Generated using "atomic" code by A. Dal Corso v.6.3
     Using radial grid of 1279 points,  6 beta functions with: 
                l(1) =   0
                l(2) =   0
                l(3) =   1
                l(4) =   1
                l(5) =   2
                l(6) =   2
     Q(r) pseudized with 0 coefficients 


     atomic species   valence    mass     pseudopotential
        Au            11.00   196.96600     Au( 1.00)

     48 Sym. Ops., with inversion, found



   Cartesian axes

     site n.     atom                  positions (alat units)
         1           Au  tau(   1) = (   0.0000000   0.0000000   0.0000000  )

     number of k points=    35  gaussian smearing, width (Ry)=  0.0100
                       cart. coord. in units 2pi/alat
        k(    1) = (   0.0000000   0.0000000   0.0000000), wk =   0.0027435
        k(    2) = (  -0.1111111   0.1111111  -0.1111111), wk =   0.0219479
        k(    3) = (  -0.2222222   0.2222222  -0.2222222), wk =   0.0219479
        k(    4) = (  -0.3333333   0.3333333  -0.3333333), wk =   0.0219479
        k(    5) = (  -0.4444444   0.4444444  -0.4444444), wk =   0.0219479
        k(    6) = (   0.0000000   0.2222222   0.0000000), wk =   0.0164609
        k(    7) = (  -0.1111111   0.3333333  -0.1111111), wk =   0.0658436
        k(    8) = (  -0.2222222   0.4444444  -0.2222222), wk =   0.0658436
        k(    9) = (  -0.3333333   0.5555556  -0.3333333), wk =   0.0658436
        k(   10) = (   0.5555556  -0.3333333   0.5555556), wk =   0.0658436
        k(   11) = (   0.4444444  -0.2222222   0.4444444), wk =   0.0658436
        k(   12) = (   0.3333333  -0.1111111   0.3333333), wk =   0.0658436
        k(   13) = (   0.2222222  -0.0000000   0.2222222), wk =   0.0329218
        k(   14) = (   0.0000000   0.4444444   0.0000000), wk =   0.0164609
        k(   15) = (  -0.1111111   0.5555556  -0.1111111), wk =   0.0658436
        k(   16) = (  -0.2222222   0.6666667  -0.2222222), wk =   0.0658436
        k(   17) = (   0.6666667  -0.2222222   0.6666667), wk =   0.0658436
        k(   18) = (   0.5555556  -0.1111111   0.5555556), wk =   0.0658436
        k(   19) = (   0.4444444   0.0000000   0.4444444), wk =   0.0329218
        k(   20) = (   0.0000000   0.6666667   0.0000000), wk =   0.0164609
        k(   21) = (  -0.1111111   0.7777778  -0.1111111), wk =   0.0658436
        k(   22) = (   0.7777778  -0.1111111   0.7777778), wk =   0.0658436
        k(   23) = (   0.6666667  -0.0000000   0.6666667), wk =   0.0329218
        k(   24) = (   0.0000000   0.8888889   0.0000000), wk =   0.0164609
        k(   25) = (   0.8888889   0.0000000   0.8888889), wk =   0.0329218
        k(   26) = (  -0.2222222   0.4444444   0.0000000), wk =   0.0658436
        k(   27) = (  -0.3333333   0.5555556  -0.1111111), wk =   0.1316872
        k(   28) = (   0.5555556  -0.3333333   0.7777778), wk =   0.1316872
        k(   29) = (  -0.2222222   0.6666667   0.0000000), wk =   0.0658436
        k(   30) = (   0.6666667  -0.2222222   0.8888889), wk =   0.1316872
        k(   31) = (   0.5555556  -0.1111111   0.7777778), wk =   0.1316872
        k(   32) = (   0.4444444   0.0000000   0.6666667), wk =   0.0658436
        k(   33) = (   0.7777778  -0.1111111   1.0000000), wk =   0.0658436
        k(   34) = (   0.6666667  -0.0000000   0.8888889), wk =   0.0658436
        k(   35) = (   0.5555556  -0.1111111   1.0000000), wk =   0.0658436

     Dense  grid:     1411 G-vectors     FFT dimensions: (  15,  15,  15)

     Estimated max dynamical RAM per process >       2.11 MB

     Estimated total dynamical RAM >      10.53 MB

     Initial potential from superposition of free atoms

     starting charge   10.99990, renormalised to   11.00000
     Starting wfcs are    9 randomized atomic wfcs +    1 random wfcs

     total cpu time spent up to now is        1.0 secs

     Self-consistent Calculation

     iteration #  1     ecut=    20.00 Ry     beta= 0.70
     Davidson diagonalization with overlap
     ethr =  1.00E-02,  avg # of iterations =  4.8

     Threshold (ethr) on eigenvalues was too large:
     Diagonalizing with lowered threshold

     Davidson diagonalization with overlap
     ethr =  6.11E-04,  avg # of iterations =  1.1

     total cpu time spent up to now is        1.3 secs

     total energy              =     -85.17105055 Ry
     Harris-Foulkes estimate   =     -85.21175851 Ry
     estimated scf accuracy    <       0.06840345 Ry

     iteration #  2     ecut=    20.00 Ry     beta= 0.70
     Davidson diagonalization with overlap
     ethr =  6.22E-04,  avg # of iterations =  3.0

     negative rho (up, down):  1.571E-03 0.000E+00

     total cpu time spent up to now is        1.5 secs

     total energy              =     -85.21408839 Ry
     Harris-Foulkes estimate   =     -85.20255884 Ry
     estimated scf accuracy    <       0.01487222 Ry

     iteration #  3     ecut=    20.00 Ry     beta= 0.70
     Davidson diagonalization with overlap
     ethr =  1.35E-04,  avg # of iterations =  4.3

     total cpu time spent up to now is        1.8 secs

     total energy              =     -80.04739561 Ry
     Harris-Foulkes estimate   =     -85.89215149 Ry
     estimated scf accuracy    <     147.38457437 Ry

     iteration #  4     ecut=    20.00 Ry     beta= 0.70
     Davidson diagonalization with overlap
     ethr =  1.35E-04,  avg # of iterations =  6.3

     total cpu time spent up to now is        2.1 secs

     total energy              =     -85.19520983 Ry
     Harris-Foulkes estimate   =     -85.19540595 Ry
     estimated scf accuracy    <       0.00268744 Ry

     iteration #  5     ecut=    20.00 Ry     beta= 0.70
     Davidson diagonalization with overlap
     ethr =  2.44E-05,  avg # of iterations =  1.5

     total cpu time spent up to now is        2.2 secs

     total energy              =     -85.19512220 Ry
     Harris-Foulkes estimate   =     -85.19522904 Ry
     estimated scf accuracy    <       0.00246082 Ry

     iteration #  6     ecut=    20.00 Ry     beta= 0.70
     Davidson diagonalization with overlap
     ethr =  2.24E-05,  avg # of iterations =  1.0

     total cpu time spent up to now is        2.3 secs

     total energy              =     -85.19505438 Ry
     Harris-Foulkes estimate   =     -85.19512435 Ry
     estimated scf accuracy    <       0.00242321 Ry

     iteration #  7     ecut=    20.00 Ry     beta= 0.70
     Davidson diagonalization with overlap
     ethr =  2.20E-05,  avg # of iterations =  1.0

     total cpu time spent up to now is        2.4 secs

     total energy              =     -85.19502904 Ry
     Harris-Foulkes estimate   =     -85.19505536 Ry
     estimated scf accuracy    <       0.00240352 Ry

     iteration #  8     ecut=    20.00 Ry     beta= 0.70
     Davidson diagonalization with overlap
     ethr =  2.19E-05,  avg # of iterations =  1.1

     total cpu time spent up to now is        2.6 secs

     total energy              =     -85.19497548 Ry
     Harris-Foulkes estimate   =     -85.19502947 Ry
     estimated scf accuracy    <       0.00239223 Ry

     iteration #  9     ecut=    20.00 Ry     beta= 0.70
     Davidson diagonalization with overlap
     ethr =  2.17E-05,  avg # of iterations =  1.0

     total cpu time spent up to now is        2.7 secs

     total energy              =     -85.19490328 Ry
     Harris-Foulkes estimate   =     -85.19497595 Ry
     estimated scf accuracy    <       0.00237505 Ry

     iteration # 10     ecut=    20.00 Ry     beta= 0.70
     Davidson diagonalization with overlap
     ethr =  2.16E-05,  avg # of iterations =  1.0

     total cpu time spent up to now is        2.8 secs

     total energy              =     -85.19476812 Ry
     Harris-Foulkes estimate   =     -85.19490385 Ry
     estimated scf accuracy    <       0.00236093 Ry

     iteration # 11     ecut=    20.00 Ry     beta= 0.70
     Davidson diagonalization with overlap
     ethr =  2.15E-05,  avg # of iterations =  1.0

     total cpu time spent up to now is        2.9 secs

     total energy              =     -85.19482912 Ry
     Harris-Foulkes estimate   =     -85.19476954 Ry
     estimated scf accuracy    <       0.00233439 Ry

     iteration # 12     ecut=    20.00 Ry     beta= 0.70
     Davidson diagonalization with overlap
     ethr =  2.12E-05,  avg # of iterations =  1.0

     total cpu time spent up to now is        3.0 secs

     total energy              =     -85.11399648 Ry
     Harris-Foulkes estimate   =     -85.19482950 Ry
     estimated scf accuracy    <       0.00232392 Ry

     iteration # 13     ecut=    20.00 Ry     beta= 0.70
     Davidson diagonalization with overlap
     ethr =  2.11E-05,  avg # of iterations =  4.8

     total cpu time spent up to now is        3.5 secs

     total energy              =     -39.56684237 Ry
     Harris-Foulkes estimate   =     -90.53738629 Ry
     estimated scf accuracy    <    1866.56081431 Ry

     iteration # 14     ecut=    20.00 Ry     beta= 0.70
     Davidson diagonalization with overlap
     ethr =  2.11E-05,  avg # of iterations =  8.5

     negative rho (up, down):  3.107E-03 0.000E+00

     total cpu time spent up to now is        4.1 secs

     total energy              =     -85.21636322 Ry
     Harris-Foulkes estimate   =     -85.19628951 Ry
     estimated scf accuracy    <       0.00276254 Ry

     iteration # 15     ecut=    20.00 Ry     beta= 0.70
     Davidson diagonalization with overlap
     ethr =  2.11E-05,  avg # of iterations =  5.1

     total cpu time spent up to now is        4.6 secs

     total energy              =     -60.87795218 Ry
     Harris-Foulkes estimate   =     -94.03228926 Ry
     estimated scf accuracy    <    1922.86560924 Ry

     iteration # 16     ecut=    20.00 Ry     beta= 0.70
     Davidson diagonalization with overlap
     ethr =  2.11E-05,  avg # of iterations =  8.6

     total cpu time spent up to now is        4.9 secs

     total energy              =     -85.19429995 Ry
     Harris-Foulkes estimate   =     -85.19462531 Ry
     estimated scf accuracy    <       0.00225467 Ry

     iteration # 17     ecut=    20.00 Ry     beta= 0.70
     Davidson diagonalization with overlap
     ethr =  2.05E-05,  avg # of iterations =  1.2

     total cpu time spent up to now is        5.0 secs

     total energy              =     -85.19349735 Ry
     Harris-Foulkes estimate   =     -85.19430541 Ry
     estimated scf accuracy    <       0.00218310 Ry

     iteration # 18     ecut=    20.00 Ry     beta= 0.70
     Davidson diagonalization with overlap
     ethr =  1.98E-05,  avg # of iterations =  2.3

     total cpu time spent up to now is        5.2 secs

     total energy              =     -85.19476416 Ry
     Harris-Foulkes estimate   =     -85.19353278 Ry
     estimated scf accuracy    <       0.00197312 Ry

     iteration # 19     ecut=    20.00 Ry     beta= 0.70
     Davidson diagonalization with overlap
     ethr =  1.79E-05,  avg # of iterations =  2.4

     total cpu time spent up to now is        5.4 secs

     total energy              =     -85.19477798 Ry
     Harris-Foulkes estimate   =     -85.19484857 Ry
     estimated scf accuracy    <       0.00227128 Ry

     iteration # 20     ecut=    20.00 Ry     beta= 0.70
     Davidson diagonalization with overlap
     ethr =  1.79E-05,  avg # of iterations =  1.0

     total cpu time spent up to now is        5.6 secs

     total energy              =     -85.19455406 Ry
     Harris-Foulkes estimate   =     -85.19478116 Ry
     estimated scf accuracy    <       0.00228111 Ry

     iteration # 21     ecut=    20.00 Ry     beta= 0.70
     Davidson diagonalization with overlap
     ethr =  1.79E-05,  avg # of iterations =  1.0

     total cpu time spent up to now is        5.7 secs

     total energy              =     -85.19456366 Ry
     Harris-Foulkes estimate   =     -85.19455678 Ry
     estimated scf accuracy    <       0.00224643 Ry

     iteration # 22     ecut=    20.00 Ry     beta= 0.70
     Davidson diagonalization with overlap
     ethr =  1.79E-05,  avg # of iterations =  1.0

     total cpu time spent up to now is        5.8 secs

     total energy              =     -85.19452375 Ry
     Harris-Foulkes estimate   =     -85.19456398 Ry
     estimated scf accuracy    <       0.00224398 Ry

     iteration # 23     ecut=    20.00 Ry     beta= 0.70
     Davidson diagonalization with overlap
     ethr =  1.79E-05,  avg # of iterations =  1.0

     total cpu time spent up to now is        5.9 secs

     total energy              =     -85.19437343 Ry
     Harris-Foulkes estimate   =     -85.19452396 Ry
     estimated scf accuracy    <       0.00223572 Ry

     iteration # 24     ecut=    20.00 Ry     beta= 0.70
     Davidson diagonalization with overlap
     ethr =  1.79E-05,  avg # of iterations =  1.0

     total cpu time spent up to now is        6.0 secs

     total energy              =     -85.12042898 Ry
     Harris-Foulkes estimate   =     -85.19437465 Ry
     estimated scf accuracy    <       0.00220783 Ry

     iteration # 25     ecut=    20.00 Ry     beta= 0.70
     Davidson diagonalization with overlap
     ethr =  1.79E-05,  avg # of iterations =  4.9

     total cpu time spent up to now is        6.3 secs

     total energy              =     -59.86577185 Ry
     Harris-Foulkes estimate   =     -88.80085164 Ry
     estimated scf accuracy    <    1558.83798604 Ry

     iteration # 26     ecut=    20.00 Ry     beta= 0.70
     Davidson diagonalization with overlap
     ethr =  1.79E-05,  avg # of iterations =  7.9

     total cpu time spent up to now is        6.6 secs

     total energy              =     -85.17990913 Ry
     Harris-Foulkes estimate   =     -85.18483598 Ry
     estimated scf accuracy    <       0.00013302 Ry

     iteration # 27     ecut=    20.00 Ry     beta= 0.70
     Davidson diagonalization with overlap
     ethr =  1.21E-06,  avg # of iterations =  6.3

     total cpu time spent up to now is        7.0 secs

     total energy              =     -85.18288359 Ry
     Harris-Foulkes estimate   =     -85.18644429 Ry
     estimated scf accuracy    <       0.00134277 Ry

     iteration # 28     ecut=    20.00 Ry     beta= 0.70
     Davidson diagonalization with overlap
     ethr =  1.21E-06,  avg # of iterations =  4.9

     total cpu time spent up to now is        7.3 secs

     total energy              =     -85.18586464 Ry
     Harris-Foulkes estimate   =     -85.18440647 Ry
     estimated scf accuracy    <       0.00017996 Ry

     iteration # 29     ecut=    20.00 Ry     beta= 0.70
     Davidson diagonalization with overlap
     ethr =  1.21E-06,  avg # of iterations =  6.5

     total cpu time spent up to now is        7.6 secs

     total energy              =     -85.09287545 Ry
     Harris-Foulkes estimate   =     -85.19872946 Ry
     estimated scf accuracy    <       0.03074180 Ry

     iteration # 30     ecut=    20.00 Ry     beta= 0.70
     Davidson diagonalization with overlap
     ethr =  1.21E-06,  avg # of iterations =  7.6

     total cpu time spent up to now is        8.0 secs

     total energy              =     -85.17482559 Ry
     Harris-Foulkes estimate   =     -85.18658608 Ry
     estimated scf accuracy    <       0.00038307 Ry

     iteration # 31     ecut=    20.00 Ry     beta= 0.70
     Davidson diagonalization with overlap
     ethr =  1.21E-06,  avg # of iterations =  6.2

     total cpu time spent up to now is        8.4 secs

     total energy              =     -85.19381751 Ry
     Harris-Foulkes estimate   =     -85.18717572 Ry
     estimated scf accuracy    <       0.00191081 Ry

     iteration # 32     ecut=    20.00 Ry     beta= 0.70
     Davidson diagonalization with overlap
     ethr =  1.21E-06,  avg # of iterations =  6.0

     total cpu time spent up to now is        8.7 secs

     total energy              =     -84.89220873 Ry
     Harris-Foulkes estimate   =     -85.20972767 Ry
     estimated scf accuracy    <       0.12271773 Ry

     iteration # 33     ecut=    20.00 Ry     beta= 0.70
     Davidson diagonalization with overlap
     ethr =  1.21E-06,  avg # of iterations =  8.6

     total cpu time spent up to now is        9.1 secs

     total energy              =     -85.19381623 Ry
     Harris-Foulkes estimate   =     -85.19435905 Ry
     estimated scf accuracy    <       0.00221103 Ry

     iteration # 34     ecut=    20.00 Ry     beta= 0.70
     Davidson diagonalization with overlap
     ethr =  1.21E-06,  avg # of iterations =  2.7

     total cpu time spent up to now is        9.2 secs

     total energy              =     -85.16610245 Ry
     Harris-Foulkes estimate   =     -85.19383160 Ry
     estimated scf accuracy    <       0.00206401 Ry

     iteration # 35     ecut=    20.00 Ry     beta= 0.70
     Davidson diagonalization with overlap
     ethr =  1.21E-06,  avg # of iterations =  5.9

     total cpu time spent up to now is        9.6 secs

     total energy              =     -85.18222011 Ry
     Harris-Foulkes estimate   =     -85.18411279 Ry
     estimated scf accuracy    <       0.00012397 Ry

     iteration # 36     ecut=    20.00 Ry     beta= 0.70
     Davidson diagonalization with overlap
     ethr =  1.13E-06,  avg # of iterations =  4.9

     total cpu time spent up to now is        9.9 secs

     total energy              =     -85.19027991 Ry
     Harris-Foulkes estimate   =     -85.18685355 Ry
     estimated scf accuracy    <       0.00049344 Ry

     iteration # 37     ecut=    20.00 Ry     beta= 0.70
     Davidson diagonalization with overlap
     ethr =  1.13E-06,  avg # of iterations =  4.6

     total cpu time spent up to now is       10.2 secs

     total energy              =     -85.19195445 Ry
     Harris-Foulkes estimate   =     -85.19301208 Ry
     estimated scf accuracy    <       0.00184105 Ry

     iteration # 38     ecut=    20.00 Ry     beta= 0.70
     Davidson diagonalization with overlap
     ethr =  1.13E-06,  avg # of iterations =  3.3

     total cpu time spent up to now is       10.5 secs

     total energy              =     -85.19230894 Ry
     Harris-Foulkes estimate   =     -85.19201423 Ry
     estimated scf accuracy    <       0.00154998 Ry

     iteration # 39     ecut=    20.00 Ry     beta= 0.70
     Davidson diagonalization with overlap
     ethr =  1.13E-06,  avg # of iterations =  2.0

     total cpu time spent up to now is       10.7 secs

     total energy              =     -85.18987433 Ry
     Harris-Foulkes estimate   =     -85.19231496 Ry
     estimated scf accuracy    <       0.00160877 Ry

     iteration # 40     ecut=    20.00 Ry     beta= 0.70
     Davidson diagonalization with overlap
     ethr =  1.13E-06,  avg # of iterations =  4.1

     total cpu time spent up to now is       11.0 secs

     total energy              =     -85.19062711 Ry
     Harris-Foulkes estimate   =     -85.19017944 Ry
     estimated scf accuracy    <       0.00105576 Ry

     iteration # 41     ecut=    20.00 Ry     beta= 0.70
     Davidson diagonalization with overlap
     ethr =  1.13E-06,  avg # of iterations =  2.3

     total cpu time spent up to now is       11.2 secs

     total energy              =     -85.16316912 Ry
     Harris-Foulkes estimate   =     -85.19064278 Ry
     estimated scf accuracy    <       0.00117373 Ry

     iteration # 42     ecut=    20.00 Ry     beta= 0.70
     Davidson diagonalization with overlap
     ethr =  1.13E-06,  avg # of iterations =  6.0

     total cpu time spent up to now is       11.7 secs

     total energy              =     -85.13943332 Ry
     Harris-Foulkes estimate   =     -85.18843371 Ry
     estimated scf accuracy    <       0.00394030 Ry

     iteration # 43     ecut=    20.00 Ry     beta= 0.70
     Davidson diagonalization with overlap
     ethr =  1.13E-06,  avg # of iterations =  6.3

     total cpu time spent up to now is       12.1 secs

     total energy              =     -85.19944589 Ry
     Harris-Foulkes estimate   =     -85.19619079 Ry
     estimated scf accuracy    <       0.00394830 Ry

     iteration # 44     ecut=    20.00 Ry     beta= 0.70
     Davidson diagonalization with overlap
     ethr =  1.13E-06,  avg # of iterations =  4.6

     total cpu time spent up to now is       12.3 secs

     total energy              =     -85.19578182 Ry
     Harris-Foulkes estimate   =     -85.20037028 Ry
     estimated scf accuracy    <       0.00565703 Ry

     iteration # 45     ecut=    20.00 Ry     beta= 0.70
     Davidson diagonalization with overlap
     ethr =  1.13E-06,  avg # of iterations =  4.2

     total cpu time spent up to now is       12.7 secs

     total energy              =     -85.18132435 Ry
     Harris-Foulkes estimate   =     -85.19655517 Ry
     estimated scf accuracy    <       0.00348574 Ry

     iteration # 46     ecut=    20.00 Ry     beta= 0.70
     Davidson diagonalization with overlap
     ethr =  1.13E-06,  avg # of iterations =  4.9

     total cpu time spent up to now is       13.0 secs

     total energy              =     -85.17894039 Ry
     Harris-Foulkes estimate   =     -85.18752780 Ry
     estimated scf accuracy    <       0.00059145 Ry

     iteration # 47     ecut=    20.00 Ry     beta= 0.70
     Davidson diagonalization with overlap
     ethr =  1.13E-06,  avg # of iterations =  5.1

     total cpu time spent up to now is       13.3 secs

     total energy              =     -85.18408056 Ry
     Harris-Foulkes estimate   =     -85.18407357 Ry
     estimated scf accuracy    <       0.00002416 Ry

     iteration # 48     ecut=    20.00 Ry     beta= 0.70
     Davidson diagonalization with overlap
     ethr =  2.20E-07,  avg # of iterations =  1.7

     total cpu time spent up to now is       13.4 secs

     total energy              =     -85.18389573 Ry
     Harris-Foulkes estimate   =     -85.18408204 Ry
     estimated scf accuracy    <       0.00002573 Ry

     iteration # 49     ecut=    20.00 Ry     beta= 0.70
     Davidson diagonalization with overlap
     ethr =  2.20E-07,  avg # of iterations =  3.3

     total cpu time spent up to now is       13.6 secs

     total energy              =     -85.18399226 Ry
     Harris-Foulkes estimate   =     -85.18413941 Ry
     estimated scf accuracy    <       0.00002085 Ry

     iteration # 50     ecut=    20.00 Ry     beta= 0.70
     Davidson diagonalization with overlap
     ethr =  1.90E-07,  avg # of iterations =  3.1

     total cpu time spent up to now is       13.8 secs

     total energy              =     -85.18405805 Ry
     Harris-Foulkes estimate   =     -85.18406250 Ry
     estimated scf accuracy    <       0.00000134 Ry

     iteration # 51     ecut=    20.00 Ry     beta= 0.70
     Davidson diagonalization with overlap
     ethr =  1.22E-08,  avg # of iterations =  2.7

     total cpu time spent up to now is       14.0 secs

     total energy              =     -85.18406007 Ry
     Harris-Foulkes estimate   =     -85.18406031 Ry
     estimated scf accuracy    <       0.00000043 Ry

     iteration # 52     ecut=    20.00 Ry     beta= 0.70
     Davidson diagonalization with overlap
     ethr =  3.91E-09,  avg # of iterations =  2.1

     total cpu time spent up to now is       14.3 secs

     total energy              =     -85.18406018 Ry
     Harris-Foulkes estimate   =     -85.18406020 Ry
     estimated scf accuracy    <       0.00000001 Ry

     iteration # 53     ecut=    20.00 Ry     beta= 0.70
     Davidson diagonalization with overlap
     ethr =  1.25E-10,  avg # of iterations =  3.0

     total cpu time spent up to now is       14.5 secs

     End of self-consistent calculation

          k = 0.0000 0.0000 0.0000 (   169 PWs)   bands (ev):

     5.8566  11.0683  11.0683  11.0683  12.5905  12.5905  31.1970  35.0240
    35.0240  35.0240

          k =-0.1111 0.1111-0.1111 (   169 PWs)   bands (ev):

     6.2804  10.9459  11.2077  11.2077  12.5433  12.5433  31.6817  32.6874
    35.4879  35.4879

          k =-0.2222 0.2222-0.2222 (   168 PWs)   bands (ev):

     7.3724  10.8603  11.3634  11.3634  12.6786  12.6786  28.5155  32.4702
    36.3366  36.3366

          k =-0.3333 0.3333-0.3333 (   171 PWs)   bands (ev):

     8.2816  11.2225  11.2225  11.7906  13.2629  13.2629  23.9479  31.4523
    35.1484  35.1484

          k =-0.4444 0.4444-0.4444 (   168 PWs)   bands (ev):

     8.4449  11.0557  11.0557  13.7882  13.7882  14.1062  19.9339  30.5967
    33.5884  33.5884

          k = 0.0000 0.2222 0.0000 (   169 PWs)   bands (ev):

     6.4237  10.7849  11.3342  11.3342  12.2923  12.7235  31.9728  33.4992
    34.4885  34.4885

          k =-0.1111 0.3333-0.1111 (   167 PWs)   bands (ev):

     7.3198  10.5404  11.5003  11.5890  12.2727  12.9047  30.1929  32.8267
    33.8698  35.5519

          k =-0.2222 0.4444-0.2222 (   173 PWs)   bands (ev):

     8.4115  10.7647  11.1865  11.5577  13.1698  13.3913  25.6580  32.1012
    32.9991  34.9689

          k =-0.3333 0.5556-0.3333 (   170 PWs)   bands (ev):

     8.7380  10.8971  11.3691  11.9762  13.8516  14.9003  21.2319  30.9874
    32.3332  33.0703

          k = 0.5556-0.3333 0.5556 (   172 PWs)   bands (ev):

     8.7551  10.8393  11.2703  12.6243  13.7504  16.2859  19.1636  30.4948
    31.9317  32.8864

          k = 0.4444-0.2222 0.4444 (   170 PWs)   bands (ev):

     8.7316  11.0031  11.3674  11.7464  13.1238  14.5959  22.6865  30.7138
    32.2809  35.0562

          k = 0.3333-0.1111 0.3333 (   166 PWs)   bands (ev):

     8.1163  10.6727  11.3358  11.5798  12.3803  13.5111  27.1651  31.4669
    33.9186  36.5359

          k = 0.2222-0.0000 0.2222 (   170 PWs)   bands (ev):

     6.9479  10.7262  11.3979  11.4260  12.2611  12.8184  30.9319  32.0678
    34.3526  37.4791

          k = 0.0000 0.4444 0.0000 (   169 PWs)   bands (ev):

     7.8967  10.1290  11.7777  12.0853  12.0853  13.0575  31.9300  31.9300
    32.4975  33.9383

          k =-0.1111 0.5556-0.1111 (   171 PWs)   bands (ev):

     8.7752   9.9114  11.4282  12.3085  13.2188  13.4672  27.5807  30.5250
    31.3012  33.7849

          k =-0.2222 0.6667-0.2222 (   175 PWs)   bands (ev):

     9.2066  10.2565  11.2266  12.1362  13.9136  15.3766  22.9389  29.2511
    29.9512  33.4652

          k = 0.6667-0.2222 0.6667 (   174 PWs)   bands (ev):

     9.3498  10.4555  11.5144  11.9507  13.7854  18.3917  19.1665  27.5869
    30.7455  32.8848

          k = 0.5556-0.1111 0.5556 (   175 PWs)   bands (ev):

     9.5475  10.5979  11.2234  11.8925  13.1117  16.4663  22.1302  26.7900
    32.7397  32.9032

          k = 0.4444 0.0000 0.4444 (   174 PWs)   bands (ev):

     9.2576  10.4581  11.0292  11.9635  12.3353  14.7775  25.5470  27.9185
    33.2349  35.8667

          k = 0.0000 0.6667 0.0000 (   174 PWs)   bands (ev):

     8.8692   9.4675  12.7483  13.1551  13.1551  13.4699  28.0299  28.5582
    28.5582  32.5498

          k =-0.1111 0.7778-0.1111 (   177 PWs)   bands (ev):

     8.9935   9.3887  12.5927  13.1419  13.9239  15.4522  24.2474  26.7894
    27.6618  33.8394

          k = 0.7778-0.1111 0.7778 (   176 PWs)   bands (ev):

     9.2164   9.7946  12.0396  12.8751  13.8961  18.6665  20.8894  24.7017
    28.2850  34.2620

          k = 0.6667-0.0000 0.6667 (   172 PWs)   bands (ev):

     9.5906  10.3939  11.2807  12.5021  13.4118  18.3224  22.5269  23.0659
    30.3027  33.7070

          k = 0.0000 0.8889 0.0000 (   178 PWs)   bands (ev):

     8.7005   9.0700  13.7551  14.0600  14.0600  15.8528  22.8261  26.2978
    26.2978  33.1956

          k = 0.8889 0.0000 0.8889 (   178 PWs)   bands (ev):

     8.8277   9.1892  13.3875  13.5711  14.0959  17.9322  21.2671  24.9729
    26.5401  33.9952

          k =-0.2222 0.4444 0.0000 (   166 PWs)   bands (ev):

     8.3117  10.2686  11.2758  12.0894  12.2968  13.5415  28.4374  30.4906
    33.4963  35.2378

          k =-0.3333 0.5556-0.1111 (   174 PWs)   bands (ev):

     9.1983  10.5381  10.8445  12.0063  13.0621  14.7788  24.4513  29.0931
    31.5867  35.2260

          k = 0.5556-0.3333 0.7778 (   171 PWs)   bands (ev):

     9.2857  10.5368  11.4973  11.8318  13.6849  16.8966  20.3576  28.9612
    30.1504  33.8683

          k =-0.2222 0.6667 0.0000 (   172 PWs)   bands (ev):

     9.2913   9.7198  11.3852  13.0798  13.1510  14.8708  25.6322  27.5785
    29.2667  35.3139

          k = 0.6667-0.2222 0.8889 (   178 PWs)   bands (ev):

     9.5311  10.0270  11.1890  12.7075  13.7772  17.2401  22.1600  26.3428
    27.8297  35.5543

          k = 0.5556-0.1111 0.7778 (   177 PWs)   bands (ev):

     9.8074  10.2435  11.0617  12.3817  13.6885  18.8489  20.6133  25.1263
    28.4491  35.3825

          k = 0.4444 0.0000 0.6667 (   175 PWs)   bands (ev):

    10.1231  10.3685  10.4124  12.4525  13.1468  16.5994  23.6297  25.2151
    30.1027  35.7090

          k = 0.7778-0.1111 1.0000 (   175 PWs)   bands (ev):

     9.0781   9.3817  12.4834  13.3899  14.0665  17.6032  22.3046  25.4816
    26.0540  35.3861

          k = 0.6667-0.0000 0.8889 (   176 PWs)   bands (ev):

     9.4009   9.8367  11.7539  12.8513  14.0469  20.3596  20.4553  23.5940
    26.6870  36.2772

          k = 0.5556-0.1111 1.0000 (   175 PWs)   bands (ev):

     9.7970  10.2937  10.8294  12.5795  14.0732  19.4341  22.3139  23.2819
    26.1139  39.5249

     the Fermi energy is    15.7883 ev

!    total energy              =     -85.18406020 Ry
     Harris-Foulkes estimate   =     -85.18406020 Ry
     estimated scf accuracy    <          2.2E-09 Ry

     The total energy is the sum of the following terms:

     one-electron contribution =      11.06451679 Ry
     hartree contribution      =       7.48452323 Ry
     xc contribution           =     -31.77867736 Ry
     ewald contribution        =     -71.95438536 Ry
     smearing contrib. (-TS)   =      -0.00003750 Ry

     convergence has been achieved in  53 iterations

     Forces acting on atoms (cartesian axes, Ry/au):

     atom    1 type  1   force =     0.00000000    0.00000000    0.00000000

     Total force =     0.000000     Total SCF correction =     0.000000


     Computing stress (Cartesian axis) and pressure

          total   stress  (Ry/bohr**3)                   (kbar)     P= -142.62
  -0.00096950  -0.00000000  -0.00000000       -142.62     -0.00     -0.00
  -0.00000000  -0.00096950   0.00000000         -0.00   -142.62      0.00
  -0.00000000   0.00000000  -0.00096950         -0.00      0.00   -142.62


     Writing output data file Au.save/

     init_run     :      0.15s CPU      0.16s WALL (       1 calls)
     electrons    :     12.38s CPU     13.53s WALL (       1 calls)
     forces       :      0.02s CPU      0.02s WALL (       1 calls)
     stress       :      0.05s CPU      0.05s WALL (       1 calls)

     Called by init_run:
     wfcinit      :      0.04s CPU      0.04s WALL (       1 calls)
     potinit      :      0.00s CPU      0.00s WALL (       1 calls)
     hinit0       :      0.10s CPU      0.10s WALL (       1 calls)

     Called by electrons:
     c_bands      :     11.11s CPU     12.14s WALL (      54 calls)
     sum_band     :      1.06s CPU      1.19s WALL (      54 calls)
     v_of_rho     :      0.07s CPU      0.07s WALL (      54 calls)
     newd         :      0.10s CPU      0.10s WALL (      54 calls)
     mix_rho      :      0.03s CPU      0.03s WALL (      54 calls)

     Called by c_bands:
     init_us_2    :      0.13s CPU      0.15s WALL (    3885 calls)
     cegterg      :     10.75s CPU     11.75s WALL (    1890 calls)

     Called by sum_band:
     sum_band:bec :      0.02s CPU      0.02s WALL (    1890 calls)
     addusdens    :      0.08s CPU      0.08s WALL (      54 calls)

     Called by *egterg:
     h_psi        :      5.99s CPU      6.58s WALL (    8981 calls)
     s_psi        :      0.15s CPU      0.17s WALL (    8981 calls)
     g_psi        :      0.02s CPU      0.03s WALL (    7056 calls)
     cdiaghg      :      2.68s CPU      2.90s WALL (    8911 calls)

     Called by h_psi:
     h_psi:pot    :      5.95s CPU      6.53s WALL (    8981 calls)
     h_psi:calbec :      0.49s CPU      0.53s WALL (    8981 calls)
     vloc_psi     :      5.24s CPU      5.74s WALL (    8981 calls)
     add_vuspsi   :      0.16s CPU      0.18s WALL (    8981 calls)

     General routines
     calbec       :      0.58s CPU      0.64s WALL (   11046 calls)
     fft          :      0.04s CPU      0.04s WALL (     621 calls)
     ffts         :      0.00s CPU      0.00s WALL (      54 calls)
     fftw         :      5.57s CPU      6.12s WALL (  145658 calls)

     Parallel routines
     fft_scatt_xy :      0.40s CPU      0.46s WALL (  146333 calls)
     fft_scatt_yz :      3.42s CPU      3.70s WALL (  146333 calls)

     PWSCF        :    13.51s CPU        14.77s WALL


   This run was terminated on:  11:20:20  26Mar2024            

=------------------------------------------------------------------------------=
   JOB DONE.
=------------------------------------------------------------------------------=
