
     Program PWSCF v.6.3MaX starts on 26Mar2024 at 11:36: 7 

     This program is part of the open-source Quantum ESPRESSO suite
     for quantum simulation of materials; please cite
         "P. Giannozzi et al., J. Phys.:Condens. Matter 21 395502 (2009);
         "P. Giannozzi et al., J. Phys.:Condens. Matter 29 465901 (2017);
          URL http://www.quantum-espresso.org", 
     in publications or presentations arising from this work. More details at
     http://www.quantum-espresso.org/quote

     Parallel version (MPI), running on     5 processors

     MPI processes distributed on     1 nodes
     R & G space division:  proc/nbgrp/npool/nimage =       5
     Waiting for input...
     Reading input from standard input

     Current dimensions of program PWSCF are:
     Max number of different atomic species (ntypx) = 10
     Max number of k-points (npk) =  40000
     Max angular momentum in pseudopotentials (lmaxx) =  3

     Subspace diagonalization in iterative solution of the eigenvalue problem:
     a serial algorithm will be used


     Parallelization info
     --------------------
     sticks:   dense  smooth     PW     G-vecs:    dense   smooth      PW
     Min          73      73     24                  928      928     178
     Max          74      74     25                  930      930     181
     Sum         367     367    121                 4645     4645     893



     bravais-lattice index     =            2
     lattice parameter (alat)  =       7.7100  a.u.
     unit-cell volume          =     114.5785 (a.u.)^3
     number of atoms/cell      =            1
     number of atomic types    =            1
     number of electrons       =        11.00
     number of Kohn-Sham states=           10
     kinetic-energy cutoff     =      45.0000  Ry
     charge density cutoff     =     180.0000  Ry
     convergence threshold     =      1.0E-08
     mixing beta               =       0.7000
     number of iterations used =            8  plain     mixing
     Exchange-correlation      = PBESOL ( 1  4 10  8 0 0)

     celldm(1)=   7.710000  celldm(2)=   0.000000  celldm(3)=   0.000000
     celldm(4)=   0.000000  celldm(5)=   0.000000  celldm(6)=   0.000000

     crystal axes: (cart. coord. in units of alat)
               a(1) = (  -0.500000   0.000000   0.500000 )  
               a(2) = (   0.000000   0.500000   0.500000 )  
               a(3) = (  -0.500000   0.500000   0.000000 )  

     reciprocal axes: (cart. coord. in units 2 pi/alat)
               b(1) = ( -1.000000 -1.000000  1.000000 )  
               b(2) = (  1.000000  1.000000  1.000000 )  
               b(3) = ( -1.000000  1.000000 -1.000000 )  


     PseudoPot. # 1 for Au read from file:
     /home/lorenzo/pseudos/Au/Au.pbesol-n-rrkjus_psl.1.0.0.UPF
     MD5 check sum: 09626e9411213730b9a56fcc59c03ca8
     Pseudo is Ultrasoft + core correction, Zval = 11.0
     Generated using "atomic" code by A. Dal Corso v.6.3
     Using radial grid of 1279 points,  6 beta functions with: 
                l(1) =   0
                l(2) =   0
                l(3) =   1
                l(4) =   1
                l(5) =   2
                l(6) =   2
     Q(r) pseudized with 0 coefficients 


     atomic species   valence    mass     pseudopotential
        Au            11.00   196.96600     Au( 1.00)

     48 Sym. Ops., with inversion, found



   Cartesian axes

     site n.     atom                  positions (alat units)
         1           Au  tau(   1) = (   0.0000000   0.0000000   0.0000000  )

     number of k points=    47  gaussian smearing, width (Ry)=  0.0100
                       cart. coord. in units 2pi/alat
        k(    1) = (   0.0000000   0.0000000   0.0000000), wk =   0.0020000
        k(    2) = (  -0.1000000   0.1000000  -0.1000000), wk =   0.0160000
        k(    3) = (  -0.2000000   0.2000000  -0.2000000), wk =   0.0160000
        k(    4) = (  -0.3000000   0.3000000  -0.3000000), wk =   0.0160000
        k(    5) = (  -0.4000000   0.4000000  -0.4000000), wk =   0.0160000
        k(    6) = (   0.5000000  -0.5000000   0.5000000), wk =   0.0080000
        k(    7) = (   0.0000000   0.2000000   0.0000000), wk =   0.0120000
        k(    8) = (  -0.1000000   0.3000000  -0.1000000), wk =   0.0480000
        k(    9) = (  -0.2000000   0.4000000  -0.2000000), wk =   0.0480000
        k(   10) = (  -0.3000000   0.5000000  -0.3000000), wk =   0.0480000
        k(   11) = (   0.6000000  -0.4000000   0.6000000), wk =   0.0480000
        k(   12) = (   0.5000000  -0.3000000   0.5000000), wk =   0.0480000
        k(   13) = (   0.4000000  -0.2000000   0.4000000), wk =   0.0480000
        k(   14) = (   0.3000000  -0.1000000   0.3000000), wk =   0.0480000
        k(   15) = (   0.2000000   0.0000000   0.2000000), wk =   0.0240000
        k(   16) = (   0.0000000   0.4000000   0.0000000), wk =   0.0120000
        k(   17) = (  -0.1000000   0.5000000  -0.1000000), wk =   0.0480000
        k(   18) = (  -0.2000000   0.6000000  -0.2000000), wk =   0.0480000
        k(   19) = (   0.7000000  -0.3000000   0.7000000), wk =   0.0480000
        k(   20) = (   0.6000000  -0.2000000   0.6000000), wk =   0.0480000
        k(   21) = (   0.5000000  -0.1000000   0.5000000), wk =   0.0480000
        k(   22) = (   0.4000000   0.0000000   0.4000000), wk =   0.0240000
        k(   23) = (   0.0000000   0.6000000   0.0000000), wk =   0.0120000
        k(   24) = (  -0.1000000   0.7000000  -0.1000000), wk =   0.0480000
        k(   25) = (   0.8000000  -0.2000000   0.8000000), wk =   0.0480000
        k(   26) = (   0.7000000  -0.1000000   0.7000000), wk =   0.0480000
        k(   27) = (   0.6000000  -0.0000000   0.6000000), wk =   0.0240000
        k(   28) = (   0.0000000   0.8000000   0.0000000), wk =   0.0120000
        k(   29) = (   0.9000000  -0.1000000   0.9000000), wk =   0.0480000
        k(   30) = (   0.8000000   0.0000000   0.8000000), wk =   0.0240000
        k(   31) = (   0.0000000  -1.0000000   0.0000000), wk =   0.0060000
        k(   32) = (  -0.2000000   0.4000000   0.0000000), wk =   0.0480000
        k(   33) = (  -0.3000000   0.5000000  -0.1000000), wk =   0.0960000
        k(   34) = (   0.6000000  -0.4000000   0.8000000), wk =   0.0960000
        k(   35) = (   0.5000000  -0.3000000   0.7000000), wk =   0.0480000
        k(   36) = (  -0.2000000   0.6000000   0.0000000), wk =   0.0480000
        k(   37) = (   0.7000000  -0.3000000   0.9000000), wk =   0.0960000
        k(   38) = (   0.6000000  -0.2000000   0.8000000), wk =   0.0960000
        k(   39) = (   0.5000000  -0.1000000   0.7000000), wk =   0.0960000
        k(   40) = (   0.4000000   0.0000000   0.6000000), wk =   0.0480000
        k(   41) = (   0.8000000  -0.2000000   1.0000000), wk =   0.0480000
        k(   42) = (   0.7000000  -0.1000000   0.9000000), wk =   0.0960000
        k(   43) = (   0.6000000   0.0000000   0.8000000), wk =   0.0480000
        k(   44) = (  -0.2000000  -1.0000000   0.0000000), wk =   0.0240000
        k(   45) = (   0.6000000  -0.2000000   1.0000000), wk =   0.0480000
        k(   46) = (   0.5000000  -0.1000000   0.9000000), wk =   0.0480000
        k(   47) = (  -0.4000000  -1.0000000   0.0000000), wk =   0.0240000

     Dense  grid:     4645 G-vectors     FFT dimensions: (  24,  24,  24)

     Estimated max dynamical RAM per process >       5.64 MB

     Estimated total dynamical RAM >      28.20 MB

     Initial potential from superposition of free atoms

     starting charge   10.99990, renormalised to   11.00000
     Starting wfcs are    9 randomized atomic wfcs +    1 random wfcs

     total cpu time spent up to now is        1.1 secs

     Self-consistent Calculation

     iteration #  1     ecut=    45.00 Ry     beta= 0.70
     Davidson diagonalization with overlap
     ethr =  1.00E-02,  avg # of iterations =  5.3

     Threshold (ethr) on eigenvalues was too large:
     Diagonalizing with lowered threshold

     Davidson diagonalization with overlap
     ethr =  5.69E-04,  avg # of iterations =  1.5

     total cpu time spent up to now is        1.9 secs

     total energy              =     -85.19886608 Ry
     Harris-Foulkes estimate   =     -85.22695352 Ry
     estimated scf accuracy    <       0.06387358 Ry

     iteration #  2     ecut=    45.00 Ry     beta= 0.70
     Davidson diagonalization with overlap
     ethr =  5.81E-04,  avg # of iterations =  4.6

     total cpu time spent up to now is        2.6 secs

     total energy              =     -34.82027310 Ry
     Harris-Foulkes estimate   =    -272.18778980 Ry
     estimated scf accuracy    <  158763.70322286 Ry

     iteration #  3     ecut=    45.00 Ry     beta= 0.70
     Davidson diagonalization with overlap
     ethr =  5.81E-04,  avg # of iterations =  7.6

     total cpu time spent up to now is        3.5 secs

     total energy              =     -85.20287137 Ry
     Harris-Foulkes estimate   =     -85.21369717 Ry
     estimated scf accuracy    <       0.02406379 Ry

     iteration #  4     ecut=    45.00 Ry     beta= 0.70
     Davidson diagonalization with overlap
     ethr =  2.19E-04,  avg # of iterations =  1.6

     total cpu time spent up to now is        3.8 secs

     total energy              =     -85.20622039 Ry
     Harris-Foulkes estimate   =     -85.20639663 Ry
     estimated scf accuracy    <       0.00532940 Ry

     iteration #  5     ecut=    45.00 Ry     beta= 0.70
     Davidson diagonalization with overlap
     ethr =  4.84E-05,  avg # of iterations =  2.3

     total cpu time spent up to now is        4.2 secs

     total energy              =     -85.20669719 Ry
     Harris-Foulkes estimate   =     -85.20672313 Ry
     estimated scf accuracy    <       0.00305702 Ry

     iteration #  6     ecut=    45.00 Ry     beta= 0.70
     Davidson diagonalization with overlap
     ethr =  2.78E-05,  avg # of iterations =  1.3

     total cpu time spent up to now is        4.5 secs

     total energy              =     -85.20675577 Ry
     Harris-Foulkes estimate   =     -85.20676573 Ry
     estimated scf accuracy    <       0.00299521 Ry

     iteration #  7     ecut=    45.00 Ry     beta= 0.70
     Davidson diagonalization with overlap
     ethr =  2.72E-05,  avg # of iterations =  1.0

     total cpu time spent up to now is        4.8 secs

     total energy              =     -85.20678066 Ry
     Harris-Foulkes estimate   =     -85.20678096 Ry
     estimated scf accuracy    <       0.00301930 Ry

     iteration #  8     ecut=    45.00 Ry     beta= 0.70
     Davidson diagonalization with overlap
     ethr =  2.72E-05,  avg # of iterations =  1.0

     total cpu time spent up to now is        5.1 secs

     total energy              =     -85.20678793 Ry
     Harris-Foulkes estimate   =     -85.20679006 Ry
     estimated scf accuracy    <       0.00299991 Ry

     iteration #  9     ecut=    45.00 Ry     beta= 0.70
     Davidson diagonalization with overlap
     ethr =  2.72E-05,  avg # of iterations =  1.0

     total cpu time spent up to now is        5.4 secs

     total energy              =     -85.20678484 Ry
     Harris-Foulkes estimate   =     -85.20679161 Ry
     estimated scf accuracy    <       0.00298108 Ry

     iteration # 10     ecut=    45.00 Ry     beta= 0.70
     Davidson diagonalization with overlap
     ethr =  2.71E-05,  avg # of iterations =  1.0

     total cpu time spent up to now is        5.6 secs

     total energy              =     -85.20678625 Ry
     Harris-Foulkes estimate   =     -85.20678711 Ry
     estimated scf accuracy    <       0.00292071 Ry

     iteration # 11     ecut=    45.00 Ry     beta= 0.70
     Davidson diagonalization with overlap
     ethr =  2.66E-05,  avg # of iterations =  1.0

     total cpu time spent up to now is        5.9 secs

     total energy              =     -85.20664012 Ry
     Harris-Foulkes estimate   =     -85.20678744 Ry
     estimated scf accuracy    <       0.00290163 Ry

     iteration # 12     ecut=    45.00 Ry     beta= 0.70
     Davidson diagonalization with overlap
     ethr =  2.64E-05,  avg # of iterations =  2.9

     total cpu time spent up to now is        6.2 secs

     total energy              =     -85.20674428 Ry
     Harris-Foulkes estimate   =     -85.20715547 Ry
     estimated scf accuracy    <       0.00150555 Ry

     iteration # 13     ecut=    45.00 Ry     beta= 0.70
     Davidson diagonalization with overlap
     ethr =  1.37E-05,  avg # of iterations =  1.0

     total cpu time spent up to now is        6.5 secs

     total energy              =     -85.20646083 Ry
     Harris-Foulkes estimate   =     -85.20678566 Ry
     estimated scf accuracy    <       0.00064010 Ry

     iteration # 14     ecut=    45.00 Ry     beta= 0.70
     Davidson diagonalization with overlap
     ethr =  5.82E-06,  avg # of iterations =  2.1

     total cpu time spent up to now is        6.8 secs

     total energy              =     -85.20657409 Ry
     Harris-Foulkes estimate   =     -85.20657548 Ry
     estimated scf accuracy    <       0.00001257 Ry

     iteration # 15     ecut=    45.00 Ry     beta= 0.70
     Davidson diagonalization with overlap
     ethr =  1.14E-07,  avg # of iterations =  3.6

     total cpu time spent up to now is        7.3 secs

     total energy              =     -85.20658261 Ry
     Harris-Foulkes estimate   =     -85.20658332 Ry
     estimated scf accuracy    <       0.00000415 Ry

     iteration # 16     ecut=    45.00 Ry     beta= 0.70
     Davidson diagonalization with overlap
     ethr =  3.78E-08,  avg # of iterations =  1.4

     total cpu time spent up to now is        7.7 secs

     total energy              =     -85.20658260 Ry
     Harris-Foulkes estimate   =     -85.20658284 Ry
     estimated scf accuracy    <       0.00000120 Ry

     iteration # 17     ecut=    45.00 Ry     beta= 0.70
     Davidson diagonalization with overlap
     ethr =  1.09E-08,  avg # of iterations =  2.5

     total cpu time spent up to now is        8.0 secs

     total energy              =     -85.20658279 Ry
     Harris-Foulkes estimate   =     -85.20658282 Ry
     estimated scf accuracy    <       0.00000012 Ry

     iteration # 18     ecut=    45.00 Ry     beta= 0.70
     Davidson diagonalization with overlap
     ethr =  1.13E-09,  avg # of iterations =  2.6

     total cpu time spent up to now is        8.5 secs

     total energy              =     -85.20658281 Ry
     Harris-Foulkes estimate   =     -85.20658282 Ry
     estimated scf accuracy    <       0.00000003 Ry

     iteration # 19     ecut=    45.00 Ry     beta= 0.70
     Davidson diagonalization with overlap
     ethr =  3.15E-10,  avg # of iterations =  1.9

     total cpu time spent up to now is        8.8 secs

     End of self-consistent calculation

          k = 0.0000 0.0000 0.0000 (   561 PWs)   bands (ev):

     5.8349  11.1295  11.1295  11.1295  12.6746  12.6746  31.1379  35.0024
    35.0024  35.0024

          k =-0.1000 0.1000-0.1000 (   576 PWs)   bands (ev):

     6.1801  11.0222  11.2444  11.2444  12.6287  12.6287  31.4580  32.9199
    35.3339  35.3339

          k =-0.2000 0.2000-0.2000 (   582 PWs)   bands (ev):

     7.1066  10.8802  11.4197  11.4197  12.6727  12.6727  29.0753  32.2547
    35.9770  35.9770

          k =-0.3000 0.3000-0.3000 (   589 PWs)   bands (ev):

     8.0881  11.3467  11.3467  11.3535  13.1021  13.1021  25.0802  31.6574
    35.4467  35.4467

          k =-0.4000 0.4000-0.4000 (   589 PWs)   bands (ev):

     8.4251  11.1703  11.1703  13.1202  13.6490  13.6490  21.2054  30.7640
    33.9883  33.9883

          k = 0.5000-0.5000 0.5000 (   580 PWs)   bands (ev):

     8.4477  11.0930  11.0930  13.8910  13.8910  14.7569  18.9179  30.4213
    33.3592  33.3592

          k = 0.0000 0.2000 0.0000 (   569 PWs)   bands (ev):

     6.2967  10.8934  11.3414  11.3414  12.4243  12.7784  31.6648  33.6172
    34.4481  34.4481

          k =-0.1000 0.3000-0.1000 (   579 PWs)   bands (ev):

     7.0445  10.6645  11.5373  11.5717  12.3021  12.9040  30.5411  32.3797
    33.8878  35.3765

          k =-0.2000 0.4000-0.2000 (   584 PWs)   bands (ev):

     8.0954  10.7028  11.3594  11.6094  12.8698  13.2648  26.5999  32.1090
    33.2211  35.3059

          k =-0.3000 0.5000-0.3000 (   590 PWs)   bands (ev):

     8.6403  11.0738  11.4490  11.6313  13.7367  14.0651  22.5615  31.1593
    32.5282  33.6689

          k = 0.6000-0.4000 0.6000 (   583 PWs)   bands (ev):

     8.6999  10.9336  11.3096  12.6604  13.9074  15.8437  19.2713  30.5319
    32.2846  32.4998

          k = 0.5000-0.3000 0.5000 (   581 PWs)   bands (ev):

     8.7081  10.9866  11.3072  12.5711  13.5869  15.3455  20.2301  30.4279
    31.9226  33.6221

          k = 0.4000-0.2000 0.4000 (   585 PWs)   bands (ev):

     8.5654  11.1270  11.4331  11.4557  12.9395  14.0872  23.9075  30.8098
    32.7131  35.8643

          k = 0.3000-0.1000 0.3000 (   574 PWs)   bands (ev):

     7.7609  10.6966  11.4438  11.6159  12.3661  13.2812  27.9090  31.3905
    34.2434  36.2361

          k = 0.2000 0.0000 0.2000 (   574 PWs)   bands (ev):

     6.7303  10.8283  11.4178  11.4290  12.3871  12.8178  31.3032  31.6944
    34.2839  36.7668

          k = 0.0000 0.4000 0.0000 (   576 PWs)   bands (ev):

     7.5507  10.3194  11.9057  11.9521  11.9521  13.0572  32.2569  32.2569
    32.3703  32.9726

          k =-0.1000 0.5000-0.1000 (   582 PWs)   bands (ev):

     8.4298  10.0795  11.4879  12.1929  12.8243  13.3553  28.3948  31.0352
    32.0549  33.4814

          k =-0.2000 0.6000-0.2000 (   592 PWs)   bands (ev):

     9.0845  10.3151  11.1664  12.0991  13.8055  14.3779  24.2001  30.2668
    30.3500  33.0290

          k = 0.7000-0.3000 0.7000 (   582 PWs)   bands (ev):

     9.2253  10.5836  11.4661  11.9189  13.9520  16.6614  20.4469  28.6889
    30.5375  32.4609

          k = 0.6000-0.2000 0.6000 (   576 PWs)   bands (ev):

     9.3343  10.6148  11.7147  11.8183  13.5897  17.3808  19.7772  27.6016
    31.8214  32.2107

          k = 0.5000-0.1000 0.5000 (   585 PWs)   bands (ev):

     9.4065  10.7599  11.1190  11.8634  12.8892  15.5380  23.2087  27.3646
    32.5504  34.0354

          k = 0.4000 0.0000 0.4000 (   592 PWs)   bands (ev):

     8.8169  10.4872  11.2265  12.0307  12.1838  14.2708  26.4223  28.4679
    33.5166  36.3802

          k = 0.0000 0.6000 0.0000 (   576 PWs)   bands (ev):

     8.7768   9.6811  12.1802  12.8591  12.8591  13.4176  29.3031  29.3031
    29.7245  32.2917

          k =-0.1000 0.7000-0.1000 (   589 PWs)   bands (ev):

     9.0591   9.5406  12.2189  12.9708  13.8168  14.3909  25.6763  27.9275
    28.3048  33.2505

          k = 0.8000-0.2000 0.8000 (   586 PWs)   bands (ev):

     9.2407   9.8252  11.9266  12.7784  14.0156  16.9300  22.0341  26.1069
    28.3650  33.4469

          k = 0.7000-0.1000 0.7000 (   581 PWs)   bands (ev):

     9.4968  10.2841  11.5266  12.5569  13.6910  19.0214  20.1675  24.4734
    29.5897  33.1545

          k = 0.6000-0.0000 0.6000 (   584 PWs)   bands (ev):

     9.8159  10.6793  10.9238  12.3001  13.1459  17.1086  23.1760  23.7874
    31.6704  32.8271

          k = 0.0000 0.8000 0.0000 (   596 PWs)   bands (ev):

     8.8358   9.2104  13.7234  13.7902  13.7902  14.5270  24.5992  26.9121
    26.9121  32.5887

          k = 0.9000-0.1000 0.9000 (   594 PWs)   bands (ev):

     8.8863   9.2203  13.3558  13.5721  14.1069  16.9040  22.2542  25.3564
    26.6435  33.5082

          k = 0.8000 0.0000 0.8000 (   586 PWs)   bands (ev):

     9.1545   9.6385  12.4542  13.2210  13.9260  19.4810  20.4208  23.6379
    27.6600  33.7889

          k = 0.0000-1.0000 0.0000 (   588 PWs)   bands (ev):

     8.7007   9.0397  13.8439  14.2214  14.2214  16.7653  21.5492  25.9672
    25.9672  32.8148

          k =-0.2000 0.4000 0.0000 (   585 PWs)   bands (ev):

     7.9066  10.4048  11.4457  11.9583  12.2752  13.3210  29.0785  30.6339
    34.0219  34.5268

          k =-0.3000 0.5000-0.1000 (   584 PWs)   bands (ev):

     8.8793  10.4803  11.0821  11.9793  12.8515  14.2148  25.5014  29.5194
    32.1763  35.1988

          k = 0.6000-0.4000 0.8000 (   583 PWs)   bands (ev):

     9.1573  10.7640  11.3407  11.8218  13.5590  15.6636  21.6513  29.2167
    30.7480  33.9349

          k = 0.5000-0.3000 0.7000 (   584 PWs)   bands (ev):

     9.1551  10.6420  11.6828  11.9473  13.7865  17.5544  18.8711  29.5188
    29.8441  33.3065

          k =-0.2000 0.6000 0.0000 (   590 PWs)   bands (ev):

     9.1169   9.8626  11.3281  12.8515  12.9369  14.2094  26.7398  28.2756
    30.2056  35.4280

          k = 0.7000-0.3000 0.9000 (   581 PWs)   bands (ev):

     9.4930  10.0933  11.1124  12.6575  13.6408  15.9038  23.2980  27.2596
    28.6198  34.8188

          k = 0.6000-0.2000 0.8000 (   579 PWs)   bands (ev):

     9.6410  10.3165  11.2255  12.3698  13.8074  18.4059  19.9993  26.4701
    28.3440  34.4817

          k = 0.5000-0.1000 0.7000 (   578 PWs)   bands (ev):

     9.8779  10.3642  11.0108  12.3084  13.4831  17.4130  21.5350  25.5825
    29.4661  34.7483

          k = 0.4000 0.0000 0.6000 (   583 PWs)   bands (ev):

     9.8254  10.3513  10.6649  12.4329  12.8831  15.6170  24.4017  26.1466
    30.8765  35.7579

          k = 0.8000-0.2000 1.0000 (   583 PWs)   bands (ev):

     9.1605   9.4504  12.2788  13.4878  13.7855  16.1192  23.8174  26.1218
    26.7576  34.6625

          k = 0.7000-0.1000 0.9000 (   587 PWs)   bands (ev):

     9.3711   9.7634  11.8899  13.0496  14.0294  18.6647  21.4186  24.3566
    26.6506  35.2727

          k = 0.6000 0.0000 0.8000 (   590 PWs)   bands (ev):

     9.7043  10.2600  11.2506  12.6340  13.7877  19.1154  21.7555  22.8929
    27.8828  35.1029

          k =-0.2000-1.0000 0.0000 (   586 PWs)   bands (ev):

     9.0066   9.2993  12.9659  13.4797  14.2221  18.3391  21.1659  25.2371
    25.5673  34.7568

          k = 0.6000-0.2000 1.0000 (   575 PWs)   bands (ev):

     9.9009  10.1547  10.8522  12.7955  13.7763  17.8160  22.8715  24.1710
    27.0754  37.2142

          k = 0.5000-0.1000 0.9000 (   586 PWs)   bands (ev):

     9.9390  10.3906  10.7846  12.5395  14.0050  19.6491  21.0872  23.8544
    26.2432  37.1962

          k =-0.4000-1.0000 0.0000 (   590 PWs)   bands (ev):

     9.6689  10.0713  11.3270  12.6967  14.2233  20.6362  20.8631  23.3405
    25.1854  38.0788

     the Fermi energy is    15.7896 ev

!    total energy              =     -85.20658282 Ry
     Harris-Foulkes estimate   =     -85.20658282 Ry
     estimated scf accuracy    <          7.7E-11 Ry

     The total energy is the sum of the following terms:

     one-electron contribution =      11.01716915 Ry
     hartree contribution      =       7.53733589 Ry
     xc contribution           =     -31.80630631 Ry
     ewald contribution        =     -71.95438543 Ry
     smearing contrib. (-TS)   =      -0.00039612 Ry

     convergence has been achieved in  19 iterations

     Forces acting on atoms (cartesian axes, Ry/au):

     atom    1 type  1   force =     0.00000000    0.00000000    0.00000000

     Total force =     0.000000     Total SCF correction =     0.000000


     Computing stress (Cartesian axis) and pressure

          total   stress  (Ry/bohr**3)                   (kbar)     P=   18.40
   0.00012511   0.00000000  -0.00000000         18.40      0.00     -0.00
   0.00000000   0.00012511   0.00000000          0.00     18.40      0.00
   0.00000000   0.00000000   0.00012511          0.00      0.00     18.40


     Writing output data file Au.save/

     init_run     :      0.24s CPU      0.26s WALL (       1 calls)
     electrons    :      7.25s CPU      7.70s WALL (       1 calls)
     forces       :      0.03s CPU      0.04s WALL (       1 calls)
     stress       :      0.14s CPU      0.14s WALL (       1 calls)

     Called by init_run:
     wfcinit      :      0.08s CPU      0.09s WALL (       1 calls)
     potinit      :      0.01s CPU      0.01s WALL (       1 calls)
     hinit0       :      0.15s CPU      0.15s WALL (       1 calls)

     Called by electrons:
     c_bands      :      6.04s CPU      6.43s WALL (      20 calls)
     sum_band     :      1.03s CPU      1.09s WALL (      20 calls)
     v_of_rho     :      0.07s CPU      0.07s WALL (      20 calls)
     newd         :      0.10s CPU      0.11s WALL (      20 calls)
     mix_rho      :      0.01s CPU      0.01s WALL (      20 calls)

     Called by c_bands:
     init_us_2    :      0.16s CPU      0.17s WALL (    2021 calls)
     cegterg      :      5.76s CPU      6.13s WALL (     940 calls)

     Called by sum_band:
     sum_band:bec :      0.01s CPU      0.01s WALL (     940 calls)
     addusdens    :      0.09s CPU      0.09s WALL (      20 calls)

     Called by *egterg:
     h_psi        :      4.04s CPU      4.32s WALL (    3206 calls)
     s_psi        :      0.12s CPU      0.13s WALL (    3206 calls)
     g_psi        :      0.01s CPU      0.01s WALL (    2219 calls)
     cdiaghg      :      0.79s CPU      0.84s WALL (    3112 calls)

     Called by h_psi:
     h_psi:pot    :      4.02s CPU      4.30s WALL (    3206 calls)
     h_psi:calbec :      0.23s CPU      0.25s WALL (    3206 calls)
     vloc_psi     :      3.65s CPU      3.90s WALL (    3206 calls)
     add_vuspsi   :      0.12s CPU      0.13s WALL (    3206 calls)

     General routines
     calbec       :      0.31s CPU      0.33s WALL (    4381 calls)
     fft          :      0.04s CPU      0.04s WALL (     247 calls)
     ffts         :      0.00s CPU      0.00s WALL (      20 calls)
     fftw         :      4.09s CPU      4.36s WALL (   55888 calls)

     Parallel routines
     fft_scatt_xy :      0.34s CPU      0.36s WALL (   56155 calls)
     fft_scatt_yz :      1.53s CPU      1.62s WALL (   56155 calls)

     PWSCF        :     8.60s CPU         9.14s WALL


   This run was terminated on:  11:36:17  26Mar2024            

=------------------------------------------------------------------------------=
   JOB DONE.
=------------------------------------------------------------------------------=
