
     Program PWSCF v.6.3MaX starts on 26Mar2024 at 11:17:33 

     This program is part of the open-source Quantum ESPRESSO suite
     for quantum simulation of materials; please cite
         "P. Giannozzi et al., J. Phys.:Condens. Matter 21 395502 (2009);
         "P. Giannozzi et al., J. Phys.:Condens. Matter 29 465901 (2017);
          URL http://www.quantum-espresso.org", 
     in publications or presentations arising from this work. More details at
     http://www.quantum-espresso.org/quote

     Parallel version (MPI), running on     5 processors

     MPI processes distributed on     1 nodes
     R & G space division:  proc/nbgrp/npool/nimage =       5
     Waiting for input...
     Reading input from standard input

     Current dimensions of program PWSCF are:
     Max number of different atomic species (ntypx) = 10
     Max number of k-points (npk) =  40000
     Max angular momentum in pseudopotentials (lmaxx) =  3
               file Au.pbe-n-kjpaw_psl.1.0.0.UPF: wavefunction(s)  6S 5D renormalized

     Subspace diagonalization in iterative solution of the eigenvalue problem:
     a serial algorithm will be used


     Parallelization info
     --------------------
     sticks:   dense  smooth     PW     G-vecs:    dense   smooth      PW
     Min          32      32     12                  280      280      66
     Max          33      33     13                  283      283      67
     Sum         163     163     61                 1411     1411     331



     bravais-lattice index     =            2
     lattice parameter (alat)  =       7.7100  a.u.
     unit-cell volume          =     114.5785 (a.u.)^3
     number of atoms/cell      =            1
     number of atomic types    =            1
     number of electrons       =        11.00
     number of Kohn-Sham states=           10
     kinetic-energy cutoff     =      20.0000  Ry
     charge density cutoff     =      80.0000  Ry
     convergence threshold     =      1.0E-08
     mixing beta               =       0.7000
     number of iterations used =            8  plain     mixing
     Exchange-correlation      = SLA PW PBX PBC ( 1  4  3  4 0 0)

     celldm(1)=   7.710000  celldm(2)=   0.000000  celldm(3)=   0.000000
     celldm(4)=   0.000000  celldm(5)=   0.000000  celldm(6)=   0.000000

     crystal axes: (cart. coord. in units of alat)
               a(1) = (  -0.500000   0.000000   0.500000 )  
               a(2) = (   0.000000   0.500000   0.500000 )  
               a(3) = (  -0.500000   0.500000   0.000000 )  

     reciprocal axes: (cart. coord. in units 2 pi/alat)
               b(1) = ( -1.000000 -1.000000  1.000000 )  
               b(2) = (  1.000000  1.000000  1.000000 )  
               b(3) = ( -1.000000  1.000000 -1.000000 )  


     PseudoPot. # 1 for Au read from file:
     /home/lorenzo/pseudos/Au/Au.pbe-n-kjpaw_psl.1.0.0.UPF
     MD5 check sum: 4db85c736373c707a97ce4c36c2a9d23
     Pseudo is Projector augmented-wave + core cor, Zval = 11.0
     Generated using "atomic" code by A. Dal Corso v.6.3
     Shape of augmentation charge: PSQ
     Using radial grid of 1279 points,  6 beta functions with: 
                l(1) =   0
                l(2) =   0
                l(3) =   1
                l(4) =   1
                l(5) =   2
                l(6) =   2
     Q(r) pseudized with 0 coefficients 


     atomic species   valence    mass     pseudopotential
        Au            11.00   196.96600     Au( 1.00)

     48 Sym. Ops., with inversion, found



   Cartesian axes

     site n.     atom                  positions (alat units)
         1           Au  tau(   1) = (   0.0000000   0.0000000   0.0000000  )

     number of k points=    47  gaussian smearing, width (Ry)=  0.0100
                       cart. coord. in units 2pi/alat
        k(    1) = (   0.0000000   0.0000000   0.0000000), wk =   0.0020000
        k(    2) = (  -0.1000000   0.1000000  -0.1000000), wk =   0.0160000
        k(    3) = (  -0.2000000   0.2000000  -0.2000000), wk =   0.0160000
        k(    4) = (  -0.3000000   0.3000000  -0.3000000), wk =   0.0160000
        k(    5) = (  -0.4000000   0.4000000  -0.4000000), wk =   0.0160000
        k(    6) = (   0.5000000  -0.5000000   0.5000000), wk =   0.0080000
        k(    7) = (   0.0000000   0.2000000   0.0000000), wk =   0.0120000
        k(    8) = (  -0.1000000   0.3000000  -0.1000000), wk =   0.0480000
        k(    9) = (  -0.2000000   0.4000000  -0.2000000), wk =   0.0480000
        k(   10) = (  -0.3000000   0.5000000  -0.3000000), wk =   0.0480000
        k(   11) = (   0.6000000  -0.4000000   0.6000000), wk =   0.0480000
        k(   12) = (   0.5000000  -0.3000000   0.5000000), wk =   0.0480000
        k(   13) = (   0.4000000  -0.2000000   0.4000000), wk =   0.0480000
        k(   14) = (   0.3000000  -0.1000000   0.3000000), wk =   0.0480000
        k(   15) = (   0.2000000   0.0000000   0.2000000), wk =   0.0240000
        k(   16) = (   0.0000000   0.4000000   0.0000000), wk =   0.0120000
        k(   17) = (  -0.1000000   0.5000000  -0.1000000), wk =   0.0480000
        k(   18) = (  -0.2000000   0.6000000  -0.2000000), wk =   0.0480000
        k(   19) = (   0.7000000  -0.3000000   0.7000000), wk =   0.0480000
        k(   20) = (   0.6000000  -0.2000000   0.6000000), wk =   0.0480000
        k(   21) = (   0.5000000  -0.1000000   0.5000000), wk =   0.0480000
        k(   22) = (   0.4000000   0.0000000   0.4000000), wk =   0.0240000
        k(   23) = (   0.0000000   0.6000000   0.0000000), wk =   0.0120000
        k(   24) = (  -0.1000000   0.7000000  -0.1000000), wk =   0.0480000
        k(   25) = (   0.8000000  -0.2000000   0.8000000), wk =   0.0480000
        k(   26) = (   0.7000000  -0.1000000   0.7000000), wk =   0.0480000
        k(   27) = (   0.6000000  -0.0000000   0.6000000), wk =   0.0240000
        k(   28) = (   0.0000000   0.8000000   0.0000000), wk =   0.0120000
        k(   29) = (   0.9000000  -0.1000000   0.9000000), wk =   0.0480000
        k(   30) = (   0.8000000   0.0000000   0.8000000), wk =   0.0240000
        k(   31) = (   0.0000000  -1.0000000   0.0000000), wk =   0.0060000
        k(   32) = (  -0.2000000   0.4000000   0.0000000), wk =   0.0480000
        k(   33) = (  -0.3000000   0.5000000  -0.1000000), wk =   0.0960000
        k(   34) = (   0.6000000  -0.4000000   0.8000000), wk =   0.0960000
        k(   35) = (   0.5000000  -0.3000000   0.7000000), wk =   0.0480000
        k(   36) = (  -0.2000000   0.6000000   0.0000000), wk =   0.0480000
        k(   37) = (   0.7000000  -0.3000000   0.9000000), wk =   0.0960000
        k(   38) = (   0.6000000  -0.2000000   0.8000000), wk =   0.0960000
        k(   39) = (   0.5000000  -0.1000000   0.7000000), wk =   0.0960000
        k(   40) = (   0.4000000   0.0000000   0.6000000), wk =   0.0480000
        k(   41) = (   0.8000000  -0.2000000   1.0000000), wk =   0.0480000
        k(   42) = (   0.7000000  -0.1000000   0.9000000), wk =   0.0960000
        k(   43) = (   0.6000000   0.0000000   0.8000000), wk =   0.0480000
        k(   44) = (  -0.2000000  -1.0000000   0.0000000), wk =   0.0240000
        k(   45) = (   0.6000000  -0.2000000   1.0000000), wk =   0.0480000
        k(   46) = (   0.5000000  -0.1000000   0.9000000), wk =   0.0480000
        k(   47) = (  -0.4000000  -1.0000000   0.0000000), wk =   0.0240000

     Dense  grid:     1411 G-vectors     FFT dimensions: (  15,  15,  15)

     Estimated max dynamical RAM per process >       2.17 MB

     Estimated total dynamical RAM >      10.84 MB

     Initial potential from superposition of free atoms

     starting charge   10.99989, renormalised to   11.00000
     Starting wfcs are    9 randomized atomic wfcs +    1 random wfcs
     Checking if some PAW data can be deallocated... 

     total cpu time spent up to now is        1.1 secs

     Self-consistent Calculation

     iteration #  1     ecut=    20.00 Ry     beta= 0.70
     Davidson diagonalization with overlap
     ethr =  1.00E-02,  avg # of iterations =  4.9

     Threshold (ethr) on eigenvalues was too large:
     Diagonalizing with lowered threshold

     Davidson diagonalization with overlap
     ethr =  4.87E-04,  avg # of iterations =  1.1

     total cpu time spent up to now is        1.6 secs

     total energy              =    -775.09348419 Ry
     Harris-Foulkes estimate   =    -775.13117045 Ry
     estimated scf accuracy    <       0.05486186 Ry

     iteration #  2     ecut=    20.00 Ry     beta= 0.70
     Davidson diagonalization with overlap
     ethr =  4.99E-04,  avg # of iterations =  2.1

     total cpu time spent up to now is        1.9 secs

     total energy              =    -775.10952070 Ry
     Harris-Foulkes estimate   =    -775.11591729 Ry
     estimated scf accuracy    <       0.01064006 Ry

     iteration #  3     ecut=    20.00 Ry     beta= 0.70
     Davidson diagonalization with overlap
     ethr =  9.67E-05,  avg # of iterations =  2.0

     total cpu time spent up to now is        2.2 secs

     total energy              =    -775.11181737 Ry
     Harris-Foulkes estimate   =    -775.11177632 Ry
     estimated scf accuracy    <       0.00007742 Ry

     iteration #  4     ecut=    20.00 Ry     beta= 0.70
     Davidson diagonalization with overlap
     ethr =  7.04E-07,  avg # of iterations =  3.1

     total cpu time spent up to now is        2.6 secs

     total energy              =    -775.11189968 Ry
     Harris-Foulkes estimate   =    -775.11190879 Ry
     estimated scf accuracy    <       0.00002429 Ry

     iteration #  5     ecut=    20.00 Ry     beta= 0.70
     Davidson diagonalization with overlap
     ethr =  2.21E-07,  avg # of iterations =  1.0

     total cpu time spent up to now is        2.8 secs

     total energy              =    -775.11190018 Ry
     Harris-Foulkes estimate   =    -775.11190180 Ry
     estimated scf accuracy    <       0.00000259 Ry

     iteration #  6     ecut=    20.00 Ry     beta= 0.70
     Davidson diagonalization with overlap
     ethr =  2.36E-08,  avg # of iterations =  2.0

     total cpu time spent up to now is        3.1 secs

     total energy              =    -775.11190117 Ry
     Harris-Foulkes estimate   =    -775.11190132 Ry
     estimated scf accuracy    <       0.00000040 Ry

     iteration #  7     ecut=    20.00 Ry     beta= 0.70
     Davidson diagonalization with overlap
     ethr =  3.67E-09,  avg # of iterations =  1.2

     total cpu time spent up to now is        3.3 secs

     total energy              =    -775.11190118 Ry
     Harris-Foulkes estimate   =    -775.11190121 Ry
     estimated scf accuracy    <       0.00000005 Ry

     iteration #  8     ecut=    20.00 Ry     beta= 0.70
     Davidson diagonalization with overlap
     ethr =  4.89E-10,  avg # of iterations =  2.0

     total cpu time spent up to now is        3.6 secs

     End of self-consistent calculation

          k = 0.0000 0.0000 0.0000 (   169 PWs)   bands (ev):

     6.1085  11.1948  11.1948  11.1948  12.7242  12.7242  31.4485  35.2758
    35.2758  35.2758

          k =-0.1000 0.1000-0.1000 (   169 PWs)   bands (ev):

     6.4534  11.0944  11.3106  11.3106  12.6825  12.6825  31.8381  33.2611
    35.6689  35.6689

          k =-0.2000 0.2000-0.2000 (   171 PWs)   bands (ev):

     7.3741  10.9757  11.4845  11.4845  12.7324  12.7324  29.5498  32.6860
    36.4630  36.4630

          k =-0.3000 0.3000-0.3000 (   168 PWs)   bands (ev):

     8.3161  11.4205  11.4205  11.5098  13.1901  13.1901  25.4953  32.0717
    35.8875  35.8875

          k =-0.4000 0.4000-0.4000 (   174 PWs)   bands (ev):

     8.6031  11.2449  11.2449  13.3578  13.7161  13.7161  21.5332  31.1282
    34.2786  34.2786

          k = 0.5000-0.5000 0.5000 (   168 PWs)   bands (ev):

     8.6124  11.1741  11.1741  13.9769  13.9769  15.0534  19.1772  30.7739
    33.6078  33.6078

          k = 0.0000 0.2000 0.0000 (   169 PWs)   bands (ev):

     6.5701  10.9644  11.4099  11.4099  12.4805  12.8321  32.0471  34.0156
    34.8207  34.8207

          k =-0.1000 0.3000-0.1000 (   170 PWs)   bands (ev):

     7.3154  10.7469  11.6063  11.6397  12.3751  12.9596  31.0160  32.8593
    34.3606  35.9118

          k =-0.2000 0.4000-0.2000 (   167 PWs)   bands (ev):

     8.3418  10.8168  11.4432  11.6810  12.9601  13.3512  27.0572  32.6568
    33.7228  35.9525

          k =-0.3000 0.5000-0.3000 (   173 PWs)   bands (ev):

     8.8250  11.1583  11.5242  11.7825  13.8155  14.2010  22.9004  31.6491
    32.9368  34.1635

          k = 0.6000-0.4000 0.6000 (   170 PWs)   bands (ev):

     8.8607  11.0176  11.3890  12.7969  13.9915  16.0872  19.5451  31.0105
    32.6632  32.8574

          k = 0.5000-0.3000 0.5000 (   170 PWs)   bands (ev):

     8.8732  11.0705  11.3891  12.7208  13.6626  15.5426  20.5377  30.9319
    32.2393  34.0230

          k = 0.4000-0.2000 0.4000 (   170 PWs)   bands (ev):

     8.7693  11.2145  11.5354  11.5869  13.0179  14.1923  24.2852  31.3695
    33.0378  36.3932

          k = 0.3000-0.1000 0.3000 (   166 PWs)   bands (ev):

     8.0211  10.7989  11.5212  11.6850  12.4423  13.3767  28.3720  32.0324
    34.5948  36.6523

          k = 0.2000 0.0000 0.2000 (   170 PWs)   bands (ev):

     7.0023  10.9083  11.4846  11.4970  12.4473  12.8748  31.7112  32.2172
    34.6123  37.2018

          k = 0.0000 0.4000 0.0000 (   169 PWs)   bands (ev):

     7.8200  10.4043  11.9972  12.0223  12.0223  13.1109  32.7266  32.7266
    33.0205  33.5976

          k =-0.1000 0.5000-0.1000 (   170 PWs)   bands (ev):

     8.6806  10.1779  11.5845  12.2673  12.9142  13.4236  28.8298  31.4926
    32.9251  34.0990

          k =-0.2000 0.6000-0.2000 (   171 PWs)   bands (ev):

     9.2685  10.4444  11.2744  12.1724  13.9091  14.5181  24.5512  30.7677
    31.0247  33.6778

          k = 0.7000-0.3000 0.7000 (   176 PWs)   bands (ev):

     9.3724  10.6965  11.5857  11.9876  14.0263  16.8910  20.7368  29.3131
    30.9481  33.0374

          k = 0.6000-0.2000 0.6000 (   176 PWs)   bands (ev):

     9.4784  10.7184  11.8402  11.8910  13.6499  17.6305  20.0726  28.1191
    32.3312  32.7456

          k = 0.5000-0.1000 0.5000 (   173 PWs)   bands (ev):

     9.5784  10.8527  11.2654  11.9417  12.9583  15.7015  23.5835  27.8646
    33.0625  34.7517

          k = 0.4000 0.0000 0.4000 (   170 PWs)   bands (ev):

     9.0569  10.5884  11.3212  12.1208  12.2473  14.3621  26.8155  29.0907
    33.9731  36.7185

          k = 0.0000 0.6000 0.0000 (   174 PWs)   bands (ev):

     8.9969   9.7822  12.3328  12.9335  12.9335  13.4819  29.6871  29.6871
    30.2441  33.0066

          k =-0.1000 0.7000-0.1000 (   177 PWs)   bands (ev):

     9.2386   9.6510  12.3474  13.0390  13.8900  14.5471  25.9632  28.5478
    28.6510  34.0592

          k = 0.8000-0.2000 0.8000 (   174 PWs)   bands (ev):

     9.3829   9.9544  12.0467  12.8494  14.0934  17.1685  22.3112  26.7511
    28.7288  34.3787

          k = 0.7000-0.1000 0.7000 (   180 PWs)   bands (ev):

     9.6216  10.4143  11.6308  12.6252  13.7473  19.2696  20.4814  24.9574
    30.0355  33.9911

          k = 0.6000-0.0000 0.6000 (   174 PWs)   bands (ev):

     9.9413  10.8279  11.0311  12.3772  13.2103  17.3398  23.6028  24.1947
    32.2766  33.5604

          k = 0.0000 0.8000 0.0000 (   170 PWs)   bands (ev):

     9.0094   9.3229  13.8103  13.8925  13.8925  14.7702  25.0164  27.2131
    27.2131  33.6571

          k = 0.9000-0.1000 0.9000 (   178 PWs)   bands (ev):

     9.0486   9.3358  13.4610  13.6491  14.1708  17.1468  22.5720  25.7944
    26.9334  34.5608

          k = 0.8000 0.0000 0.8000 (   180 PWs)   bands (ev):

     9.2938   9.7638  12.5604  13.2922  13.9737  19.7682  20.6725  24.1472
    28.0108  34.8532

          k = 0.0000-1.0000 0.0000 (   190 PWs)   bands (ev):

     8.8676   9.1530  13.8734  14.2551  14.2551  17.0364  21.8838  26.2263
    26.2263  33.8878

          k =-0.2000 0.4000 0.0000 (   168 PWs)   bands (ev):

     8.1707  10.4977  11.5284  12.0271  12.3557  13.3943  29.5157  31.2934
    34.7047  34.9503

          k =-0.3000 0.5000-0.1000 (   171 PWs)   bands (ev):

     9.1017  10.5985  11.1726  12.0545  12.9356  14.3182  25.8999  30.0863
    32.8241  35.7382

          k = 0.6000-0.4000 0.8000 (   174 PWs)   bands (ev):

     9.3198  10.8586  11.4705  11.9034  13.6341  15.8508  21.9827  29.7131
    31.3825  34.3102

          k = 0.5000-0.3000 0.7000 (   170 PWs)   bands (ev):

     9.3046  10.7410  11.7626  12.0779  13.8717  17.8447  19.1273  29.9708
    30.5138  33.6207

          k =-0.2000 0.6000 0.0000 (   176 PWs)   bands (ev):

     9.3320   9.9648  11.4356  12.9166  13.0262  14.3119  27.0579  28.7430
    31.0131  35.5207

          k = 0.7000-0.3000 0.9000 (   174 PWs)   bands (ev):

     9.6449  10.2203  11.2287  12.7350  13.7199  16.0980  23.6154  27.6880
    29.3902  35.4127

          k = 0.6000-0.2000 0.8000 (   175 PWs)   bands (ev):

     9.7721  10.4402  11.3379  12.4457  13.8964  18.6681  20.2931  26.9494
    28.9819  35.0211

          k = 0.5000-0.1000 0.7000 (   174 PWs)   bands (ev):

    10.0113  10.4837  11.1325  12.3916  13.5476  17.6565  21.8911  26.0252
    30.1741  35.2306

          k = 0.4000 0.0000 0.6000 (   169 PWs)   bands (ev):

    10.0182  10.4609  10.7693  12.5333  12.9558  15.7960  24.7620  26.6778
    31.6523  36.2016

          k = 0.8000-0.2000 1.0000 (   174 PWs)   bands (ev):

     9.3261   9.5608  12.3907  13.5726  13.8704  16.3344  24.0968  26.4681
    27.4147  35.4563

          k = 0.7000-0.1000 0.9000 (   177 PWs)   bands (ev):

     9.5120   9.8850  11.9982  13.1261  14.0974  18.9321  21.6920  24.8531
    27.1775  36.1941

          k = 0.6000 0.0000 0.8000 (   177 PWs)   bands (ev):

     9.8290  10.3897  11.3586  12.7108  13.8478  19.3690  22.1053  23.3453
    28.4805  35.8812

          k =-0.2000-1.0000 0.0000 (   178 PWs)   bands (ev):

     9.1657   9.4134  13.0670  13.5607  14.2885  18.6069  21.4645  25.5504
    26.0668  35.6724

          k = 0.6000-0.2000 1.0000 (   171 PWs)   bands (ev):

    10.0452  10.2670  10.9742  12.8949  13.8615  18.0660  23.2014  24.5795
    27.8550  37.6328

          k = 0.5000-0.1000 0.9000 (   176 PWs)   bands (ev):

    10.0742  10.5064  10.8937  12.6258  14.0820  19.9134  21.4404  24.2188
    26.9605  37.7456

          k =-0.4000-1.0000 0.0000 (   174 PWs)   bands (ev):

     9.8129  10.1828  11.4328  12.7906  14.3105  20.9110  21.1800  23.6988
    25.9035  39.1427

     the Fermi energy is    15.9943 ev

!    total energy              =    -775.11190120 Ry
     Harris-Foulkes estimate   =    -775.11190120 Ry
     estimated scf accuracy    <          7.0E-11 Ry

     total all-electron energy =    -38023.957992 Ry

     The total energy is the sum of the following terms:

     one-electron contribution =      13.84824839 Ry
     hartree contribution      =       7.58678044 Ry
     xc contribution           =     -32.09803533 Ry
     ewald contribution        =     -71.95438536 Ry
     one-center paw contrib.   =    -692.49416605 Ry
     smearing contrib. (-TS)   =      -0.00034329 Ry

     convergence has been achieved in   8 iterations

     Forces acting on atoms (cartesian axes, Ry/au):

     atom    1 type  1   force =     0.00000000    0.00000000    0.00000000

     Total force =     0.000000     Total SCF correction =     0.000000


     Computing stress (Cartesian axis) and pressure

          total   stress  (Ry/bohr**3)                   (kbar)     P=  -17.06
  -0.00011597  -0.00000000  -0.00000000        -17.06     -0.00     -0.00
  -0.00000000  -0.00011597   0.00000000         -0.00    -17.06      0.00
  -0.00000000   0.00000000  -0.00011597         -0.00      0.00    -17.06


     Writing output data file Au.save/

     init_run     :      0.24s CPU      0.26s WALL (       1 calls)
     electrons    :      2.15s CPU      2.47s WALL (       1 calls)
     forces       :      0.02s CPU      0.02s WALL (       1 calls)
     stress       :      0.05s CPU      0.05s WALL (       1 calls)

     Called by init_run:
     wfcinit      :      0.03s CPU      0.04s WALL (       1 calls)
     potinit      :      0.10s CPU      0.12s WALL (       1 calls)
     hinit0       :      0.08s CPU      0.08s WALL (       1 calls)

     Called by electrons:
     c_bands      :      1.13s CPU      1.27s WALL (       9 calls)
     sum_band     :      0.17s CPU      0.20s WALL (       9 calls)
     v_of_rho     :      0.01s CPU      0.01s WALL (       9 calls)
     newd         :      0.02s CPU      0.02s WALL (       9 calls)
     PAW_pot      :      0.92s CPU      1.06s WALL (       9 calls)
     mix_rho      :      0.00s CPU      0.00s WALL (       9 calls)

     Called by c_bands:
     init_us_2    :      0.03s CPU      0.03s WALL (     987 calls)
     cegterg      :      1.08s CPU      1.22s WALL (     423 calls)

     Called by sum_band:
     sum_band:bec :      0.00s CPU      0.00s WALL (     423 calls)
     addusdens    :      0.01s CPU      0.01s WALL (       9 calls)

     Called by *egterg:
     h_psi        :      0.67s CPU      0.76s WALL (    1380 calls)
     s_psi        :      0.02s CPU      0.03s WALL (    1380 calls)
     g_psi        :      0.00s CPU      0.00s WALL (     910 calls)
     cdiaghg      :      0.25s CPU      0.28s WALL (    1286 calls)

     Called by h_psi:
     h_psi:pot    :      0.66s CPU      0.76s WALL (    1380 calls)
     h_psi:calbec :      0.05s CPU      0.06s WALL (    1380 calls)
     vloc_psi     :      0.58s CPU      0.66s WALL (    1380 calls)
     add_vuspsi   :      0.02s CPU      0.03s WALL (    1380 calls)

     General routines
     calbec       :      0.07s CPU      0.08s WALL (    2038 calls)
     fft          :      0.01s CPU      0.01s WALL (     126 calls)
     ffts         :      0.00s CPU      0.00s WALL (       9 calls)
     fftw         :      0.63s CPU      0.72s WALL (   25938 calls)

     Parallel routines
     fft_scatt_xy :      0.06s CPU      0.07s WALL (   26073 calls)
     fft_scatt_yz :      0.29s CPU      0.33s WALL (   26073 calls)

     PWSCF        :     3.38s CPU         3.78s WALL


   This run was terminated on:  11:17:36  26Mar2024            

=------------------------------------------------------------------------------=
   JOB DONE.
=------------------------------------------------------------------------------=
