
     Program PWSCF v.6.3MaX starts on 26Mar2024 at 11:47:39 

     This program is part of the open-source Quantum ESPRESSO suite
     for quantum simulation of materials; please cite
         "P. Giannozzi et al., J. Phys.:Condens. Matter 21 395502 (2009);
         "P. Giannozzi et al., J. Phys.:Condens. Matter 29 465901 (2017);
          URL http://www.quantum-espresso.org", 
     in publications or presentations arising from this work. More details at
     http://www.quantum-espresso.org/quote

     Parallel version (MPI), running on     5 processors

     MPI processes distributed on     1 nodes
     R & G space division:  proc/nbgrp/npool/nimage =       5
     Waiting for input...
     Reading input from standard input

     Current dimensions of program PWSCF are:
     Max number of different atomic species (ntypx) = 10
     Max number of k-points (npk) =  40000
     Max angular momentum in pseudopotentials (lmaxx) =  3

     Subspace diagonalization in iterative solution of the eigenvalue problem:
     a serial algorithm will be used


     Parallelization info
     --------------------
     sticks:   dense  smooth     PW     G-vecs:    dense   smooth      PW
     Min          89      89     27                 1260     1260     213
     Max          92      92     28                 1261     1261     214
     Sum         451     451    139                 6303     6303    1067



     bravais-lattice index     =            2
     lattice parameter (alat)  =       7.7100  a.u.
     unit-cell volume          =     114.5785 (a.u.)^3
     number of atoms/cell      =            1
     number of atomic types    =            1
     number of electrons       =        11.00
     number of Kohn-Sham states=           10
     kinetic-energy cutoff     =      55.0000  Ry
     charge density cutoff     =     220.0000  Ry
     convergence threshold     =      1.0E-08
     mixing beta               =       0.7000
     number of iterations used =            8  plain     mixing
     Exchange-correlation      = PBESOL ( 1  4 10  8 0 0)

     celldm(1)=   7.710000  celldm(2)=   0.000000  celldm(3)=   0.000000
     celldm(4)=   0.000000  celldm(5)=   0.000000  celldm(6)=   0.000000

     crystal axes: (cart. coord. in units of alat)
               a(1) = (  -0.500000   0.000000   0.500000 )  
               a(2) = (   0.000000   0.500000   0.500000 )  
               a(3) = (  -0.500000   0.500000   0.000000 )  

     reciprocal axes: (cart. coord. in units 2 pi/alat)
               b(1) = ( -1.000000 -1.000000  1.000000 )  
               b(2) = (  1.000000  1.000000  1.000000 )  
               b(3) = ( -1.000000  1.000000 -1.000000 )  


     PseudoPot. # 1 for Au read from file:
     /home/lorenzo/pseudos/Au/Au.pbesol-n-rrkjus_psl.1.0.0.UPF
     MD5 check sum: 09626e9411213730b9a56fcc59c03ca8
     Pseudo is Ultrasoft + core correction, Zval = 11.0
     Generated using "atomic" code by A. Dal Corso v.6.3
     Using radial grid of 1279 points,  6 beta functions with: 
                l(1) =   0
                l(2) =   0
                l(3) =   1
                l(4) =   1
                l(5) =   2
                l(6) =   2
     Q(r) pseudized with 0 coefficients 


     atomic species   valence    mass     pseudopotential
        Au            11.00   196.96600     Au( 1.00)

     48 Sym. Ops., with inversion, found



   Cartesian axes

     site n.     atom                  positions (alat units)
         1           Au  tau(   1) = (   0.0000000   0.0000000   0.0000000  )

     number of k points=     3  gaussian smearing, width (Ry)=  0.0100
                       cart. coord. in units 2pi/alat
        k(    1) = (   0.0000000   0.0000000   0.0000000), wk =   0.2500000
        k(    2) = (   0.5000000  -0.5000000   0.5000000), wk =   1.0000000
        k(    3) = (   0.0000000  -1.0000000   0.0000000), wk =   0.7500000

     Dense  grid:     6303 G-vectors     FFT dimensions: (  25,  25,  25)

     Estimated max dynamical RAM per process >       6.21 MB

     Estimated total dynamical RAM >      31.03 MB

     Initial potential from superposition of free atoms

     starting charge   10.99990, renormalised to   11.00000
     Starting wfcs are    9 randomized atomic wfcs +    1 random wfcs

     total cpu time spent up to now is        1.1 secs

     Self-consistent Calculation

     iteration #  1     ecut=    55.00 Ry     beta= 0.70
     Davidson diagonalization with overlap
     ethr =  1.00E-02,  avg # of iterations =  8.7

     Threshold (ethr) on eigenvalues was too large:
     Diagonalizing with lowered threshold

     Davidson diagonalization with overlap
     ethr =  4.20E-04,  avg # of iterations =  1.7

     negative rho (up, down):  1.802E-03 0.000E+00

     total cpu time spent up to now is        1.2 secs

     total energy              =     -84.98539247 Ry
     Harris-Foulkes estimate   =     -84.96919682 Ry
     estimated scf accuracy    <       0.04862980 Ry

     iteration #  2     ecut=    55.00 Ry     beta= 0.70
     Davidson diagonalization with overlap
     ethr =  4.42E-04,  avg # of iterations =  5.0

     total cpu time spent up to now is        1.3 secs

     total energy              =     -29.10966473 Ry
     Harris-Foulkes estimate   =    -433.93635020 Ry
     estimated scf accuracy    <  200774.30608074 Ry

     iteration #  3     ecut=    55.00 Ry     beta= 0.70
     Davidson diagonalization with overlap
     ethr =  4.42E-04,  avg # of iterations = 10.0

     total cpu time spent up to now is        1.4 secs

     total energy              =     -84.95497583 Ry
     Harris-Foulkes estimate   =     -84.96806045 Ry
     estimated scf accuracy    <       0.03551435 Ry

     iteration #  4     ecut=    55.00 Ry     beta= 0.70
     Davidson diagonalization with overlap
     ethr =  3.23E-04,  avg # of iterations =  2.7

     total cpu time spent up to now is        1.4 secs

     total energy              =     -84.95676580 Ry
     Harris-Foulkes estimate   =     -84.95762969 Ry
     estimated scf accuracy    <       0.00724459 Ry

     iteration #  5     ecut=    55.00 Ry     beta= 0.70
     Davidson diagonalization with overlap
     ethr =  6.59E-05,  avg # of iterations =  3.3

     total cpu time spent up to now is        1.5 secs

     total energy              =     -84.95669010 Ry
     Harris-Foulkes estimate   =     -84.95882722 Ry
     estimated scf accuracy    <       0.01239749 Ry

     iteration #  6     ecut=    55.00 Ry     beta= 0.70
     Davidson diagonalization with overlap
     ethr =  6.59E-05,  avg # of iterations =  1.0

     total cpu time spent up to now is        1.5 secs

     total energy              =     -84.95790567 Ry
     Harris-Foulkes estimate   =     -84.95796141 Ry
     estimated scf accuracy    <       0.00808464 Ry

     iteration #  7     ecut=    55.00 Ry     beta= 0.70
     Davidson diagonalization with overlap
     ethr =  6.59E-05,  avg # of iterations =  1.0

     total cpu time spent up to now is        1.5 secs

     total energy              =     -84.95790263 Ry
     Harris-Foulkes estimate   =     -84.95793496 Ry
     estimated scf accuracy    <       0.00740203 Ry

     iteration #  8     ecut=    55.00 Ry     beta= 0.70
     Davidson diagonalization with overlap
     ethr =  6.59E-05,  avg # of iterations =  1.0

     total cpu time spent up to now is        1.6 secs

     total energy              =     -84.95789966 Ry
     Harris-Foulkes estimate   =     -84.95791546 Ry
     estimated scf accuracy    <       0.00687011 Ry

     iteration #  9     ecut=    55.00 Ry     beta= 0.70
     Davidson diagonalization with overlap
     ethr =  6.25E-05,  avg # of iterations =  1.0

     total cpu time spent up to now is        1.6 secs

     total energy              =     -84.95789822 Ry
     Harris-Foulkes estimate   =     -84.95790757 Ry
     estimated scf accuracy    <       0.00650669 Ry

     iteration # 10     ecut=    55.00 Ry     beta= 0.70
     Davidson diagonalization with overlap
     ethr =  5.92E-05,  avg # of iterations =  1.0

     total cpu time spent up to now is        1.6 secs

     total energy              =     -84.95789851 Ry
     Harris-Foulkes estimate   =     -84.95790090 Ry
     estimated scf accuracy    <       0.00630483 Ry

     iteration # 11     ecut=    55.00 Ry     beta= 0.70
     Davidson diagonalization with overlap
     ethr =  5.73E-05,  avg # of iterations =  1.0

     total cpu time spent up to now is        1.7 secs

     total energy              =     -84.95763082 Ry
     Harris-Foulkes estimate   =     -84.95789945 Ry
     estimated scf accuracy    <       0.00618068 Ry

     iteration # 12     ecut=    55.00 Ry     beta= 0.70
     Davidson diagonalization with overlap
     ethr =  5.62E-05,  avg # of iterations =  1.3

     total cpu time spent up to now is        1.7 secs

     total energy              =     -84.95770333 Ry
     Harris-Foulkes estimate   =     -84.95773131 Ry
     estimated scf accuracy    <       0.00090168 Ry

     iteration # 13     ecut=    55.00 Ry     beta= 0.70
     Davidson diagonalization with overlap
     ethr =  8.20E-06,  avg # of iterations =  3.3

     total cpu time spent up to now is        1.7 secs

     total energy              =     -84.95771042 Ry
     Harris-Foulkes estimate   =     -84.95771489 Ry
     estimated scf accuracy    <       0.00067232 Ry

     iteration # 14     ecut=    55.00 Ry     beta= 0.70
     Davidson diagonalization with overlap
     ethr =  6.11E-06,  avg # of iterations =  1.0

     total cpu time spent up to now is        1.8 secs

     total energy              =     -84.95767263 Ry
     Harris-Foulkes estimate   =     -84.95771385 Ry
     estimated scf accuracy    <       0.00043943 Ry

     iteration # 15     ecut=    55.00 Ry     beta= 0.70
     Davidson diagonalization with overlap
     ethr =  3.99E-06,  avg # of iterations =  1.3

     total cpu time spent up to now is        1.8 secs

     total energy              =     -84.95769562 Ry
     Harris-Foulkes estimate   =     -84.95769566 Ry
     estimated scf accuracy    <       0.00000226 Ry

     iteration # 16     ecut=    55.00 Ry     beta= 0.70
     Davidson diagonalization with overlap
     ethr =  2.05E-08,  avg # of iterations =  4.3

     total cpu time spent up to now is        1.9 secs

     total energy              =     -84.95769929 Ry
     Harris-Foulkes estimate   =     -84.95770192 Ry
     estimated scf accuracy    <       0.00005245 Ry

     iteration # 17     ecut=    55.00 Ry     beta= 0.70
     Davidson diagonalization with overlap
     ethr =  2.05E-08,  avg # of iterations =  2.0

     total cpu time spent up to now is        1.9 secs

     total energy              =     -84.95769883 Ry
     Harris-Foulkes estimate   =     -84.95770011 Ry
     estimated scf accuracy    <       0.00000635 Ry

     iteration # 18     ecut=    55.00 Ry     beta= 0.70
     Davidson diagonalization with overlap
     ethr =  2.05E-08,  avg # of iterations =  2.7

     total cpu time spent up to now is        1.9 secs

     total energy              =     -84.95769962 Ry
     Harris-Foulkes estimate   =     -84.95769990 Ry
     estimated scf accuracy    <       0.00000817 Ry

     iteration # 19     ecut=    55.00 Ry     beta= 0.70
     Davidson diagonalization with overlap
     ethr =  2.05E-08,  avg # of iterations =  1.0

     total cpu time spent up to now is        2.0 secs

     total energy              =     -84.95769968 Ry
     Harris-Foulkes estimate   =     -84.95769969 Ry
     estimated scf accuracy    <       0.00000263 Ry

     iteration # 20     ecut=    55.00 Ry     beta= 0.70
     Davidson diagonalization with overlap
     ethr =  2.05E-08,  avg # of iterations =  1.0

     total cpu time spent up to now is        2.0 secs

     total energy              =     -84.95769938 Ry
     Harris-Foulkes estimate   =     -84.95769969 Ry
     estimated scf accuracy    <       0.00000233 Ry

     iteration # 21     ecut=    55.00 Ry     beta= 0.70
     Davidson diagonalization with overlap
     ethr =  2.05E-08,  avg # of iterations =  1.7

     total cpu time spent up to now is        2.1 secs

     total energy              =     -84.95769972 Ry
     Harris-Foulkes estimate   =     -84.95769973 Ry
     estimated scf accuracy    <       0.00000281 Ry

     iteration # 22     ecut=    55.00 Ry     beta= 0.70
     Davidson diagonalization with overlap
     ethr =  2.05E-08,  avg # of iterations =  1.0

     total cpu time spent up to now is        2.1 secs

     total energy              =     -84.95769962 Ry
     Harris-Foulkes estimate   =     -84.95769972 Ry
     estimated scf accuracy    <       0.00000270 Ry

     iteration # 23     ecut=    55.00 Ry     beta= 0.70
     Davidson diagonalization with overlap
     ethr =  2.05E-08,  avg # of iterations =  1.0

     total cpu time spent up to now is        2.2 secs

     total energy              =     -84.95769962 Ry
     Harris-Foulkes estimate   =     -84.95769965 Ry
     estimated scf accuracy    <       0.00000059 Ry

     iteration # 24     ecut=    55.00 Ry     beta= 0.70
     Davidson diagonalization with overlap
     ethr =  5.35E-09,  avg # of iterations =  1.0

     total cpu time spent up to now is        2.2 secs

     total energy              =     -84.95769963 Ry
     Harris-Foulkes estimate   =     -84.95769963 Ry
     estimated scf accuracy    <       0.00000022 Ry

     iteration # 25     ecut=    55.00 Ry     beta= 0.70
     Davidson diagonalization with overlap
     ethr =  1.99E-09,  avg # of iterations =  1.0

     total cpu time spent up to now is        2.2 secs

     total energy              =     -84.95769963 Ry
     Harris-Foulkes estimate   =     -84.95769963 Ry
     estimated scf accuracy    <       0.00000014 Ry

     iteration # 26     ecut=    55.00 Ry     beta= 0.70
     Davidson diagonalization with overlap
     ethr =  1.27E-09,  avg # of iterations =  1.0

     total cpu time spent up to now is        2.3 secs

     End of self-consistent calculation

          k = 0.0000 0.0000 0.0000 (   749 PWs)   bands (ev):

     5.8546  11.4944  11.4944  11.4944  13.1296  13.1296  31.0299  35.0339
    35.0339  35.0339

          k = 0.5000-0.5000 0.5000 (   796 PWs)   bands (ev):

     8.6442  11.4709  11.4709  14.3626  14.3626  14.7744  19.2148  30.3540
    33.4215  33.4215

          k = 0.0000-1.0000 0.0000 (   790 PWs)   bands (ev):

     8.9582   9.3217  14.3369  14.6891  14.6891  16.7806  21.7756  26.0193
    26.0193  32.8620

     the Fermi energy is    14.8584 ev

!    total energy              =     -84.95769967 Ry
     Harris-Foulkes estimate   =     -84.95769963 Ry
     estimated scf accuracy    <          9.2E-09 Ry

     The total energy is the sum of the following terms:

     one-electron contribution =      11.10339103 Ry
     hartree contribution      =       7.81851642 Ry
     xc contribution           =     -31.92239627 Ry
     ewald contribution        =     -71.95438542 Ry
     smearing contrib. (-TS)   =      -0.00282543 Ry

     convergence has been achieved in  26 iterations

     Forces acting on atoms (cartesian axes, Ry/au):

     atom    1 type  1   force =     0.00000000    0.00000000    0.00000000

     Total force =     0.000000     Total SCF correction =     0.000000


     Computing stress (Cartesian axis) and pressure

          total   stress  (Ry/bohr**3)                   (kbar)     P=  496.84
   0.00337742   0.00000000   0.00000000        496.84      0.00      0.00
   0.00000000   0.00337742   0.00000000          0.00    496.84      0.00
   0.00000000   0.00000000   0.00337742          0.00      0.00    496.84


     Writing output data file Au.save/

     init_run     :      0.19s CPU      0.19s WALL (       1 calls)
     electrons    :      1.11s CPU      1.16s WALL (       1 calls)
     forces       :      0.02s CPU      0.02s WALL (       1 calls)
     stress       :      0.07s CPU      0.07s WALL (       1 calls)

     Called by init_run:
     wfcinit      :      0.01s CPU      0.01s WALL (       1 calls)
     potinit      :      0.01s CPU      0.01s WALL (       1 calls)
     hinit0       :      0.16s CPU      0.16s WALL (       1 calls)

     Called by electrons:
     c_bands      :      0.56s CPU      0.59s WALL (      27 calls)
     sum_band     :      0.29s CPU      0.30s WALL (      27 calls)
     v_of_rho     :      0.08s CPU      0.09s WALL (      27 calls)
     newd         :      0.17s CPU      0.18s WALL (      27 calls)
     mix_rho      :      0.02s CPU      0.02s WALL (      27 calls)

     Called by c_bands:
     init_us_2    :      0.02s CPU      0.02s WALL (     171 calls)
     cegterg      :      0.53s CPU      0.56s WALL (      81 calls)

     Called by sum_band:
     sum_band:bec :      0.00s CPU      0.00s WALL (      81 calls)
     addusdens    :      0.16s CPU      0.16s WALL (      27 calls)

     Called by *egterg:
     h_psi        :      0.39s CPU      0.41s WALL (     270 calls)
     s_psi        :      0.01s CPU      0.01s WALL (     270 calls)
     g_psi        :      0.00s CPU      0.00s WALL (     186 calls)
     cdiaghg      :      0.06s CPU      0.06s WALL (     264 calls)

     Called by h_psi:
     h_psi:pot    :      0.39s CPU      0.41s WALL (     270 calls)
     h_psi:calbec :      0.02s CPU      0.02s WALL (     270 calls)
     vloc_psi     :      0.36s CPU      0.37s WALL (     270 calls)
     add_vuspsi   :      0.01s CPU      0.01s WALL (     270 calls)

     General routines
     calbec       :      0.03s CPU      0.03s WALL (     366 calls)
     fft          :      0.05s CPU      0.06s WALL (     324 calls)
     ffts         :      0.00s CPU      0.00s WALL (      27 calls)
     fftw         :      0.40s CPU      0.42s WALL (    4720 calls)

     Parallel routines
     fft_scatt_xy :      0.03s CPU      0.04s WALL (    5071 calls)
     fft_scatt_yz :      0.15s CPU      0.15s WALL (    5071 calls)

     PWSCF        :     2.33s CPU         2.41s WALL


   This run was terminated on:  11:47:41  26Mar2024            

=------------------------------------------------------------------------------=
   JOB DONE.
=------------------------------------------------------------------------------=
