
     Program PWSCF v.6.3MaX starts on 26Mar2024 at 11:58:20 

     This program is part of the open-source Quantum ESPRESSO suite
     for quantum simulation of materials; please cite
         "P. Giannozzi et al., J. Phys.:Condens. Matter 21 395502 (2009);
         "P. Giannozzi et al., J. Phys.:Condens. Matter 29 465901 (2017);
          URL http://www.quantum-espresso.org", 
     in publications or presentations arising from this work. More details at
     http://www.quantum-espresso.org/quote

     Parallel version (MPI), running on     5 processors

     MPI processes distributed on     1 nodes
     R & G space division:  proc/nbgrp/npool/nimage =       5
     Waiting for input...
     Reading input from standard input

     Current dimensions of program PWSCF are:
     Max number of different atomic species (ntypx) = 10
     Max number of k-points (npk) =  40000
     Max angular momentum in pseudopotentials (lmaxx) =  3
               file Au.pbesol-n-kjpaw_psl.1.0.0.UPF: wavefunction(s)  6S 5D renormalized

     Subspace diagonalization in iterative solution of the eigenvalue problem:
     a serial algorithm will be used


     Parallelization info
     --------------------
     sticks:   dense  smooth     PW     G-vecs:    dense   smooth      PW
     Min         103     103     32                 1597     1597     290
     Max         104     104     33                 1600     1600     293
     Sum         517     517    163                 7991     7991    1459



     bravais-lattice index     =            2
     lattice parameter (alat)  =       7.7100  a.u.
     unit-cell volume          =     114.5785 (a.u.)^3
     number of atoms/cell      =            1
     number of atomic types    =            1
     number of electrons       =        11.00
     number of Kohn-Sham states=           10
     kinetic-energy cutoff     =      65.0000  Ry
     charge density cutoff     =     260.0000  Ry
     convergence threshold     =      1.0E-08
     mixing beta               =       0.7000
     number of iterations used =            8  plain     mixing
     Exchange-correlation      = SLA PW PSX PSC ( 1  4 10  8 0 0)

     celldm(1)=   7.710000  celldm(2)=   0.000000  celldm(3)=   0.000000
     celldm(4)=   0.000000  celldm(5)=   0.000000  celldm(6)=   0.000000

     crystal axes: (cart. coord. in units of alat)
               a(1) = (  -0.500000   0.000000   0.500000 )  
               a(2) = (   0.000000   0.500000   0.500000 )  
               a(3) = (  -0.500000   0.500000   0.000000 )  

     reciprocal axes: (cart. coord. in units 2 pi/alat)
               b(1) = ( -1.000000 -1.000000  1.000000 )  
               b(2) = (  1.000000  1.000000  1.000000 )  
               b(3) = ( -1.000000  1.000000 -1.000000 )  


     PseudoPot. # 1 for Au read from file:
     /home/lorenzo/pseudos/Au/Au.pbesol-n-kjpaw_psl.1.0.0.UPF
     MD5 check sum: abc371be705c47a6b6a6b4088b452d3e
     Pseudo is Projector augmented-wave + core cor, Zval = 11.0
     Generated using "atomic" code by A. Dal Corso v.6.3
     Shape of augmentation charge: PSQ
     Using radial grid of 1279 points,  6 beta functions with: 
                l(1) =   0
                l(2) =   0
                l(3) =   1
                l(4) =   1
                l(5) =   2
                l(6) =   2
     Q(r) pseudized with 0 coefficients 


     atomic species   valence    mass     pseudopotential
        Au            11.00   196.96600     Au( 1.00)

     48 Sym. Ops., with inversion, found



   Cartesian axes

     site n.     atom                  positions (alat units)
         1           Au  tau(   1) = (   0.0000000   0.0000000   0.0000000  )

     number of k points=    56  gaussian smearing, width (Ry)=  0.0100
                       cart. coord. in units 2pi/alat
        k(    1) = (   0.0000000   0.0000000   0.0000000), wk =   0.0015026
        k(    2) = (  -0.0909091   0.0909091  -0.0909091), wk =   0.0120210
        k(    3) = (  -0.1818182   0.1818182  -0.1818182), wk =   0.0120210
        k(    4) = (  -0.2727273   0.2727273  -0.2727273), wk =   0.0120210
        k(    5) = (  -0.3636364   0.3636364  -0.3636364), wk =   0.0120210
        k(    6) = (  -0.4545455   0.4545455  -0.4545455), wk =   0.0120210
        k(    7) = (   0.0000000   0.1818182   0.0000000), wk =   0.0090158
        k(    8) = (  -0.0909091   0.2727273  -0.0909091), wk =   0.0360631
        k(    9) = (  -0.1818182   0.3636364  -0.1818182), wk =   0.0360631
        k(   10) = (  -0.2727273   0.4545455  -0.2727273), wk =   0.0360631
        k(   11) = (  -0.3636364   0.5454545  -0.3636364), wk =   0.0360631
        k(   12) = (   0.5454545  -0.3636364   0.5454545), wk =   0.0360631
        k(   13) = (   0.4545455  -0.2727273   0.4545455), wk =   0.0360631
        k(   14) = (   0.3636364  -0.1818182   0.3636364), wk =   0.0360631
        k(   15) = (   0.2727273  -0.0909091   0.2727273), wk =   0.0360631
        k(   16) = (   0.1818182  -0.0000000   0.1818182), wk =   0.0180316
        k(   17) = (   0.0000000   0.3636364   0.0000000), wk =   0.0090158
        k(   18) = (  -0.0909091   0.4545455  -0.0909091), wk =   0.0360631
        k(   19) = (  -0.1818182   0.5454545  -0.1818182), wk =   0.0360631
        k(   20) = (  -0.2727273   0.6363636  -0.2727273), wk =   0.0360631
        k(   21) = (   0.6363636  -0.2727273   0.6363636), wk =   0.0360631
        k(   22) = (   0.5454545  -0.1818182   0.5454545), wk =   0.0360631
        k(   23) = (   0.4545455  -0.0909091   0.4545455), wk =   0.0360631
        k(   24) = (   0.3636364   0.0000000   0.3636364), wk =   0.0180316
        k(   25) = (   0.0000000   0.5454545   0.0000000), wk =   0.0090158
        k(   26) = (  -0.0909091   0.6363636  -0.0909091), wk =   0.0360631
        k(   27) = (  -0.1818182   0.7272727  -0.1818182), wk =   0.0360631
        k(   28) = (   0.7272727  -0.1818182   0.7272727), wk =   0.0360631
        k(   29) = (   0.6363636  -0.0909091   0.6363636), wk =   0.0360631
        k(   30) = (   0.5454545   0.0000000   0.5454545), wk =   0.0180316
        k(   31) = (   0.0000000   0.7272727   0.0000000), wk =   0.0090158
        k(   32) = (  -0.0909091   0.8181818  -0.0909091), wk =   0.0360631
        k(   33) = (   0.8181818  -0.0909091   0.8181818), wk =   0.0360631
        k(   34) = (   0.7272727   0.0000000   0.7272727), wk =   0.0180316
        k(   35) = (   0.0000000   0.9090909   0.0000000), wk =   0.0090158
        k(   36) = (   0.9090909  -0.0000000   0.9090909), wk =   0.0180316
        k(   37) = (  -0.1818182   0.3636364   0.0000000), wk =   0.0360631
        k(   38) = (  -0.2727273   0.4545455  -0.0909091), wk =   0.0721262
        k(   39) = (  -0.3636364   0.5454545  -0.1818182), wk =   0.0721262
        k(   40) = (   0.5454545  -0.3636364   0.7272727), wk =   0.0721262
        k(   41) = (  -0.1818182   0.5454545   0.0000000), wk =   0.0360631
        k(   42) = (  -0.2727273   0.6363636  -0.0909091), wk =   0.0721262
        k(   43) = (   0.6363636  -0.2727273   0.8181818), wk =   0.0721262
        k(   44) = (   0.5454545  -0.1818182   0.7272727), wk =   0.0721262
        k(   45) = (   0.4545455  -0.0909091   0.6363636), wk =   0.0721262
        k(   46) = (   0.3636364   0.0000000   0.5454545), wk =   0.0360631
        k(   47) = (  -0.1818182   0.7272727   0.0000000), wk =   0.0360631
        k(   48) = (   0.7272727  -0.1818182   0.9090909), wk =   0.0721262
        k(   49) = (   0.6363636  -0.0909091   0.8181818), wk =   0.0721262
        k(   50) = (   0.5454545   0.0000000   0.7272727), wk =   0.0360631
        k(   51) = (   0.8181818  -0.0909091   1.0000000), wk =   0.0360631
        k(   52) = (   0.7272727   0.0000000   0.9090909), wk =   0.0360631
        k(   53) = (   0.6363636  -0.2727273   1.0000000), wk =   0.0360631
        k(   54) = (   0.5454545  -0.1818182   0.9090909), wk =   0.0721262
        k(   55) = (   0.6363636  -0.0909091   1.0000000), wk =   0.0360631
        k(   56) = (   0.5454545   0.0000000   0.9090909), wk =   0.0360631

     Dense  grid:     7991 G-vectors     FFT dimensions: (  27,  27,  27)

     Estimated max dynamical RAM per process >       9.27 MB

     Estimated total dynamical RAM >      46.36 MB

     Initial potential from superposition of free atoms

     starting charge   10.99990, renormalised to   11.00000
     Starting wfcs are    9 randomized atomic wfcs +    1 random wfcs
     Checking if some PAW data can be deallocated... 

     total cpu time spent up to now is        1.5 secs

     Self-consistent Calculation

     iteration #  1     ecut=    65.00 Ry     beta= 0.70
     Davidson diagonalization with overlap
     ethr =  1.00E-02,  avg # of iterations =  5.2

     Threshold (ethr) on eigenvalues was too large:
     Diagonalizing with lowered threshold

     Davidson diagonalization with overlap
     ethr =  5.65E-04,  avg # of iterations =  1.5

     total cpu time spent up to now is        3.0 secs

     total energy              =    -764.66125359 Ry
     Harris-Foulkes estimate   =    -764.70289993 Ry
     estimated scf accuracy    <       0.06336144 Ry

     iteration #  2     ecut=    65.00 Ry     beta= 0.70
     Davidson diagonalization with overlap
     ethr =  5.76E-04,  avg # of iterations =  4.9

     total cpu time spent up to now is        4.2 secs

     total energy              =    -731.34919978 Ry
     Harris-Foulkes estimate   =    -771.50824882 Ry
     estimated scf accuracy    <  125969.42231410 Ry

     iteration #  3     ecut=    65.00 Ry     beta= 0.70
     Davidson diagonalization with overlap
     ethr =  5.76E-04,  avg # of iterations =  6.8

     total cpu time spent up to now is        5.3 secs

     total energy              =    -764.67811577 Ry
     Harris-Foulkes estimate   =    -764.69099769 Ry
     estimated scf accuracy    <       0.02406068 Ry

     iteration #  4     ecut=    65.00 Ry     beta= 0.70
     Davidson diagonalization with overlap
     ethr =  2.19E-04,  avg # of iterations =  1.5

     total cpu time spent up to now is        5.9 secs

     total energy              =    -764.68225925 Ry
     Harris-Foulkes estimate   =    -764.68233092 Ry
     estimated scf accuracy    <       0.00329441 Ry

     iteration #  5     ecut=    65.00 Ry     beta= 0.70
     Davidson diagonalization with overlap
     ethr =  2.99E-05,  avg # of iterations =  3.2

     total cpu time spent up to now is        6.7 secs

     total energy              =    -764.68292650 Ry
     Harris-Foulkes estimate   =    -764.68304833 Ry
     estimated scf accuracy    <       0.00301955 Ry

     iteration #  6     ecut=    65.00 Ry     beta= 0.70
     Davidson diagonalization with overlap
     ethr =  2.75E-05,  avg # of iterations =  1.1

     total cpu time spent up to now is        7.2 secs

     total energy              =    -764.68290533 Ry
     Harris-Foulkes estimate   =    -764.68295808 Ry
     estimated scf accuracy    <       0.00279733 Ry

     iteration #  7     ecut=    65.00 Ry     beta= 0.70
     Davidson diagonalization with overlap
     ethr =  2.54E-05,  avg # of iterations =  1.0

     total cpu time spent up to now is        7.8 secs

     total energy              =    -764.68292897 Ry
     Harris-Foulkes estimate   =    -764.68295164 Ry
     estimated scf accuracy    <       0.00284125 Ry

     iteration #  8     ecut=    65.00 Ry     beta= 0.70
     Davidson diagonalization with overlap
     ethr =  2.54E-05,  avg # of iterations =  1.0

     total cpu time spent up to now is        8.4 secs

     total energy              =    -764.68293822 Ry
     Harris-Foulkes estimate   =    -764.68293898 Ry
     estimated scf accuracy    <       0.00280064 Ry

     iteration #  9     ecut=    65.00 Ry     beta= 0.70
     Davidson diagonalization with overlap
     ethr =  2.54E-05,  avg # of iterations =  1.0

     total cpu time spent up to now is        9.1 secs

     total energy              =    -764.68293825 Ry
     Harris-Foulkes estimate   =    -764.68293881 Ry
     estimated scf accuracy    <       0.00278291 Ry

     iteration # 10     ecut=    65.00 Ry     beta= 0.70
     Davidson diagonalization with overlap
     ethr =  2.53E-05,  avg # of iterations =  1.0

     total cpu time spent up to now is        9.7 secs

     total energy              =    -764.68293743 Ry
     Harris-Foulkes estimate   =    -764.68293846 Ry
     estimated scf accuracy    <       0.00277561 Ry

     iteration # 11     ecut=    65.00 Ry     beta= 0.70
     Davidson diagonalization with overlap
     ethr =  2.52E-05,  avg # of iterations =  1.0

     total cpu time spent up to now is       10.7 secs

     total energy              =    -764.68371114 Ry
     Harris-Foulkes estimate   =    -764.68293752 Ry
     estimated scf accuracy    <       0.00276029 Ry

     iteration # 12     ecut=    65.00 Ry     beta= 0.70
     Davidson diagonalization with overlap
     ethr =  2.51E-05,  avg # of iterations =  3.1

     total cpu time spent up to now is       11.7 secs

     total energy              =    -764.68291272 Ry
     Harris-Foulkes estimate   =    -764.68517436 Ry
     estimated scf accuracy    <       0.00602612 Ry

     iteration # 13     ecut=    65.00 Ry     beta= 0.70
     Davidson diagonalization with overlap
     ethr =  2.51E-05,  avg # of iterations =  1.3

     total cpu time spent up to now is       12.3 secs

     total energy              =    -764.68220058 Ry
     Harris-Foulkes estimate   =    -764.68324076 Ry
     estimated scf accuracy    <       0.00150221 Ry

     iteration # 14     ecut=    65.00 Ry     beta= 0.70
     Davidson diagonalization with overlap
     ethr =  1.37E-05,  avg # of iterations =  2.5

     total cpu time spent up to now is       13.0 secs

     total energy              =    -764.68277211 Ry
     Harris-Foulkes estimate   =    -764.68283080 Ry
     estimated scf accuracy    <       0.00019144 Ry

     iteration # 15     ecut=    65.00 Ry     beta= 0.70
     Davidson diagonalization with overlap
     ethr =  1.74E-06,  avg # of iterations =  1.9

     total cpu time spent up to now is       13.6 secs

     total energy              =    -764.68276837 Ry
     Harris-Foulkes estimate   =    -764.68278979 Ry
     estimated scf accuracy    <       0.00005486 Ry

     iteration # 16     ecut=    65.00 Ry     beta= 0.70
     Davidson diagonalization with overlap
     ethr =  4.99E-07,  avg # of iterations =  2.1

     total cpu time spent up to now is       14.2 secs

     total energy              =    -764.68278041 Ry
     Harris-Foulkes estimate   =    -764.68278072 Ry
     estimated scf accuracy    <       0.00000079 Ry

     iteration # 17     ecut=    65.00 Ry     beta= 0.70
     Davidson diagonalization with overlap
     ethr =  7.22E-09,  avg # of iterations =  3.7

     total cpu time spent up to now is       15.1 secs

     total energy              =    -764.68278246 Ry
     Harris-Foulkes estimate   =    -764.68278145 Ry
     estimated scf accuracy    <       0.00000086 Ry

     iteration # 18     ecut=    65.00 Ry     beta= 0.70
     Davidson diagonalization with overlap
     ethr =  7.22E-09,  avg # of iterations =  2.7

     total cpu time spent up to now is       15.9 secs

     total energy              =    -764.68278144 Ry
     Harris-Foulkes estimate   =    -764.68278276 Ry
     estimated scf accuracy    <       0.00000249 Ry

     iteration # 19     ecut=    65.00 Ry     beta= 0.70
     Davidson diagonalization with overlap
     ethr =  7.22E-09,  avg # of iterations =  2.1

     total cpu time spent up to now is       16.6 secs

     total energy              =    -764.68278169 Ry
     Harris-Foulkes estimate   =    -764.68278175 Ry
     estimated scf accuracy    <       0.00000011 Ry

     iteration # 20     ecut=    65.00 Ry     beta= 0.70
     Davidson diagonalization with overlap
     ethr =  9.77E-10,  avg # of iterations =  2.9

     total cpu time spent up to now is       17.4 secs

     End of self-consistent calculation

          k = 0.0000 0.0000 0.0000 (   965 PWs)   bands (ev):

     5.8126  11.0804  11.0804  11.0804  12.6177  12.6177  31.1339  34.9829
    34.9829  34.9829

          k =-0.0909 0.0909-0.0909 (   992 PWs)   bands (ev):

     6.0990  10.9903  11.1770  11.1770  12.5779  12.5779  31.4152  33.1653
    35.2578  35.2578

          k =-0.1818 0.1818-0.1818 (   989 PWs)   bands (ev):

     6.8871  10.8412  11.3514  11.3514  12.5831  12.5831  29.7292  32.2184
    35.8568  35.8568

          k =-0.2727 0.2727-0.2727 (  1007 PWs)   bands (ev):

     7.8443  11.0628  11.3391  11.3391  12.8961  12.8961  26.1506  31.9047
    35.7499  35.7499

          k =-0.3636 0.3636-0.3636 (  1008 PWs)   bands (ev):

     8.3389  11.1798  11.1798  12.3200  13.4076  13.4076  22.5124  31.0341
    34.4473  34.4473

          k =-0.4545 0.4545-0.4545 (  1020 PWs)   bands (ev):

     8.4125  11.0601  11.0601  13.7777  13.7777  14.2560  19.4801  30.4833
    33.4671  33.4671

          k = 0.0000 0.1818 0.0000 (   994 PWs)   bands (ev):

     6.1955  10.8844  11.2553  11.2553  12.4094  12.7035  31.5706  33.7543
    34.5344  34.5344

          k =-0.0909 0.2727-0.0909 (   994 PWs)   bands (ev):

     6.8251  10.6828  11.4453  11.4605  12.2668  12.7966  31.0005  32.2791
    34.1093  35.3609

          k =-0.1818 0.3636-0.1818 (  1008 PWs)   bands (ev):

     7.7819  10.6337  11.3839  11.5412  12.6042  13.0669  27.5258  32.2483
    33.6006  35.8223

          k =-0.2727 0.4545-0.2727 (  1011 PWs)   bands (ev):

     8.4705  11.1216  11.2731  11.4222  13.4832  13.5108  23.8162  31.4377
    32.9057  34.4202

          k =-0.3636 0.5455-0.3636 (  1017 PWs)   bands (ev):

     8.6181  10.9470  11.2701  12.3874  13.8216  14.8912  20.4170  30.7272
    32.5135  32.9122

          k = 0.5455-0.3636 0.5455 (  1007 PWs)   bands (ev):

     8.6263  10.9136  11.2049  12.8604  13.7596  15.8871  18.9387  30.4557
    32.0727  32.9524

          k = 0.4545-0.2727 0.4545 (  1017 PWs)   bands (ev):

     8.6147  11.0249  11.2692  12.2064  13.3201  14.5905  21.5120  30.6414
    32.1990  34.3912

          k = 0.3636-0.1818 0.3636 (  1012 PWs)   bands (ev):

     8.3263  10.9834  11.3060  11.4356  12.7132  13.6772  25.0562  31.1572
    33.2039  36.6784

          k = 0.2727-0.0909 0.2727 (  1003 PWs)   bands (ev):

     7.4549  10.6703  11.4157  11.5258  12.2960  13.0465  28.6818  31.6562
    34.4059  36.3776

          k = 0.1818-0.0000 0.1818 (   993 PWs)   bands (ev):

     6.5589  10.8244  11.3191  11.3473  12.3735  12.7173  31.6873  31.7122
    34.3183  36.4496

          k = 0.0000 0.3636 0.0000 (   998 PWs)   bands (ev):

     7.2603  10.3909  11.7635  11.7635  11.9380  12.9387  32.4979  32.6907
    32.7294  32.7294

          k =-0.0909 0.4545-0.0909 (  1004 PWs)   bands (ev):

     8.0675  10.1566  11.4978  12.0017  12.4888  13.1720  29.1660  31.6418
    32.5380  33.7745

          k =-0.1818 0.5455-0.1818 (  1010 PWs)   bands (ev):

     8.8383  10.2653  11.1373  11.9662  13.5853  13.6624  25.3475  30.8833
    31.2056  33.1988

          k =-0.2727 0.6364-0.2727 (  1012 PWs)   bands (ev):

     9.0759  10.6379  11.2391  11.8060  13.8748  15.4240  21.7344  29.7604
    30.6904  32.5418

          k = 0.6364-0.2727 0.6364 (  1010 PWs)   bands (ev):

     9.1365  10.5993  11.6781  11.7981  13.7781  17.5701  18.9127  28.6098
    31.3401  32.0818

          k = 0.5455-0.1818 0.5455 (  1018 PWs)   bands (ev):

     9.2149  10.6866  11.6431  11.6585  13.2939  16.2393  20.9613  28.0069
    32.1138  32.8888

          k = 0.4545-0.0909 0.4545 (  1010 PWs)   bands (ev):

     9.1443  10.6944  11.0643  11.7714  12.6185  14.8483  24.2591  28.1321
    32.7499  35.1166

          k = 0.3636 0.0000 0.3636 (  1009 PWs)   bands (ev):

     8.3979  10.4651  11.2806  11.9675  12.0092  13.8246  27.2553  29.2506
    33.9924  35.7617

          k = 0.0000 0.5455 0.0000 (  1018 PWs)   bands (ev):

     8.5209   9.8031  11.8651  12.5398  12.5398  13.2590  30.0632  30.0632
    31.1192  32.3338

          k =-0.0909 0.6364-0.0909 (  1017 PWs)   bands (ev):

     8.9596   9.6299  11.8519  12.7097  13.5972  13.6505  26.8284  29.0116
    29.1849  33.1355

          k =-0.1818 0.7273-0.1818 (  1018 PWs)   bands (ev):

     9.1939   9.8239  11.6634  12.5716  13.9193  15.6379  23.2099  27.4961
    28.7101  33.2930

          k = 0.7273-0.1818 0.7273 (  1012 PWs)   bands (ev):

     9.3559  10.1904  11.5106  12.3880  13.8378  18.1646  20.1508  25.9682
    29.3435  33.0430

          k = 0.6364-0.0909 0.6364 (  1005 PWs)   bands (ev):

     9.6193  10.4734  11.2198  12.2388  13.3768  17.8025  21.1150  24.8255
    30.8545  32.7993

          k = 0.5455 0.0000 0.5455 (  1015 PWs)   bands (ev):

     9.7892  10.6556  10.7595  12.0937  12.8300  16.1778  23.6723  25.0135
    32.7168  32.9342

          k = 0.0000 0.7273 0.0000 (  1026 PWs)   bands (ev):

     8.8620   9.3101  13.4199  13.4199  13.4626  13.5667  26.3273  27.6273
    27.6273  32.4081

          k =-0.0909 0.8182-0.0909 (  1010 PWs)   bands (ev):

     8.9032   9.2496  13.0360  13.3630  13.9485  15.6440  23.7390  26.1147
    27.0525  33.2821

          k = 0.8182-0.0909 0.8182 (  1017 PWs)   bands (ev):

     9.0802   9.5292  12.4642  13.1423  13.9452  18.2300  21.2846  24.3377
    27.5105  33.7244

          k = 0.7273 0.0000 0.7273 (  1011 PWs)   bands (ev):

     9.3704  10.0536  11.7301  12.7916  13.6273  19.2876  20.9284  23.0079
    28.9024  33.4137

          k = 0.0000 0.9091 0.0000 (  1006 PWs)   bands (ev):

     8.6945   9.0348  13.7563  14.0647  14.0647  16.0755  22.3341  26.1445
    26.1445  32.7171

          k = 0.9091-0.0000 0.9091 (  1013 PWs)   bands (ev):

     8.7840   9.1123  13.5678  13.6322  14.0981  17.5322  21.3055  25.1526
    26.3138  33.4361

          k =-0.1818 0.3636 0.0000 (  1004 PWs)   bands (ev):

     7.5685  10.4467  11.4601  11.7698  12.1849  13.0968  29.7078  31.1078
    34.2366  34.6142

          k =-0.2727 0.4545-0.0909 (  1014 PWs)   bands (ev):

     8.5132  10.4175  11.1775  11.8576  12.5932  13.7691  26.4971  30.1313
    32.8346  35.2545

          k =-0.3636 0.5455-0.1818 (  1011 PWs)   bands (ev):

     8.9778  10.8708  11.0776  11.7122  13.2974  14.8253  22.8889  29.6911
    31.4261  34.2974

          k = 0.5455-0.3636 0.7273 (  1015 PWs)   bands (ev):

     9.0119  10.6876  11.5400  11.9482  13.6984  16.5268  19.6922  29.7646
    30.4039  33.2521

          k =-0.1818 0.5455 0.0000 (  1013 PWs)   bands (ev):

     8.7958   9.9353  11.2857  12.5338  12.6875  13.7490  27.6629  29.0874
    31.2389  34.9916

          k =-0.2727 0.6364-0.0909 (  1020 PWs)   bands (ev):

     9.3355  10.0670  11.0157  12.4568  13.3777  14.9732  24.3945  28.0759
    29.6456  34.6443

          k = 0.6364-0.2727 0.8182 (  1013 PWs)   bands (ev):

     9.4571  10.3582  11.1092  12.2424  13.7452  16.9232  21.0896  27.6384
    28.6909  34.1443

          k = 0.5455-0.1818 0.7273 (  1019 PWs)   bands (ev):

     9.5836  10.3466  11.3355  12.0783  13.6363  18.3398  19.5066  26.7460
    29.2513  34.0670

          k = 0.4545-0.0909 0.6364 (  1017 PWs)   bands (ev):

     9.7120  10.4858  10.8254  12.1730  13.1915  16.3197  22.5051  26.2991
    30.4235  34.7526

          k = 0.3636 0.0000 0.5455 (  1015 PWs)   bands (ev):

     9.4276  10.2801  10.8226  12.2990  12.5717  14.8938  25.2424  27.1578
    31.6709  36.9610

          k =-0.1818 0.7273 0.0000 (  1021 PWs)   bands (ev):

     9.1432   9.4945  11.9643  13.3468  13.4140  15.0543  25.1221  26.9128
    27.7380  34.3374

          k = 0.7273-0.1818 0.9091 (  1018 PWs)   bands (ev):

     9.3153   9.7006  11.7331  13.0208  13.8569  17.1472  22.4498  25.5489
    27.0486  34.8835

          k = 0.6364-0.0909 0.8182 (  1020 PWs)   bands (ev):

     9.5387  10.1040  11.3893  12.6446  13.7974  19.3786  20.3856  24.0967
    27.7318  34.7812

          k = 0.5455 0.0000 0.7273 (  1012 PWs)   bands (ev):

     9.8783  10.4040  10.8502  12.4318  13.4373  17.8852  22.8992  23.0306
    29.0659  34.7645

          k = 0.8182-0.0909 1.0000 (  1013 PWs)   bands (ev):

     8.9522   9.2458  12.8886  13.5164  14.0640  17.3697  22.0232  25.5240
    25.8113  34.3818

          k = 0.7273 0.0000 0.9091 (  1018 PWs)   bands (ev):

     9.2019   9.5670  12.2359  13.1056  14.0578  19.4277  20.6674  23.9158
    26.3570  35.1203

          k = 0.6364-0.2727 1.0000 (  1028 PWs)   bands (ev):

     9.8555  10.0315  10.7547  12.8046  13.4060  16.5692  23.5786  25.1781
    28.2077  36.6232

          k = 0.5455-0.1818 0.9091 (  1018 PWs)   bands (ev):

     9.9612  10.1937  10.7956  12.5140  13.7703  18.5377  21.3005  24.7092
    27.0659  36.3831

          k = 0.6364-0.0909 1.0000 (  1016 PWs)   bands (ev):

     9.5635   9.8730  11.4212  12.8185  14.0619  19.0980  21.7900  23.8939
    25.5545  37.6533

          k = 0.5455 0.0000 0.9091 (  1022 PWs)   bands (ev):

     9.7795  10.3107  10.8935  12.5126  14.0584  20.0186  21.7186  22.6690
    25.7755  37.5290

     the Fermi energy is    15.7871 ev

!    total energy              =    -764.68278173 Ry
     Harris-Foulkes estimate   =    -764.68278173 Ry
     estimated scf accuracy    <          5.6E-09 Ry

     total all-electron energy =    -38013.517244 Ry

     The total energy is the sum of the following terms:

     one-electron contribution =      13.86350246 Ry
     hartree contribution      =       7.57430077 Ry
     xc contribution           =     -31.82080588 Ry
     ewald contribution        =     -71.95438534 Ry
     one-center paw contrib.   =    -682.34526987 Ry
     smearing contrib. (-TS)   =      -0.00012387 Ry

     convergence has been achieved in  20 iterations

     Forces acting on atoms (cartesian axes, Ry/au):

     atom    1 type  1   force =     0.00000000    0.00000000    0.00000000

     Total force =     0.000000     Total SCF correction =     0.000000


     Computing stress (Cartesian axis) and pressure

          total   stress  (Ry/bohr**3)                   (kbar)     P=   12.17
   0.00008271   0.00000000   0.00000000         12.17      0.00      0.00
   0.00000000   0.00008271   0.00000000          0.00     12.17      0.00
   0.00000000   0.00000000   0.00008271          0.00      0.00     12.17


     Writing output data file Au.save/

     init_run     :      0.52s CPU      0.55s WALL (       1 calls)
     electrons    :     15.08s CPU     15.88s WALL (       1 calls)
     forces       :      0.06s CPU      0.06s WALL (       1 calls)
     stress       :      0.22s CPU      0.22s WALL (       1 calls)

     Called by init_run:
     wfcinit      :      0.20s CPU      0.20s WALL (       1 calls)
     potinit      :      0.11s CPU      0.13s WALL (       1 calls)
     hinit0       :      0.18s CPU      0.19s WALL (       1 calls)

     Called by electrons:
     c_bands      :     10.75s CPU     11.21s WALL (      21 calls)
     sum_band     :      1.98s CPU      2.04s WALL (      21 calls)
     v_of_rho     :      0.10s CPU      0.10s WALL (      21 calls)
     newd         :      0.19s CPU      0.21s WALL (      21 calls)
     PAW_pot      :      2.15s CPU      2.42s WALL (      21 calls)
     mix_rho      :      0.02s CPU      0.02s WALL (      21 calls)

     Called by c_bands:
     init_us_2    :      0.31s CPU      0.33s WALL (    2520 calls)
     cegterg      :     10.24s CPU     10.69s WALL (    1176 calls)

     Called by sum_band:
     sum_band:bec :      0.01s CPU      0.01s WALL (    1176 calls)
     addusdens    :      0.15s CPU      0.16s WALL (      21 calls)

     Called by *egterg:
     h_psi        :      7.72s CPU      8.06s WALL (    4117 calls)
     s_psi        :      0.25s CPU      0.26s WALL (    4117 calls)
     g_psi        :      0.02s CPU      0.03s WALL (    2885 calls)
     cdiaghg      :      0.96s CPU      1.00s WALL (    4005 calls)

     Called by h_psi:
     h_psi:pot    :      7.68s CPU      8.02s WALL (    4117 calls)
     h_psi:calbec :      0.40s CPU      0.42s WALL (    4117 calls)
     vloc_psi     :      6.99s CPU      7.30s WALL (    4117 calls)
     add_vuspsi   :      0.26s CPU      0.27s WALL (    4117 calls)

     General routines
     calbec       :      0.56s CPU      0.59s WALL (    5573 calls)
     fft          :      0.06s CPU      0.07s WALL (     258 calls)
     ffts         :      0.00s CPU      0.00s WALL (      21 calls)
     fftw         :      7.90s CPU      8.23s WALL (   72910 calls)

     Parallel routines
     fft_scatt_xy :      0.63s CPU      0.66s WALL (   73189 calls)
     fft_scatt_yz :      2.30s CPU      2.38s WALL (   73189 calls)

     PWSCF        :    16.84s CPU        17.75s WALL


   This run was terminated on:  11:58:38  26Mar2024            

=------------------------------------------------------------------------------=
   JOB DONE.
=------------------------------------------------------------------------------=
