
     Program PWSCF v.6.3MaX starts on 26Mar2024 at 12:35:29 

     This program is part of the open-source Quantum ESPRESSO suite
     for quantum simulation of materials; please cite
         "P. Giannozzi et al., J. Phys.:Condens. Matter 21 395502 (2009);
         "P. Giannozzi et al., J. Phys.:Condens. Matter 29 465901 (2017);
          URL http://www.quantum-espresso.org", 
     in publications or presentations arising from this work. More details at
     http://www.quantum-espresso.org/quote

     Parallel version (MPI), running on     5 processors

     MPI processes distributed on     1 nodes
     R & G space division:  proc/nbgrp/npool/nimage =       5
     Waiting for input...
     Reading input from standard input

     Current dimensions of program PWSCF are:
     Max number of different atomic species (ntypx) = 10
     Max number of k-points (npk) =  40000
     Max angular momentum in pseudopotentials (lmaxx) =  3

     Subspace diagonalization in iterative solution of the eigenvalue problem:
     a serial algorithm will be used


     Parallelization info
     --------------------
     sticks:   dense  smooth     PW     G-vecs:    dense   smooth      PW
     Min         149     149     37                 2664     2664     327
     Max         149     149     38                 2665     2665     329
     Sum         745     745    187                13323    13323    1639



     bravais-lattice index     =            2
     lattice parameter (alat)  =       7.7100  a.u.
     unit-cell volume          =     114.5785 (a.u.)^3
     number of atoms/cell      =            1
     number of atomic types    =            1
     number of electrons       =        11.00
     number of Kohn-Sham states=           10
     kinetic-energy cutoff     =      90.0000  Ry
     charge density cutoff     =     360.0000  Ry
     convergence threshold     =      1.0E-08
     mixing beta               =       0.7000
     number of iterations used =            8  plain     mixing
     Exchange-correlation      = PBESOL ( 1  4 10  8 0 0)

     celldm(1)=   7.710000  celldm(2)=   0.000000  celldm(3)=   0.000000
     celldm(4)=   0.000000  celldm(5)=   0.000000  celldm(6)=   0.000000

     crystal axes: (cart. coord. in units of alat)
               a(1) = (  -0.500000   0.000000   0.500000 )  
               a(2) = (   0.000000   0.500000   0.500000 )  
               a(3) = (  -0.500000   0.500000   0.000000 )  

     reciprocal axes: (cart. coord. in units 2 pi/alat)
               b(1) = ( -1.000000 -1.000000  1.000000 )  
               b(2) = (  1.000000  1.000000  1.000000 )  
               b(3) = ( -1.000000  1.000000 -1.000000 )  


     PseudoPot. # 1 for Au read from file:
     /home/lorenzo/pseudos/Au/Au.pbesol-n-rrkjus_psl.1.0.0.UPF
     MD5 check sum: 09626e9411213730b9a56fcc59c03ca8
     Pseudo is Ultrasoft + core correction, Zval = 11.0
     Generated using "atomic" code by A. Dal Corso v.6.3
     Using radial grid of 1279 points,  6 beta functions with: 
                l(1) =   0
                l(2) =   0
                l(3) =   1
                l(4) =   1
                l(5) =   2
                l(6) =   2
     Q(r) pseudized with 0 coefficients 


     atomic species   valence    mass     pseudopotential
        Au            11.00   196.96600     Au( 1.00)

     48 Sym. Ops., with inversion, found



   Cartesian axes

     site n.     atom                  positions (alat units)
         1           Au  tau(   1) = (   0.0000000   0.0000000   0.0000000  )

     number of k points=     1  gaussian smearing, width (Ry)=  0.0100
                       cart. coord. in units 2pi/alat
        k(    1) = (   0.0000000   0.0000000   0.0000000), wk =   2.0000000

     Dense  grid:    13323 G-vectors     FFT dimensions: (  36,  36,  36)

     Estimated max dynamical RAM per process >      12.00 MB

     Estimated total dynamical RAM >      60.01 MB

     Initial potential from superposition of free atoms

     starting charge   10.99990, renormalised to   11.00000
     Starting wfcs are    9 randomized atomic wfcs +    1 random wfcs

     total cpu time spent up to now is        1.2 secs

     Self-consistent Calculation

     iteration #  1     ecut=    90.00 Ry     beta= 0.70
     Davidson diagonalization with overlap
     ethr =  1.00E-02,  avg # of iterations = 12.0

     Threshold (ethr) on eigenvalues was too large:
     Diagonalizing with lowered threshold

     Davidson diagonalization with overlap
     ethr =  9.48E-04,  avg # of iterations =  1.0

     negative rho (up, down):  8.339E-03 0.000E+00

     total cpu time spent up to now is        1.3 secs

     total energy              =     -85.99121276 Ry
     Harris-Foulkes estimate   =     -86.04476960 Ry
     estimated scf accuracy    <       0.10478341 Ry

     iteration #  2     ecut=    90.00 Ry     beta= 0.70
     Davidson diagonalization with overlap
     ethr =  9.53E-04,  avg # of iterations =  2.0

     negative rho (up, down):  7.784E-02 0.000E+00

     total cpu time spent up to now is        1.3 secs

     total energy              =     -86.02559866 Ry
     Harris-Foulkes estimate   =     -86.00486884 Ry
     estimated scf accuracy    <       0.01629533 Ry

     iteration #  3     ecut=    90.00 Ry     beta= 0.70
     Davidson diagonalization with overlap
     ethr =  1.48E-04,  avg # of iterations =  5.0

     negative rho (up, down):  1.131E-02 0.000E+00

     total cpu time spent up to now is        1.4 secs

     total energy              =     -95.98570547 Ry
     Harris-Foulkes estimate   =    -230.52515450 Ry
     estimated scf accuracy    <  212898.92433922 Ry

     iteration #  4     ecut=    90.00 Ry     beta= 0.70
     Davidson diagonalization with overlap
     ethr =  1.48E-04,  avg # of iterations =  3.0

     negative rho (up, down):  9.867E-03 0.000E+00

     total cpu time spent up to now is        1.5 secs

     total energy              =     -97.91567174 Ry
     Harris-Foulkes estimate   =    -101.02467006 Ry
     estimated scf accuracy    <  152974.44849822 Ry

     iteration #  5     ecut=    90.00 Ry     beta= 0.70
     Davidson diagonalization with overlap
     ethr =  1.48E-04,  avg # of iterations =  2.0

     negative rho (up, down):  1.218E-02 0.000E+00

     total cpu time spent up to now is        1.5 secs

     total energy              =    -102.79228901 Ry
     Harris-Foulkes estimate   =     -97.95480537 Ry
     estimated scf accuracy    <  145177.65248698 Ry

     iteration #  6     ecut=    90.00 Ry     beta= 0.70
     Davidson diagonalization with overlap
     ethr =  1.48E-04,  avg # of iterations =  2.0

     total cpu time spent up to now is        1.6 secs

     total energy              =     -59.52527651 Ry
     Harris-Foulkes estimate   =    -102.89392146 Ry
     estimated scf accuracy    <  157045.42177799 Ry

     iteration #  7     ecut=    90.00 Ry     beta= 0.70
     Davidson diagonalization with overlap
     ethr =  1.48E-04,  avg # of iterations =  3.0

     total cpu time spent up to now is        1.6 secs

     total energy              =     -86.04635673 Ry
     Harris-Foulkes estimate   =     -86.01003321 Ry
     estimated scf accuracy    <       0.11737164 Ry

     iteration #  8     ecut=    90.00 Ry     beta= 0.70
     Davidson diagonalization with overlap
     ethr =  1.48E-04,  avg # of iterations =  3.0

     total cpu time spent up to now is        1.7 secs

     total energy              =     -85.95824118 Ry
     Harris-Foulkes estimate   =     -86.06267937 Ry
     estimated scf accuracy    <       0.59940247 Ry

     iteration #  9     ecut=    90.00 Ry     beta= 0.70
     Davidson diagonalization with overlap
     ethr =  1.48E-04,  avg # of iterations =  3.0

     total cpu time spent up to now is        1.8 secs

     total energy              =     -86.00185256 Ry
     Harris-Foulkes estimate   =     -86.00879078 Ry
     estimated scf accuracy    <       0.12531996 Ry

     iteration # 10     ecut=    90.00 Ry     beta= 0.70
     Davidson diagonalization with overlap
     ethr =  1.48E-04,  avg # of iterations =  2.0

     negative rho (up, down):  2.764E-02 0.000E+00

     total cpu time spent up to now is        1.8 secs

     total energy              =     -86.02503307 Ry
     Harris-Foulkes estimate   =     -86.00229851 Ry
     estimated scf accuracy    <       0.09672817 Ry

     iteration # 11     ecut=    90.00 Ry     beta= 0.70
     Davidson diagonalization with overlap
     ethr =  1.48E-04,  avg # of iterations =  6.0

     negative rho (up, down):  2.387E-02 0.000E+00

     total cpu time spent up to now is        1.9 secs

     total energy              =    -113.86848031 Ry
     Harris-Foulkes estimate   =    -119.02870013 Ry
     estimated scf accuracy    <  192707.59315140 Ry

     iteration # 12     ecut=    90.00 Ry     beta= 0.70
     Davidson diagonalization with overlap
     ethr =  1.48E-04,  avg # of iterations =  2.0

     total cpu time spent up to now is        1.9 secs

     total energy              =     -61.71079534 Ry
     Harris-Foulkes estimate   =    -113.89790161 Ry
     estimated scf accuracy    <  188182.23421806 Ry

     iteration # 13     ecut=    90.00 Ry     beta= 0.70
     Davidson diagonalization with overlap
     ethr =  1.48E-04,  avg # of iterations =  5.0

     negative rho (up, down):  1.630E-03 0.000E+00

     total cpu time spent up to now is        2.0 secs

     total energy              =     -86.01328771 Ry
     Harris-Foulkes estimate   =     -86.00862766 Ry
     estimated scf accuracy    <       0.01817895 Ry

     iteration # 14     ecut=    90.00 Ry     beta= 0.70
     Davidson diagonalization with overlap
     ethr =  1.48E-04,  avg # of iterations =  4.0

     negative rho (up, down):  1.536E-04 0.000E+00

     total cpu time spent up to now is        2.1 secs

     total energy              =     -85.99534539 Ry
     Harris-Foulkes estimate   =     -86.03034424 Ry
     estimated scf accuracy    <       4.72187367 Ry

     iteration # 15     ecut=    90.00 Ry     beta= 0.70
     Davidson diagonalization with overlap
     ethr =  1.48E-04,  avg # of iterations =  3.0

     total cpu time spent up to now is        2.1 secs

     total energy              =     -86.00706830 Ry
     Harris-Foulkes estimate   =     -86.01459601 Ry
     estimated scf accuracy    <       0.20522744 Ry

     iteration # 16     ecut=    90.00 Ry     beta= 0.70
     Davidson diagonalization with overlap
     ethr =  1.48E-04,  avg # of iterations =  3.0

     total cpu time spent up to now is        2.2 secs

     total energy              =     -86.00936599 Ry
     Harris-Foulkes estimate   =     -86.00999439 Ry
     estimated scf accuracy    <       0.02957273 Ry

     iteration # 17     ecut=    90.00 Ry     beta= 0.70
     Davidson diagonalization with overlap
     ethr =  1.48E-04,  avg # of iterations = 12.0

     total cpu time spent up to now is        2.2 secs

     total energy              =     -86.00959732 Ry
     Harris-Foulkes estimate   =     -86.00947053 Ry
     estimated scf accuracy    <       0.02113422 Ry

     iteration # 18     ecut=    90.00 Ry     beta= 0.70
     Davidson diagonalization with overlap
     ethr =  1.48E-04,  avg # of iterations =  1.0

     total cpu time spent up to now is        2.3 secs

     total energy              =     -86.00960414 Ry
     Harris-Foulkes estimate   =     -86.00961241 Ry
     estimated scf accuracy    <       0.02304420 Ry

     iteration # 19     ecut=    90.00 Ry     beta= 0.70
     Davidson diagonalization with overlap
     ethr =  1.48E-04,  avg # of iterations =  1.0

     total cpu time spent up to now is        2.4 secs

     total energy              =     -86.00944694 Ry
     Harris-Foulkes estimate   =     -86.00960806 Ry
     estimated scf accuracy    <       0.02349582 Ry

     iteration # 20     ecut=    90.00 Ry     beta= 0.70
     Davidson diagonalization with overlap
     ethr =  1.48E-04,  avg # of iterations =  1.0

     total cpu time spent up to now is        2.4 secs

     total energy              =     -86.00841595 Ry
     Harris-Foulkes estimate   =     -86.00944926 Ry
     estimated scf accuracy    <       0.02308182 Ry

     iteration # 21     ecut=    90.00 Ry     beta= 0.70
     Davidson diagonalization with overlap
     ethr =  1.48E-04,  avg # of iterations =  1.0

     total cpu time spent up to now is        2.5 secs

     total energy              =     -86.00840974 Ry
     Harris-Foulkes estimate   =     -86.00856614 Ry
     estimated scf accuracy    <       0.01363317 Ry

     iteration # 22     ecut=    90.00 Ry     beta= 0.70
     Davidson diagonalization with overlap
     ethr =  1.24E-04,  avg # of iterations =  1.0

     total cpu time spent up to now is        2.5 secs

     total energy              =     -86.00829227 Ry
     Harris-Foulkes estimate   =     -86.00842122 Ry
     estimated scf accuracy    <       0.01356029 Ry

     iteration # 23     ecut=    90.00 Ry     beta= 0.70
     Davidson diagonalization with overlap
     ethr =  1.23E-04,  avg # of iterations =  1.0

     total cpu time spent up to now is        2.6 secs

     total energy              =     -86.00619096 Ry
     Harris-Foulkes estimate   =     -86.00830191 Ry
     estimated scf accuracy    <       0.01226181 Ry

     iteration # 24     ecut=    90.00 Ry     beta= 0.70
     Davidson diagonalization with overlap
     ethr =  1.11E-04,  avg # of iterations =  2.0

     total cpu time spent up to now is        2.6 secs

     total energy              =     -86.00556911 Ry
     Harris-Foulkes estimate   =     -86.00674442 Ry
     estimated scf accuracy    <       0.00482852 Ry

     iteration # 25     ecut=    90.00 Ry     beta= 0.70
     Davidson diagonalization with overlap
     ethr =  4.39E-05,  avg # of iterations =  1.0

     total cpu time spent up to now is        2.7 secs

     total energy              =     -86.00469141 Ry
     Harris-Foulkes estimate   =     -86.00569567 Ry
     estimated scf accuracy    <       0.00413736 Ry

     iteration # 26     ecut=    90.00 Ry     beta= 0.70
     Davidson diagonalization with overlap
     ethr =  3.76E-05,  avg # of iterations =  2.0

     total cpu time spent up to now is        2.7 secs

     total energy              =     -86.00482554 Ry
     Harris-Foulkes estimate   =     -86.00488277 Ry
     estimated scf accuracy    <       0.00334445 Ry

     iteration # 27     ecut=    90.00 Ry     beta= 0.70
     Davidson diagonalization with overlap
     ethr =  3.04E-05,  avg # of iterations =  1.0

     total cpu time spent up to now is        2.8 secs

     total energy              =     -86.00489200 Ry
     Harris-Foulkes estimate   =     -86.00485161 Ry
     estimated scf accuracy    <       0.00318505 Ry

     iteration # 28     ecut=    90.00 Ry     beta= 0.70
     Davidson diagonalization with overlap
     ethr =  2.90E-05,  avg # of iterations =  1.0

     total cpu time spent up to now is        2.8 secs

     total energy              =     -86.00472018 Ry
     Harris-Foulkes estimate   =     -86.00491321 Ry
     estimated scf accuracy    <       0.00328662 Ry

     iteration # 29     ecut=    90.00 Ry     beta= 0.70
     Davidson diagonalization with overlap
     ethr =  2.90E-05,  avg # of iterations =  1.0

     negative rho (up, down):  1.256E-03 0.000E+00

     total cpu time spent up to now is        2.9 secs

     total energy              =     -86.00280473 Ry
     Harris-Foulkes estimate   =     -86.00473443 Ry
     estimated scf accuracy    <       0.00309096 Ry

     iteration # 30     ecut=    90.00 Ry     beta= 0.70
     Davidson diagonalization with overlap
     ethr =  2.81E-05,  avg # of iterations =  2.0

     negative rho (up, down):  4.266E-03 0.000E+00

     total cpu time spent up to now is        2.9 secs

     total energy              =     -86.00151358 Ry
     Harris-Foulkes estimate   =     -86.00310904 Ry
     estimated scf accuracy    <       0.00337229 Ry

     iteration # 31     ecut=    90.00 Ry     beta= 0.70
     Davidson diagonalization with overlap
     ethr =  2.81E-05,  avg # of iterations =  5.0

     total cpu time spent up to now is        3.0 secs

     total energy              =     -49.90205375 Ry
     Harris-Foulkes estimate   =     -88.38459265 Ry
     estimated scf accuracy    <  108324.97971123 Ry

     iteration # 32     ecut=    90.00 Ry     beta= 0.70
     Davidson diagonalization with overlap
     ethr =  2.81E-05,  avg # of iterations =  4.0

     negative rho (up, down):  8.233E-03 0.000E+00

     total cpu time spent up to now is        3.1 secs

     total energy              =     -85.98430182 Ry
     Harris-Foulkes estimate   =     -86.00929733 Ry
     estimated scf accuracy    <       0.02340435 Ry

     iteration # 33     ecut=    90.00 Ry     beta= 0.70
     Davidson diagonalization with overlap
     ethr =  2.81E-05,  avg # of iterations =  5.0

     negative rho (up, down):  2.111E-02 0.000E+00

     total cpu time spent up to now is        3.1 secs

     total energy              =    -121.90505871 Ry
     Harris-Foulkes estimate   =     -95.83126089 Ry
     estimated scf accuracy    <  138802.61399335 Ry

     iteration # 34     ecut=    90.00 Ry     beta= 0.70
     Davidson diagonalization with overlap
     ethr =  2.81E-05,  avg # of iterations =  3.0

     negative rho (up, down):  1.878E-02 0.000E+00

     total cpu time spent up to now is        3.2 secs

     total energy              =    -120.68163632 Ry
     Harris-Foulkes estimate   =    -124.37458884 Ry
     estimated scf accuracy    <  184932.91080757 Ry

     iteration # 35     ecut=    90.00 Ry     beta= 0.70
     Davidson diagonalization with overlap
     ethr =  2.81E-05,  avg # of iterations =  2.0

     negative rho (up, down):  1.970E-02 0.000E+00

     total cpu time spent up to now is        3.2 secs

     total energy              =    -122.23347740 Ry
     Harris-Foulkes estimate   =    -120.69705671 Ry
     estimated scf accuracy    <  181787.31900724 Ry

     iteration # 36     ecut=    90.00 Ry     beta= 0.70
     Davidson diagonalization with overlap
     ethr =  2.81E-05,  avg # of iterations =  2.0

     negative rho (up, down):  1.652E-03 0.000E+00

     total cpu time spent up to now is        3.3 secs

     total energy              =     -77.70239928 Ry
     Harris-Foulkes estimate   =    -122.23639041 Ry
     estimated scf accuracy    <  183155.42456076 Ry

     iteration # 37     ecut=    90.00 Ry     beta= 0.70
     Davidson diagonalization with overlap
     ethr =  2.81E-05,  avg # of iterations =  3.0

     negative rho (up, down):  5.465E-03 0.000E+00

     total cpu time spent up to now is        3.3 secs

     total energy              =     -86.00444349 Ry
     Harris-Foulkes estimate   =     -86.00351474 Ry
     estimated scf accuracy    <       0.00651599 Ry

     iteration # 38     ecut=    90.00 Ry     beta= 0.70
     Davidson diagonalization with overlap
     ethr =  2.81E-05,  avg # of iterations =  3.0

     total cpu time spent up to now is        3.4 secs

     total energy              =     -67.73053326 Ry
     Harris-Foulkes estimate   =     -90.39664959 Ry
     estimated scf accuracy    <  118167.74379505 Ry

     iteration # 39     ecut=    90.00 Ry     beta= 0.70
     Davidson diagonalization with overlap
     ethr =  2.81E-05,  avg # of iterations =  3.0

     total cpu time spent up to now is        3.5 secs

     total energy              =     -86.00663537 Ry
     Harris-Foulkes estimate   =     -86.00587028 Ry
     estimated scf accuracy    <       0.00328886 Ry

     iteration # 40     ecut=    90.00 Ry     beta= 0.70
     Davidson diagonalization with overlap
     ethr =  2.81E-05,  avg # of iterations =  4.0

     total cpu time spent up to now is        3.5 secs

     total energy              =     -86.00931607 Ry
     Harris-Foulkes estimate   =     -86.00981833 Ry
     estimated scf accuracy    <       0.01999708 Ry

     iteration # 41     ecut=    90.00 Ry     beta= 0.70
     Davidson diagonalization with overlap
     ethr =  2.81E-05,  avg # of iterations =  2.0

     negative rho (up, down):  1.442E-03 0.000E+00

     total cpu time spent up to now is        3.6 secs

     total energy              =     -86.01383738 Ry
     Harris-Foulkes estimate   =     -86.00933637 Ry
     estimated scf accuracy    <       0.01739939 Ry

     iteration # 42     ecut=    90.00 Ry     beta= 0.70
     Davidson diagonalization with overlap
     ethr =  2.81E-05,  avg # of iterations = 11.0

     negative rho (up, down):  1.315E-03 0.000E+00

     total cpu time spent up to now is        3.6 secs

     total energy              =     -86.01910834 Ry
     Harris-Foulkes estimate   =     -86.02034816 Ry
     estimated scf accuracy    <       0.94747059 Ry

     iteration # 43     ecut=    90.00 Ry     beta= 0.70
     Davidson diagonalization with overlap
     ethr =  2.81E-05,  avg # of iterations =  2.0

     total cpu time spent up to now is        3.7 secs

     total energy              =     -85.97554474 Ry
     Harris-Foulkes estimate   =     -86.01918318 Ry
     estimated scf accuracy    <       0.73248289 Ry

     iteration # 44     ecut=    90.00 Ry     beta= 0.70
     Davidson diagonalization with overlap
     ethr =  2.81E-05,  avg # of iterations = 14.0

     negative rho (up, down):  1.258E-03 0.000E+00

     total cpu time spent up to now is        3.8 secs

     total energy              =     -86.00989655 Ry
     Harris-Foulkes estimate   =     -86.00707610 Ry
     estimated scf accuracy    <       0.00489318 Ry

     iteration # 45     ecut=    90.00 Ry     beta= 0.70
     Davidson diagonalization with overlap
     ethr =  2.81E-05,  avg # of iterations =  5.0

     total cpu time spent up to now is        3.8 secs

     total energy              =     -85.97884801 Ry
     Harris-Foulkes estimate   =     -86.01965291 Ry
     estimated scf accuracy    <       0.87300221 Ry

     iteration # 46     ecut=    90.00 Ry     beta= 0.70
     Davidson diagonalization with overlap
     ethr =  2.81E-05,  avg # of iterations =  3.0

     total cpu time spent up to now is        3.9 secs

     total energy              =     -86.00905729 Ry
     Harris-Foulkes estimate   =     -86.00752207 Ry
     estimated scf accuracy    <       0.00815142 Ry

     iteration # 47     ecut=    90.00 Ry     beta= 0.70
     Davidson diagonalization with overlap
     ethr =  2.81E-05,  avg # of iterations = 16.0

     total cpu time spent up to now is        4.0 secs

     total energy              =     -86.00576101 Ry
     Harris-Foulkes estimate   =     -86.00967713 Ry
     estimated scf accuracy    <       0.02740044 Ry

     iteration # 48     ecut=    90.00 Ry     beta= 0.70
     Davidson diagonalization with overlap
     ethr =  2.81E-05,  avg # of iterations =  3.0

     total cpu time spent up to now is        4.0 secs

     total energy              =     -86.00774632 Ry
     Harris-Foulkes estimate   =     -86.00708713 Ry
     estimated scf accuracy    <       0.00667676 Ry

     iteration # 49     ecut=    90.00 Ry     beta= 0.70
     Davidson diagonalization with overlap
     ethr =  2.81E-05,  avg # of iterations =  1.0

     total cpu time spent up to now is        4.1 secs

     total energy              =     -86.00847946 Ry
     Harris-Foulkes estimate   =     -86.00782891 Ry
     estimated scf accuracy    <       0.00932631 Ry

     iteration # 50     ecut=    90.00 Ry     beta= 0.70
     Davidson diagonalization with overlap
     ethr =  2.81E-05,  avg # of iterations =  2.0

     total cpu time spent up to now is        4.1 secs

     total energy              =     -86.00689555 Ry
     Harris-Foulkes estimate   =     -86.00859028 Ry
     estimated scf accuracy    <       0.01377641 Ry

     iteration # 51     ecut=    90.00 Ry     beta= 0.70
     Davidson diagonalization with overlap
     ethr =  2.81E-05,  avg # of iterations =  3.0

     negative rho (up, down):  3.100E-03 0.000E+00

     total cpu time spent up to now is        4.2 secs

     total energy              =     -86.01171046 Ry
     Harris-Foulkes estimate   =     -86.00720594 Ry
     estimated scf accuracy    <       0.00678882 Ry

     iteration # 52     ecut=    90.00 Ry     beta= 0.70
     Davidson diagonalization with overlap
     ethr =  2.81E-05,  avg # of iterations =  5.0

     total cpu time spent up to now is        4.3 secs

     total energy              =     -68.55176466 Ry
     Harris-Foulkes estimate   =     -87.02308130 Ry
     estimated scf accuracy    <   95070.71780396 Ry

     iteration # 53     ecut=    90.00 Ry     beta= 0.70
     Davidson diagonalization with overlap
     ethr =  2.81E-05,  avg # of iterations = 19.0

     total cpu time spent up to now is        4.3 secs

     total energy              =     -86.00731294 Ry
     Harris-Foulkes estimate   =     -86.00813400 Ry
     estimated scf accuracy    <       0.01116696 Ry

     iteration # 54     ecut=    90.00 Ry     beta= 0.70
     Davidson diagonalization with overlap
     ethr =  2.81E-05,  avg # of iterations =  2.0

     total cpu time spent up to now is        4.4 secs

     total energy              =     -86.00909459 Ry
     Harris-Foulkes estimate   =     -86.00743665 Ry
     estimated scf accuracy    <       0.00682285 Ry

     iteration # 55     ecut=    90.00 Ry     beta= 0.70
     Davidson diagonalization with overlap
     ethr =  2.81E-05,  avg # of iterations =  3.0

     total cpu time spent up to now is        4.4 secs

     total energy              =     -86.00575775 Ry
     Harris-Foulkes estimate   =     -86.00999255 Ry
     estimated scf accuracy    <       0.03117175 Ry

     iteration # 56     ecut=    90.00 Ry     beta= 0.70
     Davidson diagonalization with overlap
     ethr =  2.81E-05,  avg # of iterations =  3.0

     total cpu time spent up to now is        4.5 secs

     total energy              =     -86.00842814 Ry
     Harris-Foulkes estimate   =     -86.00725111 Ry
     estimated scf accuracy    <       0.00649825 Ry

     iteration # 57     ecut=    90.00 Ry     beta= 0.70
     Davidson diagonalization with overlap
     ethr =  2.81E-05,  avg # of iterations =  2.0

     total cpu time spent up to now is        4.5 secs

     total energy              =     -86.00707055 Ry
     Harris-Foulkes estimate   =     -86.00883595 Ry
     estimated scf accuracy    <       0.01730457 Ry

     iteration # 58     ecut=    90.00 Ry     beta= 0.70
     Davidson diagonalization with overlap
     ethr =  2.81E-05,  avg # of iterations =  3.0

     total cpu time spent up to now is        4.6 secs

     total energy              =     -86.00541687 Ry
     Harris-Foulkes estimate   =     -86.00744630 Ry
     estimated scf accuracy    <       0.00764025 Ry

     iteration # 59     ecut=    90.00 Ry     beta= 0.70
     Davidson diagonalization with overlap
     ethr =  2.81E-05,  avg # of iterations =  2.0

     total cpu time spent up to now is        4.7 secs

     total energy              =     -86.00469849 Ry
     Harris-Foulkes estimate   =     -86.00589078 Ry
     estimated scf accuracy    <       0.00376123 Ry

     iteration # 60     ecut=    90.00 Ry     beta= 0.70
     Davidson diagonalization with overlap
     ethr =  2.81E-05,  avg # of iterations =  2.0

     total cpu time spent up to now is        4.7 secs

     total energy              =     -86.00534763 Ry
     Harris-Foulkes estimate   =     -86.00488115 Ry
     estimated scf accuracy    <       0.00296097 Ry

     iteration # 61     ecut=    90.00 Ry     beta= 0.70
     Davidson diagonalization with overlap
     ethr =  2.69E-05,  avg # of iterations =  1.0

     total cpu time spent up to now is        4.8 secs

     total energy              =     -86.00443026 Ry
     Harris-Foulkes estimate   =     -86.00537833 Ry
     estimated scf accuracy    <       0.00278562 Ry

     iteration # 62     ecut=    90.00 Ry     beta= 0.70
     Davidson diagonalization with overlap
     ethr =  2.53E-05,  avg # of iterations =  1.0

     total cpu time spent up to now is        4.8 secs

     total energy              =     -86.00404767 Ry
     Harris-Foulkes estimate   =     -86.00449473 Ry
     estimated scf accuracy    <       0.00309905 Ry

     iteration # 63     ecut=    90.00 Ry     beta= 0.70
     Davidson diagonalization with overlap
     ethr =  2.53E-05,  avg # of iterations =  1.0

     total cpu time spent up to now is        4.9 secs

     total energy              =     -86.00493772 Ry
     Harris-Foulkes estimate   =     -86.00411521 Ry
     estimated scf accuracy    <       0.00265819 Ry

     iteration # 64     ecut=    90.00 Ry     beta= 0.70
     Davidson diagonalization with overlap
     ethr =  2.42E-05,  avg # of iterations =  1.0

     total cpu time spent up to now is        4.9 secs

     total energy              =     -86.00468004 Ry
     Harris-Foulkes estimate   =     -86.00499764 Ry
     estimated scf accuracy    <       0.00235906 Ry

     iteration # 65     ecut=    90.00 Ry     beta= 0.70
     Davidson diagonalization with overlap
     ethr =  2.14E-05,  avg # of iterations =  1.0

     total cpu time spent up to now is        5.0 secs

     total energy              =     -86.00420027 Ry
     Harris-Foulkes estimate   =     -86.00469029 Ry
     estimated scf accuracy    <       0.00260720 Ry

     iteration # 66     ecut=    90.00 Ry     beta= 0.70
     Davidson diagonalization with overlap
     ethr =  2.14E-05,  avg # of iterations =  1.0

     negative rho (up, down):  6.698E-04 0.000E+00

     total cpu time spent up to now is        5.0 secs

     total energy              =     -86.00383670 Ry
     Harris-Foulkes estimate   =     -86.00423005 Ry
     estimated scf accuracy    <       0.00272095 Ry

     iteration # 67     ecut=    90.00 Ry     beta= 0.70
     Davidson diagonalization with overlap
     ethr =  2.14E-05,  avg # of iterations =  1.0

     negative rho (up, down):  8.784E-03 0.000E+00

     total cpu time spent up to now is        5.1 secs

     total energy              =     -86.00150393 Ry
     Harris-Foulkes estimate   =     -86.00393569 Ry
     estimated scf accuracy    <       0.00410329 Ry

     iteration # 68     ecut=    90.00 Ry     beta= 0.70
     Davidson diagonalization with overlap
     ethr =  2.14E-05,  avg # of iterations =  2.0

     total cpu time spent up to now is        5.1 secs

     total energy              =     -86.00518328 Ry
     Harris-Foulkes estimate   =     -86.00202237 Ry
     estimated scf accuracy    <       0.00736302 Ry

     iteration # 69     ecut=    90.00 Ry     beta= 0.70
     Davidson diagonalization with overlap
     ethr =  2.14E-05,  avg # of iterations =  4.0

     negative rho (up, down):  5.975E-03 0.000E+00

     total cpu time spent up to now is        5.2 secs

     total energy              =     -85.99645414 Ry
     Harris-Foulkes estimate   =     -86.00833479 Ry
     estimated scf accuracy    <       0.01310912 Ry

     iteration # 70     ecut=    90.00 Ry     beta= 0.70
     Davidson diagonalization with overlap
     ethr =  2.14E-05,  avg # of iterations =  3.0

     negative rho (up, down):  1.128E-02 0.000E+00

     total cpu time spent up to now is        5.3 secs

     total energy              =     -85.99957736 Ry
     Harris-Foulkes estimate   =     -86.00186435 Ry
     estimated scf accuracy    <       0.00780219 Ry

     iteration # 71     ecut=    90.00 Ry     beta= 0.70
     Davidson diagonalization with overlap
     ethr =  2.14E-05,  avg # of iterations =  2.0

     negative rho (up, down):  3.092E-02 0.000E+00

     total cpu time spent up to now is        5.3 secs

     total energy              =     -85.99147552 Ry
     Harris-Foulkes estimate   =     -85.99966568 Ry
     estimated scf accuracy    <       0.00867684 Ry

     iteration # 72     ecut=    90.00 Ry     beta= 0.70
     Davidson diagonalization with overlap
     ethr =  2.14E-05,  avg # of iterations =  6.0

     negative rho (up, down):  2.657E-02 0.000E+00

     total cpu time spent up to now is        5.4 secs

     total energy              =    -132.32176206 Ry
     Harris-Foulkes estimate   =    -139.59962894 Ry
     estimated scf accuracy    <  194401.00131776 Ry

     iteration # 73     ecut=    90.00 Ry     beta= 0.70
     Davidson diagonalization with overlap
     ethr =  2.14E-05,  avg # of iterations =  2.0

     negative rho (up, down):  4.916E-02 0.000E+00

     total cpu time spent up to now is        5.5 secs

     total energy              =    -173.11813487 Ry
     Harris-Foulkes estimate   =    -132.35730233 Ry
     estimated scf accuracy    <  190481.85157230 Ry

     iteration # 74     ecut=    90.00 Ry     beta= 0.70
     Davidson diagonalization with overlap
     ethr =  2.14E-05,  avg # of iterations =  3.0

     negative rho (up, down):  3.839E-02 0.000E+00

     total cpu time spent up to now is        5.5 secs

     total energy              =    -152.85593254 Ry
     Harris-Foulkes estimate   =    -174.03993797 Ry
     estimated scf accuracy    <  205406.61017585 Ry

     iteration # 75     ecut=    90.00 Ry     beta= 0.70
     Davidson diagonalization with overlap
     ethr =  2.14E-05,  avg # of iterations =  2.0

     negative rho (up, down):  6.229E-03 0.000E+00

     total cpu time spent up to now is        5.6 secs

     total energy              =     -87.56850356 Ry
     Harris-Foulkes estimate   =    -152.99021208 Ry
     estimated scf accuracy    <  199806.20899593 Ry

     iteration # 76     ecut=    90.00 Ry     beta= 0.70
     Davidson diagonalization with overlap
     ethr =  2.14E-05,  avg # of iterations =  3.0

     negative rho (up, down):  1.145E-02 0.000E+00

     total cpu time spent up to now is        5.6 secs

     total energy              =     -16.61089701 Ry
     Harris-Foulkes estimate   =     -91.73940295 Ry
     estimated scf accuracy    <  123995.03930233 Ry

     iteration # 77     ecut=    90.00 Ry     beta= 0.70
     Davidson diagonalization with overlap
     ethr =  2.14E-05,  avg # of iterations =  6.0

     negative rho (up, down):  2.248E-01 0.000E+00

     total cpu time spent up to now is        5.7 secs

     total energy              =     444.41160674 Ry
     Harris-Foulkes estimate   =    -100.19930513 Ry
     estimated scf accuracy    <  168104.39865303 Ry

     iteration # 78     ecut=    90.00 Ry     beta= 0.70
     Davidson diagonalization with overlap
     ethr =  2.14E-05,  avg # of iterations =  4.0

     total cpu time spent up to now is        5.8 secs

     total energy              =     -49.96161650 Ry
     Harris-Foulkes estimate   =    -604.28104261 Ry
     estimated scf accuracy    <  221188.73137444 Ry

     iteration # 79     ecut=    90.00 Ry     beta= 0.70
     Davidson diagonalization with overlap
     ethr =  2.14E-05,  avg # of iterations =  5.0

     total cpu time spent up to now is        5.8 secs

     total energy              =     -86.00411912 Ry
     Harris-Foulkes estimate   =     -86.00457666 Ry
     estimated scf accuracy    <       0.00228006 Ry

     iteration # 80     ecut=    90.00 Ry     beta= 0.70
     Davidson diagonalization with overlap
     ethr =  2.07E-05,  avg # of iterations =  3.0

     total cpu time spent up to now is        5.9 secs

     total energy              =     -86.00451113 Ry
     Harris-Foulkes estimate   =     -86.00416230 Ry
     estimated scf accuracy    <       0.00273103 Ry

     iteration # 81     ecut=    90.00 Ry     beta= 0.70
     Davidson diagonalization with overlap
     ethr =  2.07E-05,  avg # of iterations =  2.0

     total cpu time spent up to now is        5.9 secs

     total energy              =     -86.00458443 Ry
     Harris-Foulkes estimate   =     -86.00453015 Ry
     estimated scf accuracy    <       0.00295655 Ry

     iteration # 82     ecut=    90.00 Ry     beta= 0.70
     Davidson diagonalization with overlap
     ethr =  2.07E-05,  avg # of iterations =  2.0

     total cpu time spent up to now is        6.0 secs

     total energy              =     -86.00465399 Ry
     Harris-Foulkes estimate   =     -86.00458604 Ry
     estimated scf accuracy    <       0.00299656 Ry

     iteration # 83     ecut=    90.00 Ry     beta= 0.70
     Davidson diagonalization with overlap
     ethr =  2.07E-05,  avg # of iterations =  2.0

     negative rho (up, down):  7.032E-03 0.000E+00

     total cpu time spent up to now is        6.0 secs

     total energy              =     -86.00011380 Ry
     Harris-Foulkes estimate   =     -86.00465559 Ry
     estimated scf accuracy    <       0.00306656 Ry

     iteration # 84     ecut=    90.00 Ry     beta= 0.70
     Davidson diagonalization with overlap
     ethr =  2.07E-05,  avg # of iterations =  4.0

     negative rho (up, down):  2.078E-03 0.000E+00

     total cpu time spent up to now is        6.1 secs

     total energy              =     -83.72155919 Ry
     Harris-Foulkes estimate   =     -93.12558916 Ry
     estimated scf accuracy    <  129458.95392512 Ry

     iteration # 85     ecut=    90.00 Ry     beta= 0.70
     Davidson diagonalization with overlap
     ethr =  2.07E-05,  avg # of iterations =  3.0

     negative rho (up, down):  3.880E-03 0.000E+00

     total cpu time spent up to now is        6.2 secs

     total energy              =     -86.00458050 Ry
     Harris-Foulkes estimate   =     -86.00342855 Ry
     estimated scf accuracy    <       0.03441636 Ry

     iteration # 86     ecut=    90.00 Ry     beta= 0.70
     Davidson diagonalization with overlap
     ethr =  2.07E-05,  avg # of iterations =  3.0

     negative rho (up, down):  1.691E-03 0.000E+00

     total cpu time spent up to now is        6.2 secs

     total energy              =     -82.50929633 Ry
     Harris-Foulkes estimate   =     -87.42500361 Ry
     estimated scf accuracy    <  103335.99024423 Ry

     iteration # 87     ecut=    90.00 Ry     beta= 0.70
     Davidson diagonalization with overlap
     ethr =  2.07E-05,  avg # of iterations =  3.0

     negative rho (up, down):  3.350E-03 0.000E+00

     total cpu time spent up to now is        6.3 secs

     total energy              =     -86.00251556 Ry
     Harris-Foulkes estimate   =     -86.00308091 Ry
     estimated scf accuracy    <       0.00188256 Ry

     iteration # 88     ecut=    90.00 Ry     beta= 0.70
     Davidson diagonalization with overlap
     ethr =  1.71E-05,  avg # of iterations =  3.0

     negative rho (up, down):  1.205E-03 0.000E+00

     total cpu time spent up to now is        6.3 secs

     total energy              =     -80.49335478 Ry
     Harris-Foulkes estimate   =     -86.51271076 Ry
     estimated scf accuracy    <   95841.17658300 Ry

     iteration # 89     ecut=    90.00 Ry     beta= 0.70
     Davidson diagonalization with overlap
     ethr =  1.71E-05,  avg # of iterations =  3.0

     negative rho (up, down):  1.744E-03 0.000E+00

     total cpu time spent up to now is        6.4 secs

     total energy              =     -86.00296493 Ry
     Harris-Foulkes estimate   =     -86.00352019 Ry
     estimated scf accuracy    <       0.00431751 Ry

     iteration # 90     ecut=    90.00 Ry     beta= 0.70
     Davidson diagonalization with overlap
     ethr =  1.71E-05,  avg # of iterations =  2.0

     negative rho (up, down):  2.041E-03 0.000E+00

     total cpu time spent up to now is        6.5 secs

     total energy              =     -86.00288360 Ry
     Harris-Foulkes estimate   =     -86.00305652 Ry
     estimated scf accuracy    <       0.00163694 Ry

     iteration # 91     ecut=    90.00 Ry     beta= 0.70
     Davidson diagonalization with overlap
     ethr =  1.49E-05,  avg # of iterations =  3.0

     negative rho (up, down):  1.794E-03 0.000E+00

     total cpu time spent up to now is        6.5 secs

     total energy              =     -86.00291547 Ry
     Harris-Foulkes estimate   =     -86.00296040 Ry
     estimated scf accuracy    <       0.00015434 Ry

     iteration # 92     ecut=    90.00 Ry     beta= 0.70
     Davidson diagonalization with overlap
     ethr =  1.40E-06,  avg # of iterations =  3.0

     negative rho (up, down):  1.768E-03 0.000E+00

     total cpu time spent up to now is        6.6 secs

     total energy              =     -86.00306368 Ry
     Harris-Foulkes estimate   =     -86.00305554 Ry
     estimated scf accuracy    <       0.00202165 Ry

     iteration # 93     ecut=    90.00 Ry     beta= 0.70
     Davidson diagonalization with overlap
     ethr =  1.40E-06,  avg # of iterations =  2.0

     negative rho (up, down):  1.747E-03 0.000E+00

     total cpu time spent up to now is        6.6 secs

     total energy              =     -86.00306842 Ry
     Harris-Foulkes estimate   =     -86.00306376 Ry
     estimated scf accuracy    <       0.00200480 Ry

     iteration # 94     ecut=    90.00 Ry     beta= 0.70
     Davidson diagonalization with overlap
     ethr =  1.40E-06,  avg # of iterations =  2.0

     negative rho (up, down):  1.772E-03 0.000E+00

     total cpu time spent up to now is        6.7 secs

     total energy              =     -86.00305392 Ry
     Harris-Foulkes estimate   =     -86.00306848 Ry
     estimated scf accuracy    <       0.00194133 Ry

     iteration # 95     ecut=    90.00 Ry     beta= 0.70
     Davidson diagonalization with overlap
     ethr =  1.40E-06,  avg # of iterations =  2.0

     negative rho (up, down):  1.898E-03 0.000E+00

     total cpu time spent up to now is        6.7 secs

     total energy              =     -86.00301252 Ry
     Harris-Foulkes estimate   =     -86.00305417 Ry
     estimated scf accuracy    <       0.00180600 Ry

     iteration # 96     ecut=    90.00 Ry     beta= 0.70
     Davidson diagonalization with overlap
     ethr =  1.40E-06,  avg # of iterations =  2.0

     negative rho (up, down):  1.913E-03 0.000E+00

     total cpu time spent up to now is        6.8 secs

     total energy              =     -86.00299083 Ry
     Harris-Foulkes estimate   =     -86.00301331 Ry
     estimated scf accuracy    <       0.00181538 Ry

     iteration # 97     ecut=    90.00 Ry     beta= 0.70
     Davidson diagonalization with overlap
     ethr =  1.40E-06,  avg # of iterations =  2.0

     negative rho (up, down):  1.691E-03 0.000E+00

     total cpu time spent up to now is        6.9 secs

     total energy              =     -86.00310857 Ry
     Harris-Foulkes estimate   =     -86.00299339 Ry
     estimated scf accuracy    <       0.00130320 Ry

     iteration # 98     ecut=    90.00 Ry     beta= 0.70
     Davidson diagonalization with overlap
     ethr =  1.40E-06,  avg # of iterations =  3.0

     negative rho (up, down):  1.495E-03 0.000E+00

     total cpu time spent up to now is        6.9 secs

     total energy              =     -86.00319516 Ry
     Harris-Foulkes estimate   =     -86.00314335 Ry
     estimated scf accuracy    <       0.00293808 Ry

     iteration # 99     ecut=    90.00 Ry     beta= 0.70
     Davidson diagonalization with overlap
     ethr =  1.40E-06,  avg # of iterations =  2.0

     negative rho (up, down):  2.477E-03 0.000E+00

     total cpu time spent up to now is        7.0 secs

     total energy              =     -86.00282257 Ry
     Harris-Foulkes estimate   =     -86.00319845 Ry
     estimated scf accuracy    <       0.00245303 Ry

     iteration #100     ecut=    90.00 Ry     beta= 0.70
     Davidson diagonalization with overlap
     ethr =  1.40E-06,  avg # of iterations =  3.0

     negative rho (up, down):  2.371E-03 0.000E+00

     total cpu time spent up to now is        7.0 secs

     total energy              =     -86.00289985 Ry
     Harris-Foulkes estimate   =     -86.00290621 Ry
     estimated scf accuracy    <       0.00001412 Ry

     End of self-consistent calculation

     convergence NOT achieved after 100 iterations: stopping

     Writing output data file Au.save/

     init_run     :      0.25s CPU      0.26s WALL (       1 calls)
     electrons    :      5.71s CPU      5.89s WALL (       1 calls)

     Called by init_run:
     wfcinit      :      0.01s CPU      0.01s WALL (       1 calls)
     potinit      :      0.02s CPU      0.02s WALL (       1 calls)
     hinit0       :      0.21s CPU      0.21s WALL (       1 calls)

     Called by electrons:
     c_bands      :      1.60s CPU      1.70s WALL (     101 calls)
     sum_band     :      1.75s CPU      1.79s WALL (     101 calls)
     v_of_rho     :      0.93s CPU      0.96s WALL (     101 calls)
     newd         :      1.25s CPU      1.26s WALL (     101 calls)
     mix_rho      :      0.15s CPU      0.15s WALL (     101 calls)

     Called by c_bands:
     init_us_2    :      0.05s CPU      0.06s WALL (     203 calls)
     cegterg      :      1.53s CPU      1.63s WALL (     101 calls)

     Called by sum_band:
     sum_band:bec :      0.00s CPU      0.00s WALL (     101 calls)
     addusdens    :      1.24s CPU      1.25s WALL (     101 calls)

     Called by *egterg:
     h_psi        :      1.18s CPU      1.27s WALL (     431 calls)
     s_psi        :      0.03s CPU      0.04s WALL (     431 calls)
     g_psi        :      0.00s CPU      0.00s WALL (     329 calls)
     cdiaghg      :      0.11s CPU      0.11s WALL (     429 calls)

     Called by h_psi:
     h_psi:pot    :      1.18s CPU      1.26s WALL (     431 calls)
     h_psi:calbec :      0.06s CPU      0.06s WALL (     431 calls)
     vloc_psi     :      1.08s CPU      1.16s WALL (     431 calls)
     add_vuspsi   :      0.03s CPU      0.04s WALL (     431 calls)

     General routines
     calbec       :      0.08s CPU      0.08s WALL (     532 calls)
     fft          :      0.40s CPU      0.42s WALL (    1114 calls)
     ffts         :      0.03s CPU      0.03s WALL (     101 calls)
     fftw         :      1.20s CPU      1.29s WALL (    6508 calls)
     davcio       :      0.00s CPU      0.01s WALL (      19 calls)

     Parallel routines
     fft_scatt_xy :      0.13s CPU      0.14s WALL (    7723 calls)
     fft_scatt_yz :      0.45s CPU      0.49s WALL (    7723 calls)

     PWSCF        :     6.85s CPU         7.07s WALL


   This run was terminated on:  12:35:36  26Mar2024            

=------------------------------------------------------------------------------=
   JOB DONE.
=------------------------------------------------------------------------------=
