
     Program PWSCF v.6.3MaX starts on 26Mar2024 at 12: 7:32 

     This program is part of the open-source Quantum ESPRESSO suite
     for quantum simulation of materials; please cite
         "P. Giannozzi et al., J. Phys.:Condens. Matter 21 395502 (2009);
         "P. Giannozzi et al., J. Phys.:Condens. Matter 29 465901 (2017);
          URL http://www.quantum-espresso.org", 
     in publications or presentations arising from this work. More details at
     http://www.quantum-espresso.org/quote

     Parallel version (MPI), running on     5 processors

     MPI processes distributed on     1 nodes
     R & G space division:  proc/nbgrp/npool/nimage =       5
     Waiting for input...
     Reading input from standard input

     Current dimensions of program PWSCF are:
     Max number of different atomic species (ntypx) = 10
     Max number of k-points (npk) =  40000
     Max angular momentum in pseudopotentials (lmaxx) =  3
               file Au.pbesol-n-kjpaw_psl.1.0.0.UPF: wavefunction(s)  6S 5D renormalized

     Subspace diagonalization in iterative solution of the eigenvalue problem:
     a serial algorithm will be used


     Parallelization info
     --------------------
     sticks:   dense  smooth     PW     G-vecs:    dense   smooth      PW
     Min         116     116     36                 1836     1836     318
     Max         117     117     38                 1838     1838     319
     Sum         583     583    187                 9185     9185    1591



     bravais-lattice index     =            2
     lattice parameter (alat)  =       7.7100  a.u.
     unit-cell volume          =     114.5785 (a.u.)^3
     number of atoms/cell      =            1
     number of atomic types    =            1
     number of electrons       =        11.00
     number of Kohn-Sham states=           10
     kinetic-energy cutoff     =      70.0000  Ry
     charge density cutoff     =     280.0000  Ry
     convergence threshold     =      1.0E-08
     mixing beta               =       0.7000
     number of iterations used =            8  plain     mixing
     Exchange-correlation      = SLA PW PSX PSC ( 1  4 10  8 0 0)

     celldm(1)=   7.710000  celldm(2)=   0.000000  celldm(3)=   0.000000
     celldm(4)=   0.000000  celldm(5)=   0.000000  celldm(6)=   0.000000

     crystal axes: (cart. coord. in units of alat)
               a(1) = (  -0.500000   0.000000   0.500000 )  
               a(2) = (   0.000000   0.500000   0.500000 )  
               a(3) = (  -0.500000   0.500000   0.000000 )  

     reciprocal axes: (cart. coord. in units 2 pi/alat)
               b(1) = ( -1.000000 -1.000000  1.000000 )  
               b(2) = (  1.000000  1.000000  1.000000 )  
               b(3) = ( -1.000000  1.000000 -1.000000 )  


     PseudoPot. # 1 for Au read from file:
     /home/lorenzo/pseudos/Au/Au.pbesol-n-kjpaw_psl.1.0.0.UPF
     MD5 check sum: abc371be705c47a6b6a6b4088b452d3e
     Pseudo is Projector augmented-wave + core cor, Zval = 11.0
     Generated using "atomic" code by A. Dal Corso v.6.3
     Shape of augmentation charge: PSQ
     Using radial grid of 1279 points,  6 beta functions with: 
                l(1) =   0
                l(2) =   0
                l(3) =   1
                l(4) =   1
                l(5) =   2
                l(6) =   2
     Q(r) pseudized with 0 coefficients 


     atomic species   valence    mass     pseudopotential
        Au            11.00   196.96600     Au( 1.00)

     48 Sym. Ops., with inversion, found



   Cartesian axes

     site n.     atom                  positions (alat units)
         1           Au  tau(   1) = (   0.0000000   0.0000000   0.0000000  )

     number of k points=    10  gaussian smearing, width (Ry)=  0.0100
                       cart. coord. in units 2pi/alat
        k(    1) = (   0.0000000   0.0000000   0.0000000), wk =   0.0160000
        k(    2) = (  -0.2000000   0.2000000  -0.2000000), wk =   0.1280000
        k(    3) = (  -0.4000000   0.4000000  -0.4000000), wk =   0.1280000
        k(    4) = (   0.0000000   0.4000000   0.0000000), wk =   0.0960000
        k(    5) = (  -0.2000000   0.6000000  -0.2000000), wk =   0.3840000
        k(    6) = (   0.6000000  -0.2000000   0.6000000), wk =   0.3840000
        k(    7) = (   0.4000000   0.0000000   0.4000000), wk =   0.1920000
        k(    8) = (   0.0000000   0.8000000   0.0000000), wk =   0.0960000
        k(    9) = (   0.8000000   0.0000000   0.8000000), wk =   0.1920000
        k(   10) = (   0.6000000  -0.2000000   1.0000000), wk =   0.3840000

     Dense  grid:     9185 G-vectors     FFT dimensions: (  30,  30,  30)

     Estimated max dynamical RAM per process >       8.86 MB

     Estimated total dynamical RAM >      44.31 MB

     Initial potential from superposition of free atoms

     starting charge   10.99990, renormalised to   11.00000
     Starting wfcs are    9 randomized atomic wfcs +    1 random wfcs
     Checking if some PAW data can be deallocated... 

     total cpu time spent up to now is        1.3 secs

     Self-consistent Calculation

     iteration #  1     ecut=    70.00 Ry     beta= 0.70
     Davidson diagonalization with overlap
     ethr =  1.00E-02,  avg # of iterations =  5.3

     Threshold (ethr) on eigenvalues was too large:
     Diagonalizing with lowered threshold

     Davidson diagonalization with overlap
     ethr =  5.50E-04,  avg # of iterations =  2.1

     total cpu time spent up to now is        1.8 secs

     total energy              =    -764.66702083 Ry
     Harris-Foulkes estimate   =    -764.71041230 Ry
     estimated scf accuracy    <       0.06334194 Ry

     iteration #  2     ecut=    70.00 Ry     beta= 0.70
     Davidson diagonalization with overlap
     ethr =  5.76E-04,  avg # of iterations =  3.3

     negative rho (up, down):  1.457E-02 0.000E+00

     total cpu time spent up to now is        2.1 secs

     total energy              =    -764.84168699 Ry
     Harris-Foulkes estimate   =    -764.71049767 Ry
     estimated scf accuracy    <       0.39828895 Ry

     iteration #  3     ecut=    70.00 Ry     beta= 0.70
     Davidson diagonalization with overlap
     ethr =  5.76E-04,  avg # of iterations =  4.1

     total cpu time spent up to now is        2.4 secs

     total energy              =    -727.22169189 Ry
     Harris-Foulkes estimate   =    -840.59408202 Ry
     estimated scf accuracy    <  200960.14949304 Ry

     iteration #  4     ecut=    70.00 Ry     beta= 0.70
     Davidson diagonalization with overlap
     ethr =  5.76E-04,  avg # of iterations =  5.7

     total cpu time spent up to now is        2.7 secs

     total energy              =    -764.69421363 Ry
     Harris-Foulkes estimate   =    -764.69400136 Ry
     estimated scf accuracy    <       0.07350828 Ry

     iteration #  5     ecut=    70.00 Ry     beta= 0.70
     Davidson diagonalization with overlap
     ethr =  5.76E-04,  avg # of iterations =  1.0

     total cpu time spent up to now is        2.9 secs

     total energy              =    -764.69422208 Ry
     Harris-Foulkes estimate   =    -764.69431324 Ry
     estimated scf accuracy    <       0.07403377 Ry

     iteration #  6     ecut=    70.00 Ry     beta= 0.70
     Davidson diagonalization with overlap
     ethr =  5.76E-04,  avg # of iterations =  1.0

     total cpu time spent up to now is        3.2 secs

     total energy              =    -764.69420323 Ry
     Harris-Foulkes estimate   =    -764.69423684 Ry
     estimated scf accuracy    <       0.07404888 Ry

     iteration #  7     ecut=    70.00 Ry     beta= 0.70
     Davidson diagonalization with overlap
     ethr =  5.76E-04,  avg # of iterations =  1.0

     total cpu time spent up to now is        3.5 secs

     total energy              =    -764.69410879 Ry
     Harris-Foulkes estimate   =    -764.69420751 Ry
     estimated scf accuracy    <       0.07413141 Ry

     iteration #  8     ecut=    70.00 Ry     beta= 0.70
     Davidson diagonalization with overlap
     ethr =  5.76E-04,  avg # of iterations =  1.4

     total cpu time spent up to now is        3.7 secs

     total energy              =    -764.69410008 Ry
     Harris-Foulkes estimate   =    -764.69411078 Ry
     estimated scf accuracy    <       0.07316016 Ry

     iteration #  9     ecut=    70.00 Ry     beta= 0.70
     Davidson diagonalization with overlap
     ethr =  5.76E-04,  avg # of iterations =  1.0

     total cpu time spent up to now is        3.9 secs

     total energy              =    -764.69407055 Ry
     Harris-Foulkes estimate   =    -764.69410065 Ry
     estimated scf accuracy    <       0.07279141 Ry

     iteration # 10     ecut=    70.00 Ry     beta= 0.70
     Davidson diagonalization with overlap
     ethr =  5.76E-04,  avg # of iterations =  1.3

     total cpu time spent up to now is        4.2 secs

     total energy              =    -764.69406474 Ry
     Harris-Foulkes estimate   =    -764.69407090 Ry
     estimated scf accuracy    <       0.07205647 Ry

     iteration # 11     ecut=    70.00 Ry     beta= 0.70
     Davidson diagonalization with overlap
     ethr =  5.76E-04,  avg # of iterations =  1.3

     total cpu time spent up to now is        4.4 secs

     total energy              =    -764.69416819 Ry
     Harris-Foulkes estimate   =    -764.69406487 Ry
     estimated scf accuracy    <       0.07187076 Ry

     iteration # 12     ecut=    70.00 Ry     beta= 0.70
     Davidson diagonalization with overlap
     ethr =  5.76E-04,  avg # of iterations =  1.0

     total cpu time spent up to now is        4.7 secs

     total energy              =    -764.68899732 Ry
     Harris-Foulkes estimate   =    -764.69416874 Ry
     estimated scf accuracy    <       0.07342038 Ry

     iteration # 13     ecut=    70.00 Ry     beta= 0.70
     Davidson diagonalization with overlap
     ethr =  5.76E-04,  avg # of iterations =  2.5

     total cpu time spent up to now is        4.9 secs

     total energy              =    -764.69079784 Ry
     Harris-Foulkes estimate   =    -764.69086356 Ry
     estimated scf accuracy    <       0.00993194 Ry

     iteration # 14     ecut=    70.00 Ry     beta= 0.70
     Davidson diagonalization with overlap
     ethr =  9.03E-05,  avg # of iterations =  1.3

     total cpu time spent up to now is        5.2 secs

     total energy              =    -764.69045177 Ry
     Harris-Foulkes estimate   =    -764.69081960 Ry
     estimated scf accuracy    <       0.00962036 Ry

     iteration # 15     ecut=    70.00 Ry     beta= 0.70
     Davidson diagonalization with overlap
     ethr =  8.75E-05,  avg # of iterations =  2.1

     total cpu time spent up to now is        5.4 secs

     total energy              =    -764.68999173 Ry
     Harris-Foulkes estimate   =    -764.69056544 Ry
     estimated scf accuracy    <       0.00645440 Ry

     iteration # 16     ecut=    70.00 Ry     beta= 0.70
     Davidson diagonalization with overlap
     ethr =  5.87E-05,  avg # of iterations =  2.3

     total cpu time spent up to now is        5.7 secs

     total energy              =    -764.69020438 Ry
     Harris-Foulkes estimate   =    -764.69028136 Ry
     estimated scf accuracy    <       0.00085027 Ry

     iteration # 17     ecut=    70.00 Ry     beta= 0.70
     Davidson diagonalization with overlap
     ethr =  7.73E-06,  avg # of iterations =  2.5

     total cpu time spent up to now is        5.9 secs

     total energy              =    -764.69021851 Ry
     Harris-Foulkes estimate   =    -764.69025264 Ry
     estimated scf accuracy    <       0.00017702 Ry

     iteration # 18     ecut=    70.00 Ry     beta= 0.70
     Davidson diagonalization with overlap
     ethr =  1.61E-06,  avg # of iterations =  3.6

     total cpu time spent up to now is        6.2 secs

     total energy              =    -764.69022939 Ry
     Harris-Foulkes estimate   =    -764.69025871 Ry
     estimated scf accuracy    <       0.00010476 Ry

     iteration # 19     ecut=    70.00 Ry     beta= 0.70
     Davidson diagonalization with overlap
     ethr =  9.52E-07,  avg # of iterations =  2.4

     total cpu time spent up to now is        6.5 secs

     total energy              =    -764.69024184 Ry
     Harris-Foulkes estimate   =    -764.69025840 Ry
     estimated scf accuracy    <       0.00011874 Ry

     iteration # 20     ecut=    70.00 Ry     beta= 0.70
     Davidson diagonalization with overlap
     ethr =  9.52E-07,  avg # of iterations =  2.1

     total cpu time spent up to now is        6.8 secs

     total energy              =    -764.69025083 Ry
     Harris-Foulkes estimate   =    -764.69025108 Ry
     estimated scf accuracy    <       0.00000165 Ry

     iteration # 21     ecut=    70.00 Ry     beta= 0.70
     Davidson diagonalization with overlap
     ethr =  1.50E-08,  avg # of iterations =  2.2

     total cpu time spent up to now is        7.0 secs

     total energy              =    -764.69025084 Ry
     Harris-Foulkes estimate   =    -764.69025110 Ry
     estimated scf accuracy    <       0.00000122 Ry

     iteration # 22     ecut=    70.00 Ry     beta= 0.70
     Davidson diagonalization with overlap
     ethr =  1.11E-08,  avg # of iterations =  2.2

     total cpu time spent up to now is        7.3 secs

     total energy              =    -764.69025099 Ry
     Harris-Foulkes estimate   =    -764.69025113 Ry
     estimated scf accuracy    <       0.00000096 Ry

     iteration # 23     ecut=    70.00 Ry     beta= 0.70
     Davidson diagonalization with overlap
     ethr =  8.74E-09,  avg # of iterations =  1.8

     total cpu time spent up to now is        7.5 secs

     End of self-consistent calculation

          k = 0.0000 0.0000 0.0000 (  1139 PWs)   bands (ev):

     5.8142  11.0975  11.0975  11.0975  12.6362  12.6362  31.1331  34.9829
    34.9829  34.9829

          k =-0.2000 0.2000-0.2000 (  1134 PWs)   bands (ev):

     7.0857  10.8499  11.3868  11.3868  12.6348  12.6348  29.0478  32.2455
    35.9491  35.9491

          k =-0.4000 0.4000-0.4000 (  1149 PWs)   bands (ev):

     8.4016  11.1370  11.1370  13.0948  13.6094  13.6094  21.1731  30.7519
    33.9640  33.9640

          k = 0.0000 0.4000 0.0000 (  1134 PWs)   bands (ev):

     7.5296  10.2898  11.8706  11.9185  11.9185  13.0177  32.2287  32.2287
    32.3430  32.9615

          k =-0.2000 0.6000-0.2000 (  1121 PWs)   bands (ev):

     9.0597  10.2862  11.1355  12.0639  13.7650  14.3430  24.1709  30.2338
    30.3218  33.0068

          k = 0.6000-0.2000 0.6000 (  1135 PWs)   bands (ev):

     9.3087  10.5831  11.6841  11.7833  13.5507  17.3485  19.7446  27.5700
    31.7898  32.1915

          k = 0.4000 0.0000 0.4000 (  1131 PWs)   bands (ev):

     8.7949  10.4580  11.1937  11.9944  12.1495  14.2319  26.3925  28.4378
    33.4982  36.3693

          k = 0.0000 0.8000 0.0000 (  1126 PWs)   bands (ev):

     8.8077   9.1835  13.6818  13.7517  13.7517  14.5026  24.5652  26.8875
    26.8875  32.5479

          k = 0.8000 0.0000 0.8000 (  1144 PWs)   bands (ev):

     9.1261   9.6103  12.4222  13.1814  13.8869  19.4524  20.3934  23.6002
    27.6326  33.7579

          k = 0.6000-0.2000 1.0000 (  1135 PWs)   bands (ev):

     9.8707  10.1264  10.8234  12.7579  13.7378  17.7837  22.8426  24.1416
    27.0361  37.1917

     the Fermi energy is    14.5425 ev

!    total energy              =    -764.69025107 Ry
     Harris-Foulkes estimate   =    -764.69025107 Ry
     estimated scf accuracy    <          5.0E-09 Ry

     total all-electron energy =    -38013.524713 Ry

     The total energy is the sum of the following terms:

     one-electron contribution =      13.84870153 Ry
     hartree contribution      =       7.58615730 Ry
     xc contribution           =     -31.82499956 Ry
     ewald contribution        =     -71.95438534 Ry
     one-center paw contrib.   =    -682.34534729 Ry
     smearing contrib. (-TS)   =      -0.00037771 Ry

     convergence has been achieved in  23 iterations

     Forces acting on atoms (cartesian axes, Ry/au):

     atom    1 type  1   force =     0.00000000    0.00000000    0.00000000

     Total force =     0.000000     Total SCF correction =     0.000000


     Computing stress (Cartesian axis) and pressure

          total   stress  (Ry/bohr**3)                   (kbar)     P=    4.71
   0.00003205   0.00000000   0.00000000          4.71      0.00      0.00
   0.00000000   0.00003205  -0.00000000          0.00      4.71     -0.00
   0.00000000  -0.00000000   0.00003205          0.00     -0.00      4.71


     Writing output data file Au.save/

     init_run     :      0.38s CPU      0.41s WALL (       1 calls)
     electrons    :      5.75s CPU      6.22s WALL (       1 calls)
     forces       :      0.04s CPU      0.04s WALL (       1 calls)
     stress       :      0.12s CPU      0.12s WALL (       1 calls)

     Called by init_run:
     wfcinit      :      0.04s CPU      0.04s WALL (       1 calls)
     potinit      :      0.12s CPU      0.14s WALL (       1 calls)
     hinit0       :      0.19s CPU      0.19s WALL (       1 calls)

     Called by electrons:
     c_bands      :      2.35s CPU      2.44s WALL (      24 calls)
     sum_band     :      0.69s CPU      0.70s WALL (      24 calls)
     v_of_rho     :      0.13s CPU      0.13s WALL (      24 calls)
     newd         :      0.22s CPU      0.27s WALL (      24 calls)
     PAW_pot      :      2.44s CPU      2.77s WALL (      24 calls)
     mix_rho      :      0.02s CPU      0.02s WALL (      24 calls)

     Called by c_bands:
     init_us_2    :      0.08s CPU      0.08s WALL (     510 calls)
     cegterg      :      2.24s CPU      2.33s WALL (     240 calls)

     Called by sum_band:
     sum_band:bec :      0.00s CPU      0.00s WALL (     240 calls)
     addusdens    :      0.21s CPU      0.21s WALL (      24 calls)

     Called by *egterg:
     h_psi        :      1.74s CPU      1.82s WALL (     795 calls)
     s_psi        :      0.05s CPU      0.06s WALL (     795 calls)
     g_psi        :      0.01s CPU      0.01s WALL (     545 calls)
     cdiaghg      :      0.19s CPU      0.19s WALL (     775 calls)

     Called by h_psi:
     h_psi:pot    :      1.73s CPU      1.81s WALL (     795 calls)
     h_psi:calbec :      0.09s CPU      0.09s WALL (     795 calls)
     vloc_psi     :      1.59s CPU      1.65s WALL (     795 calls)
     add_vuspsi   :      0.06s CPU      0.06s WALL (     795 calls)

     General routines
     calbec       :      0.12s CPU      0.13s WALL (    1085 calls)
     fft          :      0.07s CPU      0.08s WALL (     291 calls)
     ffts         :      0.00s CPU      0.00s WALL (      24 calls)
     fftw         :      1.81s CPU      1.88s WALL (   14282 calls)

     Parallel routines
     fft_scatt_xy :      0.16s CPU      0.16s WALL (   14597 calls)
     fft_scatt_yz :      0.54s CPU      0.56s WALL (   14597 calls)

     PWSCF        :     7.18s CPU         7.76s WALL


   This run was terminated on:  12: 7:39  26Mar2024            

=------------------------------------------------------------------------------=
   JOB DONE.
=------------------------------------------------------------------------------=
