
     Program PWSCF v.6.3MaX starts on 26Mar2024 at 11: 8:46 

     This program is part of the open-source Quantum ESPRESSO suite
     for quantum simulation of materials; please cite
         "P. Giannozzi et al., J. Phys.:Condens. Matter 21 395502 (2009);
         "P. Giannozzi et al., J. Phys.:Condens. Matter 29 465901 (2017);
          URL http://www.quantum-espresso.org", 
     in publications or presentations arising from this work. More details at
     http://www.quantum-espresso.org/quote

     Parallel version (MPI), running on     5 processors

     MPI processes distributed on     1 nodes
     R & G space division:  proc/nbgrp/npool/nimage =       5
     Waiting for input...
     Reading input from standard input

     Current dimensions of program PWSCF are:
     Max number of different atomic species (ntypx) = 10
     Max number of k-points (npk) =  40000
     Max angular momentum in pseudopotentials (lmaxx) =  3
               file Au.pbe-n-kjpaw_psl.1.0.0.UPF: wavefunction(s)  6S 5D renormalized

     Subspace diagonalization in iterative solution of the eigenvalue problem:
     a serial algorithm will be used


     Parallelization info
     --------------------
     sticks:   dense  smooth     PW     G-vecs:    dense   smooth      PW
     Min         164     164     49                 3094     3094     513
     Max         165     165     51                 3095     3095     513
     Sum         823     823    253                15473    15473    2565



     bravais-lattice index     =            2
     lattice parameter (alat)  =       7.7100  a.u.
     unit-cell volume          =     114.5785 (a.u.)^3
     number of atoms/cell      =            1
     number of atomic types    =            1
     number of electrons       =        11.00
     number of Kohn-Sham states=           10
     kinetic-energy cutoff     =     100.0000  Ry
     charge density cutoff     =     400.0000  Ry
     convergence threshold     =      1.0E-08
     mixing beta               =       0.7000
     number of iterations used =            8  plain     mixing
     Exchange-correlation      = SLA PW PBX PBC ( 1  4  3  4 0 0)

     celldm(1)=   7.710000  celldm(2)=   0.000000  celldm(3)=   0.000000
     celldm(4)=   0.000000  celldm(5)=   0.000000  celldm(6)=   0.000000

     crystal axes: (cart. coord. in units of alat)
               a(1) = (  -0.500000   0.000000   0.500000 )  
               a(2) = (   0.000000   0.500000   0.500000 )  
               a(3) = (  -0.500000   0.500000   0.000000 )  

     reciprocal axes: (cart. coord. in units 2 pi/alat)
               b(1) = ( -1.000000 -1.000000  1.000000 )  
               b(2) = (  1.000000  1.000000  1.000000 )  
               b(3) = ( -1.000000  1.000000 -1.000000 )  


     PseudoPot. # 1 for Au read from file:
     /home/lorenzo/pseudos/Au/Au.pbe-n-kjpaw_psl.1.0.0.UPF
     MD5 check sum: 4db85c736373c707a97ce4c36c2a9d23
     Pseudo is Projector augmented-wave + core cor, Zval = 11.0
     Generated using "atomic" code by A. Dal Corso v.6.3
     Shape of augmentation charge: PSQ
     Using radial grid of 1279 points,  6 beta functions with: 
                l(1) =   0
                l(2) =   0
                l(3) =   1
                l(4) =   1
                l(5) =   2
                l(6) =   2
     Q(r) pseudized with 0 coefficients 


     atomic species   valence    mass     pseudopotential
        Au            11.00   196.96600     Au( 1.00)

     48 Sym. Ops., with inversion, found



   Cartesian axes

     site n.     atom                  positions (alat units)
         1           Au  tau(   1) = (   0.0000000   0.0000000   0.0000000  )

     number of k points=     8  gaussian smearing, width (Ry)=  0.0100
                       cart. coord. in units 2pi/alat
        k(    1) = (   0.0000000   0.0000000   0.0000000), wk =   0.0312500
        k(    2) = (  -0.2500000   0.2500000  -0.2500000), wk =   0.2500000
        k(    3) = (   0.5000000  -0.5000000   0.5000000), wk =   0.1250000
        k(    4) = (   0.0000000   0.5000000   0.0000000), wk =   0.1875000
        k(    5) = (   0.7500000  -0.2500000   0.7500000), wk =   0.7500000
        k(    6) = (   0.5000000   0.0000000   0.5000000), wk =   0.3750000
        k(    7) = (   0.0000000  -1.0000000   0.0000000), wk =   0.0937500
        k(    8) = (  -0.5000000  -1.0000000   0.0000000), wk =   0.1875000

     Dense  grid:    15473 G-vectors     FFT dimensions: (  36,  36,  36)

     Estimated max dynamical RAM per process >      14.10 MB

     Estimated total dynamical RAM >      70.49 MB

     Initial potential from superposition of free atoms

     starting charge   10.99989, renormalised to   11.00000
     Starting wfcs are    9 randomized atomic wfcs +    1 random wfcs
     Checking if some PAW data can be deallocated... 

     total cpu time spent up to now is        1.5 secs

     Self-consistent Calculation

     iteration #  1     ecut=   100.00 Ry     beta= 0.70
     Davidson diagonalization with overlap
     ethr =  1.00E-02,  avg # of iterations =  6.4

     Threshold (ethr) on eigenvalues was too large:
     Diagonalizing with lowered threshold

     Davidson diagonalization with overlap
     ethr =  4.64E-04,  avg # of iterations =  2.0

     total cpu time spent up to now is        2.1 secs

     total energy              =    -775.10243370 Ry
     Harris-Foulkes estimate   =    -775.13792461 Ry
     estimated scf accuracy    <       0.05224263 Ry

     iteration #  2     ecut=   100.00 Ry     beta= 0.70
     Davidson diagonalization with overlap
     ethr =  4.75E-04,  avg # of iterations =  3.1

     total cpu time spent up to now is        2.5 secs

     total energy              =    -775.11832523 Ry
     Harris-Foulkes estimate   =    -775.12731896 Ry
     estimated scf accuracy    <       0.01473538 Ry

     iteration #  3     ecut=   100.00 Ry     beta= 0.70
     Davidson diagonalization with overlap
     ethr =  1.34E-04,  avg # of iterations =  2.4

     total cpu time spent up to now is        2.9 secs

     total energy              =    -775.12148212 Ry
     Harris-Foulkes estimate   =    -775.12151542 Ry
     estimated scf accuracy    <       0.00023795 Ry

     iteration #  4     ecut=   100.00 Ry     beta= 0.70
     Davidson diagonalization with overlap
     ethr =  2.16E-06,  avg # of iterations =  3.8

     total cpu time spent up to now is        3.5 secs

     total energy              =    -775.12172478 Ry
     Harris-Foulkes estimate   =    -775.12182953 Ry
     estimated scf accuracy    <       0.00022134 Ry

     iteration #  5     ecut=   100.00 Ry     beta= 0.70
     Davidson diagonalization with overlap
     ethr =  2.01E-06,  avg # of iterations =  1.0

     total cpu time spent up to now is        3.8 secs

     total energy              =    -775.12173562 Ry
     Harris-Foulkes estimate   =    -775.12174553 Ry
     estimated scf accuracy    <       0.00002253 Ry

     iteration #  6     ecut=   100.00 Ry     beta= 0.70
     Davidson diagonalization with overlap
     ethr =  2.05E-07,  avg # of iterations =  3.0

     total cpu time spent up to now is        4.2 secs

     total energy              =    -775.12174230 Ry
     Harris-Foulkes estimate   =    -775.12174295 Ry
     estimated scf accuracy    <       0.00000080 Ry

     iteration #  7     ecut=   100.00 Ry     beta= 0.70
     Davidson diagonalization with overlap
     ethr =  7.24E-09,  avg # of iterations =  4.0

     total cpu time spent up to now is        4.7 secs

     total energy              =    -775.12174283 Ry
     Harris-Foulkes estimate   =    -775.12174293 Ry
     estimated scf accuracy    <       0.00000020 Ry

     iteration #  8     ecut=   100.00 Ry     beta= 0.70
     Davidson diagonalization with overlap
     ethr =  1.84E-09,  avg # of iterations =  1.8

     total cpu time spent up to now is        5.0 secs

     End of self-consistent calculation

          k = 0.0000 0.0000 0.0000 (  1917 PWs)   bands (ev):

     6.0714  11.2635  11.2635  11.2635  12.7925  12.7925  31.3849  35.2447
    35.2447  35.2447

          k =-0.2500 0.2500-0.2500 (  1934 PWs)   bands (ev):

     7.8749  11.1311  11.5467  11.5467  12.9615  12.9615  27.2735  32.3097
    36.1409  36.1409

          k = 0.5000-0.5000 0.5000 (  1916 PWs)   bands (ev):

     8.6240  11.2275  11.2275  13.9990  13.9990  14.9988  19.0616  30.6703
    33.5936  33.5936

          k = 0.0000 0.5000 0.0000 (  1964 PWs)   bands (ev):

     8.5023  10.1359  11.9656  12.5060  12.5060  13.3500  30.9526  30.9526
    32.3144  33.1187

          k = 0.7500-0.2500 0.7500 (  1923 PWs)   bands (ev):

     9.4901  10.4047  11.6146  12.4568  14.0886  17.0103  21.4541  27.5932
    29.6781  33.1675

          k = 0.5000 0.0000 0.5000 (  1947 PWs)   bands (ev):

     9.8523  10.7248  11.0693  12.1920  12.7841  15.6925  24.6127  26.2577
    33.0598  34.4404

          k = 0.0000-1.0000 0.0000 (  1964 PWs)   bands (ev):

     8.8756   9.1898  13.9561  14.3219  14.3219  17.0053  21.7727  26.2056
    26.2056  33.2022

          k =-0.5000-1.0000 0.0000 (  1912 PWs)   bands (ev):

     9.9838  10.7930  10.7930  12.6482  14.3239  20.7757  22.3220  22.3220
    25.4342  39.4425

     the Fermi energy is    16.8379 ev

!    total energy              =    -775.12174286 Ry
     Harris-Foulkes estimate   =    -775.12174286 Ry
     estimated scf accuracy    <          8.9E-09 Ry

     total all-electron energy =    -38023.967834 Ry

     The total energy is the sum of the following terms:

     one-electron contribution =      13.84978321 Ry
     hartree contribution      =       7.62950723 Ry
     xc contribution           =     -32.12118378 Ry
     ewald contribution        =     -71.95438534 Ry
     one-center paw contrib.   =    -692.52498137 Ry
     smearing contrib. (-TS)   =      -0.00048280 Ry

     convergence has been achieved in   8 iterations

     Forces acting on atoms (cartesian axes, Ry/au):

     atom    1 type  1   force =     0.00000000    0.00000000    0.00000000

     Total force =     0.000000     Total SCF correction =     0.000000


     Computing stress (Cartesian axis) and pressure

          total   stress  (Ry/bohr**3)                   (kbar)     P=  128.13
   0.00087099  -0.00000000  -0.00000000        128.13     -0.00     -0.00
  -0.00000000   0.00087099   0.00000000         -0.00    128.13      0.00
  -0.00000000   0.00000000   0.00087099         -0.00      0.00    128.13


     Writing output data file Au.save/

     init_run     :      0.42s CPU      0.45s WALL (       1 calls)
     electrons    :      3.37s CPU      3.52s WALL (       1 calls)
     forces       :      0.08s CPU      0.08s WALL (       1 calls)
     stress       :      0.23s CPU      0.23s WALL (       1 calls)

     Called by init_run:
     wfcinit      :      0.05s CPU      0.05s WALL (       1 calls)
     potinit      :      0.11s CPU      0.13s WALL (       1 calls)
     hinit0       :      0.22s CPU      0.22s WALL (       1 calls)

     Called by electrons:
     c_bands      :      1.66s CPU      1.76s WALL (       9 calls)
     sum_band     :      0.47s CPU      0.49s WALL (       9 calls)
     v_of_rho     :      0.11s CPU      0.11s WALL (       9 calls)
     newd         :      0.16s CPU      0.16s WALL (       9 calls)
     PAW_pot      :      1.07s CPU      1.11s WALL (       9 calls)
     mix_rho      :      0.01s CPU      0.01s WALL (       9 calls)

     Called by c_bands:
     init_us_2    :      0.04s CPU      0.04s WALL (     168 calls)
     cegterg      :      1.60s CPU      1.69s WALL (      72 calls)

     Called by sum_band:
     sum_band:bec :      0.00s CPU      0.00s WALL (      72 calls)
     addusdens    :      0.13s CPU      0.14s WALL (       9 calls)

     Called by *egterg:
     h_psi        :      1.27s CPU      1.35s WALL (     299 calls)
     s_psi        :      0.03s CPU      0.03s WALL (     299 calls)
     g_psi        :      0.00s CPU      0.00s WALL (     219 calls)
     cdiaghg      :      0.08s CPU      0.08s WALL (     283 calls)

     Called by h_psi:
     h_psi:pot    :      1.26s CPU      1.35s WALL (     299 calls)
     h_psi:calbec :      0.07s CPU      0.07s WALL (     299 calls)
     vloc_psi     :      1.16s CPU      1.24s WALL (     299 calls)
     add_vuspsi   :      0.03s CPU      0.03s WALL (     299 calls)

     General routines
     calbec       :      0.12s CPU      0.13s WALL (     411 calls)
     fft          :      0.08s CPU      0.09s WALL (     126 calls)
     ffts         :      0.00s CPU      0.00s WALL (       9 calls)
     fftw         :      1.32s CPU      1.41s WALL (    4772 calls)

     Parallel routines
     fft_scatt_xy :      0.08s CPU      0.08s WALL (    4907 calls)
     fft_scatt_yz :      0.67s CPU      0.72s WALL (    4907 calls)

     PWSCF        :     5.19s CPU         5.42s WALL


   This run was terminated on:  11: 8:52  26Mar2024            

=------------------------------------------------------------------------------=
   JOB DONE.
=------------------------------------------------------------------------------=
