
     Program PWSCF v.6.3MaX starts on 26Mar2024 at 11:42:12 

     This program is part of the open-source Quantum ESPRESSO suite
     for quantum simulation of materials; please cite
         "P. Giannozzi et al., J. Phys.:Condens. Matter 21 395502 (2009);
         "P. Giannozzi et al., J. Phys.:Condens. Matter 29 465901 (2017);
          URL http://www.quantum-espresso.org", 
     in publications or presentations arising from this work. More details at
     http://www.quantum-espresso.org/quote

     Parallel version (MPI), running on     5 processors

     MPI processes distributed on     1 nodes
     R & G space division:  proc/nbgrp/npool/nimage =       5
     Waiting for input...
     Reading input from standard input

     Current dimensions of program PWSCF are:
     Max number of different atomic species (ntypx) = 10
     Max number of k-points (npk) =  40000
     Max angular momentum in pseudopotentials (lmaxx) =  3

     Subspace diagonalization in iterative solution of the eigenvalue problem:
     a serial algorithm will be used


     Parallelization info
     --------------------
     sticks:   dense  smooth     PW     G-vecs:    dense   smooth      PW
     Min          84      84     24                 1115     1115     187
     Max          85      85     25                 1117     1117     191
     Sum         421     421    121                 5577     5577     941



     bravais-lattice index     =            2
     lattice parameter (alat)  =       7.7100  a.u.
     unit-cell volume          =     114.5785 (a.u.)^3
     number of atoms/cell      =            1
     number of atomic types    =            1
     number of electrons       =        11.00
     number of Kohn-Sham states=           10
     kinetic-energy cutoff     =      50.0000  Ry
     charge density cutoff     =     200.0000  Ry
     convergence threshold     =      1.0E-08
     mixing beta               =       0.7000
     number of iterations used =            8  plain     mixing
     Exchange-correlation      = PBESOL ( 1  4 10  8 0 0)

     celldm(1)=   7.710000  celldm(2)=   0.000000  celldm(3)=   0.000000
     celldm(4)=   0.000000  celldm(5)=   0.000000  celldm(6)=   0.000000

     crystal axes: (cart. coord. in units of alat)
               a(1) = (  -0.500000   0.000000   0.500000 )  
               a(2) = (   0.000000   0.500000   0.500000 )  
               a(3) = (  -0.500000   0.500000   0.000000 )  

     reciprocal axes: (cart. coord. in units 2 pi/alat)
               b(1) = ( -1.000000 -1.000000  1.000000 )  
               b(2) = (  1.000000  1.000000  1.000000 )  
               b(3) = ( -1.000000  1.000000 -1.000000 )  


     PseudoPot. # 1 for Au read from file:
     /home/lorenzo/pseudos/Au/Au.pbesol-n-rrkjus_psl.1.0.0.UPF
     MD5 check sum: 09626e9411213730b9a56fcc59c03ca8
     Pseudo is Ultrasoft + core correction, Zval = 11.0
     Generated using "atomic" code by A. Dal Corso v.6.3
     Using radial grid of 1279 points,  6 beta functions with: 
                l(1) =   0
                l(2) =   0
                l(3) =   1
                l(4) =   1
                l(5) =   2
                l(6) =   2
     Q(r) pseudized with 0 coefficients 


     atomic species   valence    mass     pseudopotential
        Au            11.00   196.96600     Au( 1.00)

     48 Sym. Ops., with inversion, found



   Cartesian axes

     site n.     atom                  positions (alat units)
         1           Au  tau(   1) = (   0.0000000   0.0000000   0.0000000  )

     number of k points=     3  gaussian smearing, width (Ry)=  0.0100
                       cart. coord. in units 2pi/alat
        k(    1) = (   0.0000000   0.0000000   0.0000000), wk =   0.2500000
        k(    2) = (   0.5000000  -0.5000000   0.5000000), wk =   1.0000000
        k(    3) = (   0.0000000  -1.0000000   0.0000000), wk =   0.7500000

     Dense  grid:     5577 G-vectors     FFT dimensions: (  25,  25,  25)

     Estimated max dynamical RAM per process >       5.62 MB

     Estimated total dynamical RAM >      28.09 MB

     Initial potential from superposition of free atoms

     starting charge   10.99990, renormalised to   11.00000
     Starting wfcs are    9 randomized atomic wfcs +    1 random wfcs

     total cpu time spent up to now is        1.0 secs

     Self-consistent Calculation

     iteration #  1     ecut=    50.00 Ry     beta= 0.70
     Davidson diagonalization with overlap
     ethr =  1.00E-02,  avg # of iterations =  7.7

     Threshold (ethr) on eigenvalues was too large:
     Diagonalizing with lowered threshold

     Davidson diagonalization with overlap
     ethr =  4.07E-04,  avg # of iterations =  2.0

     negative rho (up, down):  1.935E-03 0.000E+00

     total cpu time spent up to now is        1.1 secs

     total energy              =     -84.99494810 Ry
     Harris-Foulkes estimate   =     -84.96889496 Ry
     estimated scf accuracy    <       0.04894065 Ry

     iteration #  2     ecut=    50.00 Ry     beta= 0.70
     Davidson diagonalization with overlap
     ethr =  4.45E-04,  avg # of iterations =  5.0

     total cpu time spent up to now is        1.2 secs

     total energy              =     -28.15642507 Ry
     Harris-Foulkes estimate   =    -529.77419997 Ry
     estimated scf accuracy    <  189103.09013822 Ry

     iteration #  3     ecut=    50.00 Ry     beta= 0.70
     Davidson diagonalization with overlap
     ethr =  4.45E-04,  avg # of iterations =  9.7

     total cpu time spent up to now is        1.2 secs

     total energy              =     -84.95462089 Ry
     Harris-Foulkes estimate   =     -84.96825490 Ry
     estimated scf accuracy    <       0.03474097 Ry

     iteration #  4     ecut=    50.00 Ry     beta= 0.70
     Davidson diagonalization with overlap
     ethr =  3.16E-04,  avg # of iterations =  2.3

     total cpu time spent up to now is        1.3 secs

     total energy              =     -84.95625208 Ry
     Harris-Foulkes estimate   =     -84.95732941 Ry
     estimated scf accuracy    <       0.00671032 Ry

     iteration #  5     ecut=    50.00 Ry     beta= 0.70
     Davidson diagonalization with overlap
     ethr =  6.10E-05,  avg # of iterations =  2.0

     total cpu time spent up to now is        1.3 secs

     total energy              =     -84.95603834 Ry
     Harris-Foulkes estimate   =     -84.95892581 Ry
     estimated scf accuracy    <       0.01215527 Ry

     iteration #  6     ecut=    50.00 Ry     beta= 0.70
     Davidson diagonalization with overlap
     ethr =  6.10E-05,  avg # of iterations =  1.0

     total cpu time spent up to now is        1.3 secs

     total energy              =     -84.95769709 Ry
     Harris-Foulkes estimate   =     -84.95778548 Ry
     estimated scf accuracy    <       0.00618470 Ry

     iteration #  7     ecut=    50.00 Ry     beta= 0.70
     Davidson diagonalization with overlap
     ethr =  5.62E-05,  avg # of iterations =  1.0

     total cpu time spent up to now is        1.4 secs

     total energy              =     -84.95769972 Ry
     Harris-Foulkes estimate   =     -84.95773955 Ry
     estimated scf accuracy    <       0.00544513 Ry

     iteration #  8     ecut=    50.00 Ry     beta= 0.70
     Davidson diagonalization with overlap
     ethr =  4.95E-05,  avg # of iterations =  3.0

     total cpu time spent up to now is        1.4 secs

     total energy              =     -84.95768868 Ry
     Harris-Foulkes estimate   =     -84.95771563 Ry
     estimated scf accuracy    <       0.00502212 Ry

     iteration #  9     ecut=    50.00 Ry     beta= 0.70
     Davidson diagonalization with overlap
     ethr =  4.57E-05,  avg # of iterations =  1.0

     total cpu time spent up to now is        1.4 secs

     total energy              =     -84.95769570 Ry
     Harris-Foulkes estimate   =     -84.95770109 Ry
     estimated scf accuracy    <       0.00465549 Ry

     iteration # 10     ecut=    50.00 Ry     beta= 0.70
     Davidson diagonalization with overlap
     ethr =  4.23E-05,  avg # of iterations =  1.0

     total cpu time spent up to now is        1.5 secs

     total energy              =     -84.95768851 Ry
     Harris-Foulkes estimate   =     -84.95769783 Ry
     estimated scf accuracy    <       0.00453504 Ry

     iteration # 11     ecut=    50.00 Ry     beta= 0.70
     Davidson diagonalization with overlap
     ethr =  4.12E-05,  avg # of iterations =  1.0

     total cpu time spent up to now is        1.5 secs

     total energy              =     -84.95723714 Ry
     Harris-Foulkes estimate   =     -84.95768984 Ry
     estimated scf accuracy    <       0.00434391 Ry

     iteration # 12     ecut=    50.00 Ry     beta= 0.70
     Davidson diagonalization with overlap
     ethr =  3.95E-05,  avg # of iterations =  1.3

     total cpu time spent up to now is        1.6 secs

     total energy              =     -84.95752341 Ry
     Harris-Foulkes estimate   =     -84.95756804 Ry
     estimated scf accuracy    <       0.00075608 Ry

     iteration # 13     ecut=    50.00 Ry     beta= 0.70
     Davidson diagonalization with overlap
     ethr =  6.87E-06,  avg # of iterations =  1.3

     total cpu time spent up to now is        1.6 secs

     total energy              =     -84.95752818 Ry
     Harris-Foulkes estimate   =     -84.95755421 Ry
     estimated scf accuracy    <       0.00031359 Ry

     iteration # 14     ecut=    50.00 Ry     beta= 0.70
     Davidson diagonalization with overlap
     ethr =  2.85E-06,  avg # of iterations =  1.3

     total cpu time spent up to now is        1.6 secs

     total energy              =     -84.95754144 Ry
     Harris-Foulkes estimate   =     -84.95754281 Ry
     estimated scf accuracy    <       0.00000974 Ry

     iteration # 15     ecut=    50.00 Ry     beta= 0.70
     Davidson diagonalization with overlap
     ethr =  8.86E-08,  avg # of iterations =  3.3

     total cpu time spent up to now is        1.7 secs

     total energy              =     -84.95754566 Ry
     Harris-Foulkes estimate   =     -84.95754929 Ry
     estimated scf accuracy    <       0.00008854 Ry

     iteration # 16     ecut=    50.00 Ry     beta= 0.70
     Davidson diagonalization with overlap
     ethr =  8.86E-08,  avg # of iterations =  1.3

     total cpu time spent up to now is        1.7 secs

     total energy              =     -84.95754411 Ry
     Harris-Foulkes estimate   =     -84.95754668 Ry
     estimated scf accuracy    <       0.00002932 Ry

     iteration # 17     ecut=    50.00 Ry     beta= 0.70
     Davidson diagonalization with overlap
     ethr =  8.86E-08,  avg # of iterations =  4.7

     total cpu time spent up to now is        1.7 secs

     total energy              =     -84.95754606 Ry
     Harris-Foulkes estimate   =     -84.95754609 Ry
     estimated scf accuracy    <       0.00000211 Ry

     iteration # 18     ecut=    50.00 Ry     beta= 0.70
     Davidson diagonalization with overlap
     ethr =  1.92E-08,  avg # of iterations =  1.3

     total cpu time spent up to now is        1.8 secs

     total energy              =     -84.95754589 Ry
     Harris-Foulkes estimate   =     -84.95754622 Ry
     estimated scf accuracy    <       0.00000430 Ry

     iteration # 19     ecut=    50.00 Ry     beta= 0.70
     Davidson diagonalization with overlap
     ethr =  1.92E-08,  avg # of iterations =  1.3

     total cpu time spent up to now is        1.8 secs

     total energy              =     -84.95754598 Ry
     Harris-Foulkes estimate   =     -84.95754600 Ry
     estimated scf accuracy    <       0.00000037 Ry

     iteration # 20     ecut=    50.00 Ry     beta= 0.70
     Davidson diagonalization with overlap
     ethr =  3.35E-09,  avg # of iterations =  1.7

     total cpu time spent up to now is        1.9 secs

     End of self-consistent calculation

          k = 0.0000 0.0000 0.0000 (   701 PWs)   bands (ev):

     5.8545  11.4948  11.4948  11.4948  13.1299  13.1299  31.0298  35.0339
    35.0339  35.0339

          k = 0.5000-0.5000 0.5000 (   700 PWs)   bands (ev):

     8.6445  11.4715  11.4715  14.3630  14.3630  14.7744  19.2147  30.3540
    33.4215  33.4215

          k = 0.0000-1.0000 0.0000 (   692 PWs)   bands (ev):

     8.9587   9.3224  14.3373  14.6894  14.6894  16.7806  21.7760  26.0194
    26.0194  32.8643

     the Fermi energy is    14.8586 ev

!    total energy              =     -84.95754602 Ry
     Harris-Foulkes estimate   =     -84.95754602 Ry
     estimated scf accuracy    <          1.5E-10 Ry

     The total energy is the sum of the following terms:

     one-electron contribution =      11.10353053 Ry
     hartree contribution      =       7.81868611 Ry
     xc contribution           =     -31.92255047 Ry
     ewald contribution        =     -71.95438538 Ry
     smearing contrib. (-TS)   =      -0.00282680 Ry

     convergence has been achieved in  20 iterations

     Forces acting on atoms (cartesian axes, Ry/au):

     atom    1 type  1   force =     0.00000000    0.00000000    0.00000000

     Total force =     0.000000     Total SCF correction =     0.000000


     Computing stress (Cartesian axis) and pressure

          total   stress  (Ry/bohr**3)                   (kbar)     P=  496.27
   0.00337357  -0.00000000  -0.00000000        496.27     -0.00     -0.00
  -0.00000000   0.00337357  -0.00000000         -0.00    496.27     -0.00
  -0.00000000   0.00000000   0.00337357         -0.00      0.00    496.27


     Writing output data file Au.save/

     init_run     :      0.17s CPU      0.17s WALL (       1 calls)
     electrons    :      0.82s CPU      0.87s WALL (       1 calls)
     forces       :      0.02s CPU      0.02s WALL (       1 calls)
     stress       :      0.06s CPU      0.06s WALL (       1 calls)

     Called by init_run:
     wfcinit      :      0.01s CPU      0.01s WALL (       1 calls)
     potinit      :      0.01s CPU      0.01s WALL (       1 calls)
     hinit0       :      0.14s CPU      0.14s WALL (       1 calls)

     Called by electrons:
     c_bands      :      0.44s CPU      0.46s WALL (      21 calls)
     sum_band     :      0.19s CPU      0.21s WALL (      21 calls)
     v_of_rho     :      0.07s CPU      0.07s WALL (      21 calls)
     newd         :      0.11s CPU      0.12s WALL (      21 calls)
     mix_rho      :      0.01s CPU      0.01s WALL (      21 calls)

     Called by c_bands:
     init_us_2    :      0.01s CPU      0.01s WALL (     135 calls)
     cegterg      :      0.42s CPU      0.44s WALL (      63 calls)

     Called by sum_band:
     sum_band:bec :      0.00s CPU      0.00s WALL (      63 calls)
     addusdens    :      0.11s CPU      0.11s WALL (      21 calls)

     Called by *egterg:
     h_psi        :      0.31s CPU      0.33s WALL (     229 calls)
     s_psi        :      0.01s CPU      0.01s WALL (     229 calls)
     g_psi        :      0.00s CPU      0.00s WALL (     163 calls)
     cdiaghg      :      0.05s CPU      0.05s WALL (     223 calls)

     Called by h_psi:
     h_psi:pot    :      0.31s CPU      0.32s WALL (     229 calls)
     h_psi:calbec :      0.01s CPU      0.01s WALL (     229 calls)
     vloc_psi     :      0.28s CPU      0.30s WALL (     229 calls)
     add_vuspsi   :      0.01s CPU      0.01s WALL (     229 calls)

     General routines
     calbec       :      0.02s CPU      0.02s WALL (     307 calls)
     fft          :      0.05s CPU      0.05s WALL (     258 calls)
     ffts         :      0.00s CPU      0.00s WALL (      21 calls)
     fftw         :      0.31s CPU      0.33s WALL (    3758 calls)

     Parallel routines
     fft_scatt_xy :      0.02s CPU      0.03s WALL (    4037 calls)
     fft_scatt_yz :      0.13s CPU      0.14s WALL (    4037 calls)

     PWSCF        :     1.88s CPU         1.97s WALL


   This run was terminated on:  11:42:14  26Mar2024            

=------------------------------------------------------------------------------=
   JOB DONE.
=------------------------------------------------------------------------------=
