
     Program PWSCF v.6.3MaX starts on 26Mar2024 at 12:13:35 

     This program is part of the open-source Quantum ESPRESSO suite
     for quantum simulation of materials; please cite
         "P. Giannozzi et al., J. Phys.:Condens. Matter 21 395502 (2009);
         "P. Giannozzi et al., J. Phys.:Condens. Matter 29 465901 (2017);
          URL http://www.quantum-espresso.org", 
     in publications or presentations arising from this work. More details at
     http://www.quantum-espresso.org/quote

     Parallel version (MPI), running on     5 processors

     MPI processes distributed on     1 nodes
     R & G space division:  proc/nbgrp/npool/nimage =       5
     Waiting for input...
     Reading input from standard input

     Current dimensions of program PWSCF are:
     Max number of different atomic species (ntypx) = 10
     Max number of k-points (npk) =  40000
     Max angular momentum in pseudopotentials (lmaxx) =  3

     Subspace diagonalization in iterative solution of the eigenvalue problem:
     a serial algorithm will be used


     Parallelization info
     --------------------
     sticks:   dense  smooth     PW     G-vecs:    dense   smooth      PW
     Min         122     122     37                 1997     1997     327
     Max         123     123     38                 1997     1997     329
     Sum         613     613    187                 9985     9985    1639



     bravais-lattice index     =            2
     lattice parameter (alat)  =       7.7100  a.u.
     unit-cell volume          =     114.5785 (a.u.)^3
     number of atoms/cell      =            1
     number of atomic types    =            1
     number of electrons       =        11.00
     number of Kohn-Sham states=           10
     kinetic-energy cutoff     =      75.0000  Ry
     charge density cutoff     =     300.0000  Ry
     convergence threshold     =      1.0E-08
     mixing beta               =       0.7000
     number of iterations used =            8  plain     mixing
     Exchange-correlation      = PBESOL ( 1  4 10  8 0 0)

     celldm(1)=   7.710000  celldm(2)=   0.000000  celldm(3)=   0.000000
     celldm(4)=   0.000000  celldm(5)=   0.000000  celldm(6)=   0.000000

     crystal axes: (cart. coord. in units of alat)
               a(1) = (  -0.500000   0.000000   0.500000 )  
               a(2) = (   0.000000   0.500000   0.500000 )  
               a(3) = (  -0.500000   0.500000   0.000000 )  

     reciprocal axes: (cart. coord. in units 2 pi/alat)
               b(1) = ( -1.000000 -1.000000  1.000000 )  
               b(2) = (  1.000000  1.000000  1.000000 )  
               b(3) = ( -1.000000  1.000000 -1.000000 )  


     PseudoPot. # 1 for Au read from file:
     /home/lorenzo/pseudos/Au/Au.pbesol-n-rrkjus_psl.1.0.0.UPF
     MD5 check sum: 09626e9411213730b9a56fcc59c03ca8
     Pseudo is Ultrasoft + core correction, Zval = 11.0
     Generated using "atomic" code by A. Dal Corso v.6.3
     Using radial grid of 1279 points,  6 beta functions with: 
                l(1) =   0
                l(2) =   0
                l(3) =   1
                l(4) =   1
                l(5) =   2
                l(6) =   2
     Q(r) pseudized with 0 coefficients 


     atomic species   valence    mass     pseudopotential
        Au            11.00   196.96600     Au( 1.00)

     48 Sym. Ops., with inversion, found



   Cartesian axes

     site n.     atom                  positions (alat units)
         1           Au  tau(   1) = (   0.0000000   0.0000000   0.0000000  )

     number of k points=     3  gaussian smearing, width (Ry)=  0.0100
                       cart. coord. in units 2pi/alat
        k(    1) = (   0.0000000   0.0000000   0.0000000), wk =   0.2500000
        k(    2) = (   0.5000000  -0.5000000   0.5000000), wk =   1.0000000
        k(    3) = (   0.0000000  -1.0000000   0.0000000), wk =   0.7500000

     Dense  grid:     9985 G-vectors     FFT dimensions: (  32,  32,  32)

     Estimated max dynamical RAM per process >       9.38 MB

     Estimated total dynamical RAM >      46.88 MB

     Initial potential from superposition of free atoms

     starting charge   10.99990, renormalised to   11.00000
     Starting wfcs are    9 randomized atomic wfcs +    1 random wfcs

     total cpu time spent up to now is        1.0 secs

     Self-consistent Calculation

     iteration #  1     ecut=    75.00 Ry     beta= 0.70
     Davidson diagonalization with overlap
     ethr =  1.00E-02,  avg # of iterations =  8.3

     Threshold (ethr) on eigenvalues was too large:
     Diagonalizing with lowered threshold

     Davidson diagonalization with overlap
     ethr =  4.10E-04,  avg # of iterations =  1.7

     negative rho (up, down):  3.585E-03 0.000E+00

     total cpu time spent up to now is        1.1 secs

     total energy              =     -84.94954579 Ry
     Harris-Foulkes estimate   =     -84.96907580 Ry
     estimated scf accuracy    <       0.04707377 Ry

     iteration #  2     ecut=    75.00 Ry     beta= 0.70
     Davidson diagonalization with overlap
     ethr =  4.28E-04,  avg # of iterations =  5.3

     total cpu time spent up to now is        1.2 secs

     total energy              =     -48.77920752 Ry
     Harris-Foulkes estimate   =     -95.33780315 Ry
     estimated scf accuracy    <  142133.02476137 Ry

     iteration #  3     ecut=    75.00 Ry     beta= 0.70
     Davidson diagonalization with overlap
     ethr =  4.28E-04,  avg # of iterations =  4.0

     total cpu time spent up to now is        1.3 secs

     total energy              =     -84.95507118 Ry
     Harris-Foulkes estimate   =     -84.96821829 Ry
     estimated scf accuracy    <       0.03265798 Ry

     iteration #  4     ecut=    75.00 Ry     beta= 0.70
     Davidson diagonalization with overlap
     ethr =  2.97E-04,  avg # of iterations =  4.0

     total cpu time spent up to now is        1.4 secs

     total energy              =     -84.95717965 Ry
     Harris-Foulkes estimate   =     -84.95789713 Ry
     estimated scf accuracy    <       0.01055765 Ry

     iteration #  5     ecut=    75.00 Ry     beta= 0.70
     Davidson diagonalization with overlap
     ethr =  9.60E-05,  avg # of iterations =  8.7

     total cpu time spent up to now is        1.4 secs

     total energy              =     -84.95710341 Ry
     Harris-Foulkes estimate   =     -84.95866577 Ry
     estimated scf accuracy    <       0.01144868 Ry

     iteration #  6     ecut=    75.00 Ry     beta= 0.70
     Davidson diagonalization with overlap
     ethr =  9.60E-05,  avg # of iterations =  3.3

     total cpu time spent up to now is        1.5 secs

     total energy              =     -84.95805747 Ry
     Harris-Foulkes estimate   =     -84.95812582 Ry
     estimated scf accuracy    <       0.00969312 Ry

     iteration #  7     ecut=    75.00 Ry     beta= 0.70
     Davidson diagonalization with overlap
     ethr =  8.81E-05,  avg # of iterations =  1.0

     total cpu time spent up to now is        1.6 secs

     total energy              =     -84.95805318 Ry
     Harris-Foulkes estimate   =     -84.95807803 Ry
     estimated scf accuracy    <       0.00866980 Ry

     iteration #  8     ecut=    75.00 Ry     beta= 0.70
     Davidson diagonalization with overlap
     ethr =  7.88E-05,  avg # of iterations =  1.0

     total cpu time spent up to now is        1.6 secs

     total energy              =     -84.95806423 Ry
     Harris-Foulkes estimate   =     -84.95806614 Ry
     estimated scf accuracy    <       0.00819527 Ry

     iteration #  9     ecut=    75.00 Ry     beta= 0.70
     Davidson diagonalization with overlap
     ethr =  7.45E-05,  avg # of iterations =  1.0

     total cpu time spent up to now is        1.7 secs

     total energy              =     -84.95806346 Ry
     Harris-Foulkes estimate   =     -84.95806538 Ry
     estimated scf accuracy    <       0.00807136 Ry

     iteration # 10     ecut=    75.00 Ry     beta= 0.70
     Davidson diagonalization with overlap
     ethr =  7.34E-05,  avg # of iterations =  1.0

     total cpu time spent up to now is        1.7 secs

     total energy              =     -84.95805972 Ry
     Harris-Foulkes estimate   =     -84.95806396 Ry
     estimated scf accuracy    <       0.00799143 Ry

     iteration # 11     ecut=    75.00 Ry     beta= 0.70
     Davidson diagonalization with overlap
     ethr =  7.26E-05,  avg # of iterations =  1.0

     total cpu time spent up to now is        1.8 secs

     total energy              =     -84.95780866 Ry
     Harris-Foulkes estimate   =     -84.95806007 Ry
     estimated scf accuracy    <       0.00785991 Ry

     iteration # 12     ecut=    75.00 Ry     beta= 0.70
     Davidson diagonalization with overlap
     ethr =  7.15E-05,  avg # of iterations =  1.3

     total cpu time spent up to now is        1.8 secs

     total energy              =     -84.95768104 Ry
     Harris-Foulkes estimate   =     -84.95805554 Ry
     estimated scf accuracy    <       0.00428320 Ry

     iteration # 13     ecut=    75.00 Ry     beta= 0.70
     Davidson diagonalization with overlap
     ethr =  3.89E-05,  avg # of iterations =  1.3

     total cpu time spent up to now is        1.9 secs

     total energy              =     -84.95784477 Ry
     Harris-Foulkes estimate   =     -84.95793090 Ry
     estimated scf accuracy    <       0.00081105 Ry

     iteration # 14     ecut=    75.00 Ry     beta= 0.70
     Davidson diagonalization with overlap
     ethr =  7.37E-06,  avg # of iterations =  3.7

     total cpu time spent up to now is        2.0 secs

     total energy              =     -84.95772604 Ry
     Harris-Foulkes estimate   =     -84.95789340 Ry
     estimated scf accuracy    <       0.00098625 Ry

     iteration # 15     ecut=    75.00 Ry     beta= 0.70
     Davidson diagonalization with overlap
     ethr =  7.37E-06,  avg # of iterations =  1.3

     total cpu time spent up to now is        2.0 secs

     total energy              =     -84.95780367 Ry
     Harris-Foulkes estimate   =     -84.95780525 Ry
     estimated scf accuracy    <       0.00000912 Ry

     iteration # 16     ecut=    75.00 Ry     beta= 0.70
     Davidson diagonalization with overlap
     ethr =  8.29E-08,  avg # of iterations =  3.7

     total cpu time spent up to now is        2.1 secs

     total energy              =     -84.95781012 Ry
     Harris-Foulkes estimate   =     -84.95781507 Ry
     estimated scf accuracy    <       0.00013690 Ry

     iteration # 17     ecut=    75.00 Ry     beta= 0.70
     Davidson diagonalization with overlap
     ethr =  8.29E-08,  avg # of iterations =  1.7

     total cpu time spent up to now is        2.2 secs

     total energy              =     -84.95781104 Ry
     Harris-Foulkes estimate   =     -84.95781135 Ry
     estimated scf accuracy    <       0.00003426 Ry

     iteration # 18     ecut=    75.00 Ry     beta= 0.70
     Davidson diagonalization with overlap
     ethr =  8.29E-08,  avg # of iterations =  1.0

     total cpu time spent up to now is        2.2 secs

     total energy              =     -84.95780929 Ry
     Harris-Foulkes estimate   =     -84.95781109 Ry
     estimated scf accuracy    <       0.00002961 Ry

     iteration # 19     ecut=    75.00 Ry     beta= 0.70
     Davidson diagonalization with overlap
     ethr =  8.29E-08,  avg # of iterations =  1.7

     total cpu time spent up to now is        2.3 secs

     total energy              =     -84.95781029 Ry
     Harris-Foulkes estimate   =     -84.95781027 Ry
     estimated scf accuracy    <       0.00000008 Ry

     iteration # 20     ecut=    75.00 Ry     beta= 0.70
     Davidson diagonalization with overlap
     ethr =  7.35E-10,  avg # of iterations =  3.0

     total cpu time spent up to now is        2.3 secs

     total energy              =     -84.95781023 Ry
     Harris-Foulkes estimate   =     -84.95781035 Ry
     estimated scf accuracy    <       0.00000173 Ry

     iteration # 21     ecut=    75.00 Ry     beta= 0.70
     Davidson diagonalization with overlap
     ethr =  7.35E-10,  avg # of iterations =  2.7

     total cpu time spent up to now is        2.4 secs

     total energy              =     -84.95781030 Ry
     Harris-Foulkes estimate   =     -84.95781030 Ry
     estimated scf accuracy    <       0.00000005 Ry

     iteration # 22     ecut=    75.00 Ry     beta= 0.70
     Davidson diagonalization with overlap
     ethr =  4.65E-10,  avg # of iterations =  1.0

     total cpu time spent up to now is        2.4 secs

     total energy              =     -84.95781030 Ry
     Harris-Foulkes estimate   =     -84.95781030 Ry
     estimated scf accuracy    <       0.00000008 Ry

     iteration # 23     ecut=    75.00 Ry     beta= 0.70
     Davidson diagonalization with overlap
     ethr =  4.65E-10,  avg # of iterations =  1.0

     total cpu time spent up to now is        2.5 secs

     total energy              =     -84.95781030 Ry
     Harris-Foulkes estimate   =     -84.95781030 Ry
     estimated scf accuracy    <       0.00000010 Ry

     iteration # 24     ecut=    75.00 Ry     beta= 0.70
     Davidson diagonalization with overlap
     ethr =  4.65E-10,  avg # of iterations =  1.0

     total cpu time spent up to now is        2.6 secs

     total energy              =     -84.95781030 Ry
     Harris-Foulkes estimate   =     -84.95781030 Ry
     estimated scf accuracy    <       0.00000006 Ry

     iteration # 25     ecut=    75.00 Ry     beta= 0.70
     Davidson diagonalization with overlap
     ethr =  4.65E-10,  avg # of iterations =  1.0

     total cpu time spent up to now is        2.6 secs

     total energy              =     -84.95781030 Ry
     Harris-Foulkes estimate   =     -84.95781030 Ry
     estimated scf accuracy    <       0.00000003 Ry

     iteration # 26     ecut=    75.00 Ry     beta= 0.70
     Davidson diagonalization with overlap
     ethr =  2.97E-10,  avg # of iterations =  1.0

     total cpu time spent up to now is        2.7 secs

     End of self-consistent calculation

          k = 0.0000 0.0000 0.0000 (  1243 PWs)   bands (ev):

     5.8545  11.4940  11.4940  11.4940  13.1288  13.1288  31.0300  35.0340
    35.0340  35.0340

          k = 0.5000-0.5000 0.5000 (  1260 PWs)   bands (ev):

     8.6441  11.4705  11.4705  14.3622  14.3622  14.7743  19.2152  30.3541
    33.4212  33.4212

          k = 0.0000-1.0000 0.0000 (  1234 PWs)   bands (ev):

     8.9574   9.3216  14.3361  14.6890  14.6890  16.7805  21.7742  26.0192
    26.0192  32.8557

     the Fermi energy is    14.8584 ev

!    total energy              =     -84.95781031 Ry
     Harris-Foulkes estimate   =     -84.95781030 Ry
     estimated scf accuracy    <          4.5E-09 Ry

     The total energy is the sum of the following terms:

     one-electron contribution =      11.10331125 Ry
     hartree contribution      =       7.81839439 Ry
     xc contribution           =     -31.92230555 Ry
     ewald contribution        =     -71.95438534 Ry
     smearing contrib. (-TS)   =      -0.00282505 Ry

     convergence has been achieved in  26 iterations

     Forces acting on atoms (cartesian axes, Ry/au):

     atom    1 type  1   force =     0.00000000    0.00000000    0.00000000

     Total force =     0.000000     Total SCF correction =     0.000000


     Computing stress (Cartesian axis) and pressure

          total   stress  (Ry/bohr**3)                   (kbar)     P=  497.58
   0.00338249  -0.00000000  -0.00000000        497.58     -0.00     -0.00
  -0.00000000   0.00338249   0.00000000         -0.00    497.58      0.00
  -0.00000000   0.00000000   0.00338249         -0.00      0.00    497.58


     Writing output data file Au.save/

     init_run     :      0.22s CPU      0.22s WALL (       1 calls)
     electrons    :      1.56s CPU      1.66s WALL (       1 calls)
     forces       :      0.03s CPU      0.04s WALL (       1 calls)
     stress       :      0.09s CPU      0.09s WALL (       1 calls)

     Called by init_run:
     wfcinit      :      0.01s CPU      0.01s WALL (       1 calls)
     potinit      :      0.01s CPU      0.01s WALL (       1 calls)
     hinit0       :      0.18s CPU      0.18s WALL (       1 calls)

     Called by electrons:
     c_bands      :      0.71s CPU      0.78s WALL (      27 calls)
     sum_band     :      0.42s CPU      0.44s WALL (      27 calls)
     v_of_rho     :      0.15s CPU      0.16s WALL (      27 calls)
     newd         :      0.25s CPU      0.26s WALL (      27 calls)
     mix_rho      :      0.02s CPU      0.03s WALL (      27 calls)

     Called by c_bands:
     init_us_2    :      0.03s CPU      0.03s WALL (     171 calls)
     cegterg      :      0.67s CPU      0.74s WALL (      81 calls)

     Called by sum_band:
     sum_band:bec :      0.00s CPU      0.00s WALL (      81 calls)
     addusdens    :      0.25s CPU      0.25s WALL (      27 calls)

     Called by *egterg:
     h_psi        :      0.51s CPU      0.57s WALL (     284 calls)
     s_psi        :      0.02s CPU      0.02s WALL (     284 calls)
     g_psi        :      0.00s CPU      0.00s WALL (     200 calls)
     cdiaghg      :      0.05s CPU      0.06s WALL (     278 calls)

     Called by h_psi:
     h_psi:pot    :      0.51s CPU      0.57s WALL (     284 calls)
     h_psi:calbec :      0.03s CPU      0.03s WALL (     284 calls)
     vloc_psi     :      0.46s CPU      0.52s WALL (     284 calls)
     add_vuspsi   :      0.02s CPU      0.02s WALL (     284 calls)

     General routines
     calbec       :      0.04s CPU      0.04s WALL (     380 calls)
     fft          :      0.06s CPU      0.07s WALL (     324 calls)
     ffts         :      0.00s CPU      0.00s WALL (      27 calls)
     fftw         :      0.52s CPU      0.58s WALL (    4760 calls)

     Parallel routines
     fft_scatt_xy :      0.06s CPU      0.07s WALL (    5111 calls)
     fft_scatt_yz :      0.17s CPU      0.19s WALL (    5111 calls)

     PWSCF        :     2.69s CPU         2.84s WALL


   This run was terminated on:  12:13:38  26Mar2024            

=------------------------------------------------------------------------------=
   JOB DONE.
=------------------------------------------------------------------------------=
