
     Program PWSCF v.6.3MaX starts on 26Mar2024 at 11:17:14 

     This program is part of the open-source Quantum ESPRESSO suite
     for quantum simulation of materials; please cite
         "P. Giannozzi et al., J. Phys.:Condens. Matter 21 395502 (2009);
         "P. Giannozzi et al., J. Phys.:Condens. Matter 29 465901 (2017);
          URL http://www.quantum-espresso.org", 
     in publications or presentations arising from this work. More details at
     http://www.quantum-espresso.org/quote

     Parallel version (MPI), running on     5 processors

     MPI processes distributed on     1 nodes
     R & G space division:  proc/nbgrp/npool/nimage =       5
     Waiting for input...
     Reading input from standard input

     Current dimensions of program PWSCF are:
     Max number of different atomic species (ntypx) = 10
     Max number of k-points (npk) =  40000
     Max angular momentum in pseudopotentials (lmaxx) =  3
               file Au.pbesol-n-kjpaw_psl.1.0.0.UPF: wavefunction(s)  6S 5D renormalized

     Subspace diagonalization in iterative solution of the eigenvalue problem:
     a serial algorithm will be used


     Parallelization info
     --------------------
     sticks:   dense  smooth     PW     G-vecs:    dense   smooth      PW
     Min          24      24     11                  178      178      51
     Max          25      25     11                  181      181      52
     Sum         121     121     55                  893      893     259



     bravais-lattice index     =            2
     lattice parameter (alat)  =       7.7100  a.u.
     unit-cell volume          =     114.5785 (a.u.)^3
     number of atoms/cell      =            1
     number of atomic types    =            1
     number of electrons       =        11.00
     number of Kohn-Sham states=           10
     kinetic-energy cutoff     =      15.0000  Ry
     charge density cutoff     =      60.0000  Ry
     convergence threshold     =      1.0E-08
     mixing beta               =       0.7000
     number of iterations used =            8  plain     mixing
     Exchange-correlation      = SLA PW PSX PSC ( 1  4 10  8 0 0)

     celldm(1)=   7.710000  celldm(2)=   0.000000  celldm(3)=   0.000000
     celldm(4)=   0.000000  celldm(5)=   0.000000  celldm(6)=   0.000000

     crystal axes: (cart. coord. in units of alat)
               a(1) = (  -0.500000   0.000000   0.500000 )  
               a(2) = (   0.000000   0.500000   0.500000 )  
               a(3) = (  -0.500000   0.500000   0.000000 )  

     reciprocal axes: (cart. coord. in units 2 pi/alat)
               b(1) = ( -1.000000 -1.000000  1.000000 )  
               b(2) = (  1.000000  1.000000  1.000000 )  
               b(3) = ( -1.000000  1.000000 -1.000000 )  


     PseudoPot. # 1 for Au read from file:
     /home/lorenzo/pseudos/Au/Au.pbesol-n-kjpaw_psl.1.0.0.UPF
     MD5 check sum: abc371be705c47a6b6a6b4088b452d3e
     Pseudo is Projector augmented-wave + core cor, Zval = 11.0
     Generated using "atomic" code by A. Dal Corso v.6.3
     Shape of augmentation charge: PSQ
     Using radial grid of 1279 points,  6 beta functions with: 
                l(1) =   0
                l(2) =   0
                l(3) =   1
                l(4) =   1
                l(5) =   2
                l(6) =   2
     Q(r) pseudized with 0 coefficients 


     atomic species   valence    mass     pseudopotential
        Au            11.00   196.96600     Au( 1.00)

     48 Sym. Ops., with inversion, found



   Cartesian axes

     site n.     atom                  positions (alat units)
         1           Au  tau(   1) = (   0.0000000   0.0000000   0.0000000  )

     number of k points=    29  gaussian smearing, width (Ry)=  0.0100
                       cart. coord. in units 2pi/alat
        k(    1) = (   0.0000000   0.0000000   0.0000000), wk =   0.0039062
        k(    2) = (  -0.1250000   0.1250000  -0.1250000), wk =   0.0312500
        k(    3) = (  -0.2500000   0.2500000  -0.2500000), wk =   0.0312500
        k(    4) = (  -0.3750000   0.3750000  -0.3750000), wk =   0.0312500
        k(    5) = (   0.5000000  -0.5000000   0.5000000), wk =   0.0156250
        k(    6) = (   0.0000000   0.2500000   0.0000000), wk =   0.0234375
        k(    7) = (  -0.1250000   0.3750000  -0.1250000), wk =   0.0937500
        k(    8) = (  -0.2500000   0.5000000  -0.2500000), wk =   0.0937500
        k(    9) = (   0.6250000  -0.3750000   0.6250000), wk =   0.0937500
        k(   10) = (   0.5000000  -0.2500000   0.5000000), wk =   0.0937500
        k(   11) = (   0.3750000  -0.1250000   0.3750000), wk =   0.0937500
        k(   12) = (   0.2500000   0.0000000   0.2500000), wk =   0.0468750
        k(   13) = (   0.0000000   0.5000000   0.0000000), wk =   0.0234375
        k(   14) = (  -0.1250000   0.6250000  -0.1250000), wk =   0.0937500
        k(   15) = (   0.7500000  -0.2500000   0.7500000), wk =   0.0937500
        k(   16) = (   0.6250000  -0.1250000   0.6250000), wk =   0.0937500
        k(   17) = (   0.5000000   0.0000000   0.5000000), wk =   0.0468750
        k(   18) = (   0.0000000   0.7500000   0.0000000), wk =   0.0234375
        k(   19) = (   0.8750000  -0.1250000   0.8750000), wk =   0.0937500
        k(   20) = (   0.7500000   0.0000000   0.7500000), wk =   0.0468750
        k(   21) = (   0.0000000  -1.0000000   0.0000000), wk =   0.0117188
        k(   22) = (  -0.2500000   0.5000000   0.0000000), wk =   0.0937500
        k(   23) = (   0.6250000  -0.3750000   0.8750000), wk =   0.1875000
        k(   24) = (   0.5000000  -0.2500000   0.7500000), wk =   0.0937500
        k(   25) = (   0.7500000  -0.2500000   1.0000000), wk =   0.0937500
        k(   26) = (   0.6250000  -0.1250000   0.8750000), wk =   0.1875000
        k(   27) = (   0.5000000   0.0000000   0.7500000), wk =   0.0937500
        k(   28) = (  -0.2500000  -1.0000000   0.0000000), wk =   0.0468750
        k(   29) = (  -0.5000000  -1.0000000   0.0000000), wk =   0.0234375

     Dense  grid:      893 G-vectors     FFT dimensions: (  15,  15,  15)

     Estimated max dynamical RAM per process >       1.55 MB

     Estimated total dynamical RAM >       7.74 MB

     Check: negative/imaginary core charge=   -0.000006    0.000000

     Initial potential from superposition of free atoms

     starting charge   10.99990, renormalised to   11.00000
     Starting wfcs are    9 randomized atomic wfcs +    1 random wfcs
     Checking if some PAW data can be deallocated... 

     total cpu time spent up to now is        1.2 secs

     Self-consistent Calculation

     iteration #  1     ecut=    15.00 Ry     beta= 0.70
     Davidson diagonalization with overlap
     ethr =  1.00E-02,  avg # of iterations =  5.1

     total cpu time spent up to now is        1.5 secs

     total energy              =    -764.40985373 Ry
     Harris-Foulkes estimate   =    -764.52772139 Ry
     estimated scf accuracy    <       0.14862485 Ry

     iteration #  2     ecut=    15.00 Ry     beta= 0.70
     Davidson diagonalization with overlap
     ethr =  1.35E-03,  avg # of iterations =  2.0

     total cpu time spent up to now is        1.7 secs

     total energy              =    -764.45783065 Ry
     Harris-Foulkes estimate   =    -764.46896477 Ry
     estimated scf accuracy    <       0.01982255 Ry

     iteration #  3     ecut=    15.00 Ry     beta= 0.70
     Davidson diagonalization with overlap
     ethr =  1.80E-04,  avg # of iterations =  1.9

     total cpu time spent up to now is        1.9 secs

     total energy              =    -764.46127990 Ry
     Harris-Foulkes estimate   =    -764.46138840 Ry
     estimated scf accuracy    <       0.00017459 Ry

     iteration #  4     ecut=    15.00 Ry     beta= 0.70
     Davidson diagonalization with overlap
     ethr =  1.59E-06,  avg # of iterations =  3.7

     total cpu time spent up to now is        2.2 secs

     total energy              =    -764.46129786 Ry
     Harris-Foulkes estimate   =    -764.46162229 Ry
     estimated scf accuracy    <       0.00003621 Ry

     iteration #  5     ecut=    15.00 Ry     beta= 0.70
     Davidson diagonalization with overlap
     ethr =  3.29E-07,  avg # of iterations =  2.7

     total cpu time spent up to now is        2.4 secs

     total energy              =    -764.46142988 Ry
     Harris-Foulkes estimate   =    -764.46143030 Ry
     estimated scf accuracy    <       0.00000133 Ry

     iteration #  6     ecut=    15.00 Ry     beta= 0.70
     Davidson diagonalization with overlap
     ethr =  1.21E-08,  avg # of iterations =  2.1

     total cpu time spent up to now is        2.7 secs

     total energy              =    -764.46143002 Ry
     Harris-Foulkes estimate   =    -764.46143017 Ry
     estimated scf accuracy    <       0.00000035 Ry

     iteration #  7     ecut=    15.00 Ry     beta= 0.70
     Davidson diagonalization with overlap
     ethr =  3.22E-09,  avg # of iterations =  1.9

     total cpu time spent up to now is        2.9 secs

     End of self-consistent calculation

          k = 0.0000 0.0000 0.0000 (   113 PWs)   bands (ev):

     5.9474  10.7227  10.7227  10.7227  12.2099  12.2099  31.4310  35.1831
    35.1831  35.1831

          k =-0.1250 0.1250-0.1250 (   116 PWs)   bands (ev):

     6.4742  10.4999  10.8994  10.8994  12.1441  12.1441  31.9108  32.5273
    35.8133  35.8133

          k =-0.2500 0.2500-0.2500 (   113 PWs)   bands (ev):

     7.6972  10.7261  10.9524  10.9524  12.4815  12.4815  27.5731  32.6484
    36.3704  36.3704

          k =-0.3750 0.3750-0.3750 (   114 PWs)   bands (ev):

     8.2035  10.7572  10.7572  12.5426  13.1577  13.1577  22.3399  31.3145
    34.4347  34.4347

          k = 0.5000-0.5000 0.5000 (   108 PWs)   bands (ev):

     8.1887  10.7479  10.7479  13.5778  13.5778  14.9219  18.9555  30.7471
    33.3617  33.3617

          k = 0.0000 0.2500 0.0000 (   117 PWs)   bands (ev):

     6.6553  10.3747  11.0017  11.0017  11.8297  12.3849  32.4469  33.5994
    34.4378  34.4378

          k =-0.1250 0.3750-0.1250 (   115 PWs)   bands (ev):

     7.7110  10.0585  11.1426  11.3069  12.0938  12.6740  29.4918  33.2713
    33.5308  35.8669

          k =-0.2500 0.5000-0.2500 (   112 PWs)   bands (ev):

     8.5428  10.6816  10.7679  11.2069  13.3318  13.5451  24.2305  32.1110
    32.4682  34.2881

          k = 0.6250-0.3750 0.6250 (   112 PWs)   bands (ev):

     8.5604  10.4587  10.9978  12.0640  13.5170  16.1706  19.5643  30.9339
    32.2914  32.3852

          k = 0.5000-0.2500 0.5000 (   114 PWs)   bands (ev):

     8.6028  10.4970  10.9725  11.9494  13.0610  15.3331  21.0516  30.4402
    32.1148  34.0545

          k = 0.3750-0.1250 0.3750 (   112 PWs)   bands (ev):

     8.4491  10.4389  10.9356  11.2897  12.1728  13.6730  26.0174  31.0475
    33.5043  37.5123

          k = 0.2500 0.0000 0.2500 (   117 PWs)   bands (ev):

     7.2857  10.2156  11.0584  11.1665  11.8348  12.5965  30.4394  32.0839
    34.5785  36.8414

          k = 0.0000 0.5000 0.0000 (   125 PWs)   bands (ev):

     8.2905   9.5002  11.3939  11.8619  11.8619  12.6875  31.1349  31.1349
    32.6837  33.1324

          k =-0.1250 0.6250-0.1250 (   116 PWs)   bands (ev):

     8.8550   9.3980  11.2404  12.1439  13.3604  13.6977  26.1982  29.7195
    30.2912  34.0579

          k = 0.7500-0.2500 0.7500 (   110 PWs)   bands (ev):

     9.0173   9.9216  11.1158  11.9697  13.6539  16.8603  21.3613  28.0323
    29.7427  33.9557

          k = 0.6250-0.1250 0.6250 (   111 PWs)   bands (ev):

     9.2943  10.1495  11.0441  11.7365  13.1283  17.7697  20.9187  26.1729
    31.6453  33.5228

          k = 0.5000 0.0000 0.5000 (   117 PWs)   bands (ev):

     9.4681  10.1751  10.5518  11.6163  12.2082  15.3974  24.5477  26.6950
    33.4190  34.8184

          k = 0.0000 0.7500 0.0000 (   113 PWs)   bands (ev):

     8.5977   8.8701  13.2385  13.2723  13.2723  13.7586  25.9581  27.6002
    27.6002  33.6469

          k = 0.8750-0.1250 0.8750 (   112 PWs)   bands (ev):

     8.6263   8.9357  12.7092  13.0252  13.6825  16.9905  22.4313  25.7459
    27.1596  34.9219

          k = 0.7500 0.0000 0.7500 (   110 PWs)   bands (ev):

     8.9237   9.6157  11.6647  12.6026  13.4030  19.6303  20.7606  23.7455
    28.8235  34.8630

          k = 0.0000-1.0000 0.0000 (   116 PWs)   bands (ev):

     8.3707   8.5400  13.4025  13.8174  13.8174  16.8814  21.5841  26.0434
    26.0434  34.3041

          k =-0.2500 0.5000 0.0000 (   114 PWs)   bands (ev):

     8.7792   9.7971  10.7751  11.9919  12.0888  13.6796  27.4449  29.6685
    33.1021  36.1918

          k = 0.6250-0.3750 0.8750 (   114 PWs)   bands (ev):

     9.2125  10.2055  10.4804  11.7848  13.0284  15.5886  23.0543  28.2605
    31.0751  35.0977

          k = 0.5000-0.2500 0.7500 (   112 PWs)   bands (ev):

     9.1733  10.0263  11.2815  11.5245  13.3747  18.6648  18.9100  28.4253
    29.8334  34.3006

          k = 0.7500-0.2500 1.0000 (   107 PWs)   bands (ev):

     9.1408   9.3155  11.3423  12.9791  13.2743  15.9264  24.2127  26.5267
    28.4473  36.1092

          k = 0.6250-0.1250 0.8750 (   108 PWs)   bands (ev):

     9.2943   9.7553  10.9868  12.3785  13.6066  19.0465  21.1524  24.9915
    27.6229  36.6306

          k = 0.5000 0.0000 0.7500 (   109 PWs)   bands (ev):

     9.7079  10.1208  10.3213  12.1130  13.2453  17.9259  23.1948  23.8229
    29.2356  36.3133

          k =-0.2500-1.0000 0.0000 (   108 PWs)   bands (ev):

     8.8362   9.0680  12.2496  12.9510  13.8772  19.1292  21.0019  25.0652
    26.0472  36.7595

          k =-0.5000-1.0000 0.0000 (   108 PWs)   bands (ev):

     9.4917  10.2910  10.2910  12.0826  13.8946  20.4905  22.4287  22.4287
    26.1056  40.5522

     the Fermi energy is    15.6887 ev

!    total energy              =    -764.46143008 Ry
     Harris-Foulkes estimate   =    -764.46143008 Ry
     estimated scf accuracy    <          3.8E-09 Ry

     total all-electron energy =    -38013.295892 Ry

     The total energy is the sum of the following terms:

     one-electron contribution =      14.09818062 Ry
     hartree contribution      =       7.16117551 Ry
     xc contribution           =     -31.61631291 Ry
     ewald contribution        =     -71.95438538 Ry
     one-center paw contrib.   =    -682.14976625 Ry
     smearing contrib. (-TS)   =      -0.00032167 Ry

     convergence has been achieved in   7 iterations

     Forces acting on atoms (cartesian axes, Ry/au):

     atom    1 type  1   force =     0.00000000    0.00000000    0.00000000

     Total force =     0.000000     Total SCF correction =     0.000000


     Computing stress (Cartesian axis) and pressure

          total   stress  (Ry/bohr**3)                   (kbar)     P=-1064.07
  -0.00723339  -0.00000000  -0.00000000      -1064.07     -0.00     -0.00
  -0.00000000  -0.00723339   0.00000000         -0.00  -1064.07      0.00
  -0.00000000   0.00000000  -0.00723339         -0.00      0.00  -1064.07


     Writing output data file Au.save/

     init_run     :      0.24s CPU      0.26s WALL (       1 calls)
     electrons    :      1.52s CPU      1.73s WALL (       1 calls)
     forces       :      0.01s CPU      0.01s WALL (       1 calls)
     stress       :      0.02s CPU      0.02s WALL (       1 calls)

     Called by init_run:
     wfcinit      :      0.03s CPU      0.03s WALL (       1 calls)
     potinit      :      0.12s CPU      0.13s WALL (       1 calls)
     hinit0       :      0.08s CPU      0.08s WALL (       1 calls)

     Called by electrons:
     c_bands      :      0.62s CPU      0.71s WALL (       7 calls)
     sum_band     :      0.07s CPU      0.08s WALL (       7 calls)
     v_of_rho     :      0.01s CPU      0.01s WALL (       8 calls)
     newd         :      0.01s CPU      0.01s WALL (       8 calls)
     PAW_pot      :      0.92s CPU      1.03s WALL (       8 calls)
     mix_rho      :      0.00s CPU      0.00s WALL (       7 calls)

     Called by c_bands:
     init_us_2    :      0.01s CPU      0.01s WALL (     493 calls)
     cegterg      :      0.60s CPU      0.69s WALL (     203 calls)

     Called by sum_band:
     sum_band:bec :      0.00s CPU      0.00s WALL (     203 calls)
     addusdens    :      0.01s CPU      0.01s WALL (       7 calls)

     Called by *egterg:
     h_psi        :      0.37s CPU      0.43s WALL (     792 calls)
     s_psi        :      0.01s CPU      0.01s WALL (     792 calls)
     g_psi        :      0.00s CPU      0.00s WALL (     560 calls)
     cdiaghg      :      0.16s CPU      0.18s WALL (     763 calls)

     Called by h_psi:
     h_psi:pot    :      0.36s CPU      0.42s WALL (     792 calls)
     h_psi:calbec :      0.02s CPU      0.03s WALL (     792 calls)
     vloc_psi     :      0.33s CPU      0.38s WALL (     792 calls)
     add_vuspsi   :      0.01s CPU      0.01s WALL (     792 calls)

     General routines
     calbec       :      0.03s CPU      0.03s WALL (    1140 calls)
     fft          :      0.00s CPU      0.00s WALL (     114 calls)
     ffts         :      0.00s CPU      0.00s WALL (       7 calls)
     fftw         :      0.34s CPU      0.40s WALL (   13464 calls)

     Parallel routines
     fft_scatt_xy :      0.03s CPU      0.04s WALL (   13585 calls)
     fft_scatt_yz :      0.17s CPU      0.19s WALL (   13585 calls)

     PWSCF        :     2.74s CPU         3.03s WALL


   This run was terminated on:  11:17:17  26Mar2024            

=------------------------------------------------------------------------------=
   JOB DONE.
=------------------------------------------------------------------------------=
