
     Program PWSCF v.6.3MaX starts on 26Mar2024 at 11:53:35 

     This program is part of the open-source Quantum ESPRESSO suite
     for quantum simulation of materials; please cite
         "P. Giannozzi et al., J. Phys.:Condens. Matter 21 395502 (2009);
         "P. Giannozzi et al., J. Phys.:Condens. Matter 29 465901 (2017);
          URL http://www.quantum-espresso.org", 
     in publications or presentations arising from this work. More details at
     http://www.quantum-espresso.org/quote

     Parallel version (MPI), running on     5 processors

     MPI processes distributed on     1 nodes
     R & G space division:  proc/nbgrp/npool/nimage =       5
     Waiting for input...
     Reading input from standard input

     Current dimensions of program PWSCF are:
     Max number of different atomic species (ntypx) = 10
     Max number of k-points (npk) =  40000
     Max angular momentum in pseudopotentials (lmaxx) =  3
               file Au.pbesol-n-kjpaw_psl.1.0.0.UPF: wavefunction(s)  6S 5D renormalized

     Subspace diagonalization in iterative solution of the eigenvalue problem:
     a serial algorithm will be used


     Parallelization info
     --------------------
     sticks:   dense  smooth     PW     G-vecs:    dense   smooth      PW
     Min          99      99     30                 1446     1446     248
     Max         100     100     31                 1449     1449     251
     Sum         499     499    151                 7239     7239    1243



     bravais-lattice index     =            2
     lattice parameter (alat)  =       7.7100  a.u.
     unit-cell volume          =     114.5785 (a.u.)^3
     number of atoms/cell      =            1
     number of atomic types    =            1
     number of electrons       =        11.00
     number of Kohn-Sham states=           10
     kinetic-energy cutoff     =      60.0000  Ry
     charge density cutoff     =     240.0000  Ry
     convergence threshold     =      1.0E-08
     mixing beta               =       0.7000
     number of iterations used =            8  plain     mixing
     Exchange-correlation      = SLA PW PSX PSC ( 1  4 10  8 0 0)

     celldm(1)=   7.710000  celldm(2)=   0.000000  celldm(3)=   0.000000
     celldm(4)=   0.000000  celldm(5)=   0.000000  celldm(6)=   0.000000

     crystal axes: (cart. coord. in units of alat)
               a(1) = (  -0.500000   0.000000   0.500000 )  
               a(2) = (   0.000000   0.500000   0.500000 )  
               a(3) = (  -0.500000   0.500000   0.000000 )  

     reciprocal axes: (cart. coord. in units 2 pi/alat)
               b(1) = ( -1.000000 -1.000000  1.000000 )  
               b(2) = (  1.000000  1.000000  1.000000 )  
               b(3) = ( -1.000000  1.000000 -1.000000 )  


     PseudoPot. # 1 for Au read from file:
     /home/lorenzo/pseudos/Au/Au.pbesol-n-kjpaw_psl.1.0.0.UPF
     MD5 check sum: abc371be705c47a6b6a6b4088b452d3e
     Pseudo is Projector augmented-wave + core cor, Zval = 11.0
     Generated using "atomic" code by A. Dal Corso v.6.3
     Shape of augmentation charge: PSQ
     Using radial grid of 1279 points,  6 beta functions with: 
                l(1) =   0
                l(2) =   0
                l(3) =   1
                l(4) =   1
                l(5) =   2
                l(6) =   2
     Q(r) pseudized with 0 coefficients 


     atomic species   valence    mass     pseudopotential
        Au            11.00   196.96600     Au( 1.00)

     48 Sym. Ops., with inversion, found



   Cartesian axes

     site n.     atom                  positions (alat units)
         1           Au  tau(   1) = (   0.0000000   0.0000000   0.0000000  )

     number of k points=     3  gaussian smearing, width (Ry)=  0.0100
                       cart. coord. in units 2pi/alat
        k(    1) = (   0.0000000   0.0000000   0.0000000), wk =   0.2500000
        k(    2) = (   0.5000000  -0.5000000   0.5000000), wk =   1.0000000
        k(    3) = (   0.0000000  -1.0000000   0.0000000), wk =   0.7500000

     Dense  grid:     7239 G-vectors     FFT dimensions: (  27,  27,  27)

     Estimated max dynamical RAM per process >       7.03 MB

     Estimated total dynamical RAM >      35.15 MB

     Initial potential from superposition of free atoms

     starting charge   10.99990, renormalised to   11.00000
     Starting wfcs are    9 randomized atomic wfcs +    1 random wfcs
     Checking if some PAW data can be deallocated... 

     total cpu time spent up to now is        1.3 secs

     Self-consistent Calculation

     iteration #  1     ecut=    60.00 Ry     beta= 0.70
     Davidson diagonalization with overlap
     ethr =  1.00E-02,  avg # of iterations =  8.7

     Threshold (ethr) on eigenvalues was too large:
     Diagonalizing with lowered threshold

     Davidson diagonalization with overlap
     ethr =  4.12E-04,  avg # of iterations =  2.0

     negative rho (up, down):  8.093E-03 0.000E+00

     total cpu time spent up to now is        1.5 secs

     total energy              =    -764.45427397 Ry
     Harris-Foulkes estimate   =    -764.44291994 Ry
     estimated scf accuracy    <       0.05122884 Ry

     iteration #  2     ecut=    60.00 Ry     beta= 0.70
     Davidson diagonalization with overlap
     ethr =  4.66E-04,  avg # of iterations =  5.0

     total cpu time spent up to now is        1.7 secs

     total energy              =    -711.10817045 Ry
     Harris-Foulkes estimate   =    -994.74866184 Ry
     estimated scf accuracy    <  207006.19282637 Ry

     iteration #  3     ecut=    60.00 Ry     beta= 0.70
     Davidson diagonalization with overlap
     ethr =  4.66E-04,  avg # of iterations =  8.7

     total cpu time spent up to now is        1.9 secs

     total energy              =    -764.42966350 Ry
     Harris-Foulkes estimate   =    -764.44469396 Ry
     estimated scf accuracy    <       0.04505774 Ry

     iteration #  4     ecut=    60.00 Ry     beta= 0.70
     Davidson diagonalization with overlap
     ethr =  4.10E-04,  avg # of iterations =  4.0

     total cpu time spent up to now is        2.0 secs

     total energy              =    -764.43112286 Ry
     Harris-Foulkes estimate   =    -764.43265269 Ry
     estimated scf accuracy    <       0.01940382 Ry

     iteration #  5     ecut=    60.00 Ry     beta= 0.70
     Davidson diagonalization with overlap
     ethr =  1.76E-04,  avg # of iterations =  4.3

     total cpu time spent up to now is        2.2 secs

     total energy              =    -764.43094891 Ry
     Harris-Foulkes estimate   =    -764.43411494 Ry
     estimated scf accuracy    <       0.01985205 Ry

     iteration #  6     ecut=    60.00 Ry     beta= 0.70
     Davidson diagonalization with overlap
     ethr =  1.76E-04,  avg # of iterations =  1.0

     total cpu time spent up to now is        2.4 secs

     total energy              =    -764.43283103 Ry
     Harris-Foulkes estimate   =    -764.43292615 Ry
     estimated scf accuracy    <       0.01518121 Ry

     iteration #  7     ecut=    60.00 Ry     beta= 0.70
     Davidson diagonalization with overlap
     ethr =  1.38E-04,  avg # of iterations =  1.0

     total cpu time spent up to now is        2.5 secs

     total energy              =    -764.43280314 Ry
     Harris-Foulkes estimate   =    -764.43287038 Ry
     estimated scf accuracy    <       0.01407132 Ry

     iteration #  8     ecut=    60.00 Ry     beta= 0.70
     Davidson diagonalization with overlap
     ethr =  1.28E-04,  avg # of iterations =  1.0

     total cpu time spent up to now is        2.7 secs

     total energy              =    -764.43280267 Ry
     Harris-Foulkes estimate   =    -764.43282397 Ry
     estimated scf accuracy    <       0.01318415 Ry

     iteration #  9     ecut=    60.00 Ry     beta= 0.70
     Davidson diagonalization with overlap
     ethr =  1.20E-04,  avg # of iterations =  1.0

     total cpu time spent up to now is        2.9 secs

     total energy              =    -764.43279507 Ry
     Harris-Foulkes estimate   =    -764.43281352 Ry
     estimated scf accuracy    <       0.01260845 Ry

     iteration # 10     ecut=    60.00 Ry     beta= 0.70
     Davidson diagonalization with overlap
     ethr =  1.15E-04,  avg # of iterations =  1.0

     total cpu time spent up to now is        3.1 secs

     total energy              =    -764.43279264 Ry
     Harris-Foulkes estimate   =    -764.43280344 Ry
     estimated scf accuracy    <       0.01241524 Ry

     iteration # 11     ecut=    60.00 Ry     beta= 0.70
     Davidson diagonalization with overlap
     ethr =  1.13E-04,  avg # of iterations =  1.0

     total cpu time spent up to now is        3.3 secs

     total energy              =    -764.43222563 Ry
     Harris-Foulkes estimate   =    -764.43279547 Ry
     estimated scf accuracy    <       0.01201259 Ry

     iteration # 12     ecut=    60.00 Ry     beta= 0.70
     Davidson diagonalization with overlap
     ethr =  1.09E-04,  avg # of iterations =  1.3

     total cpu time spent up to now is        3.5 secs

     total energy              =    -764.43222242 Ry
     Harris-Foulkes estimate   =    -764.43246985 Ry
     estimated scf accuracy    <       0.00206449 Ry

     iteration # 13     ecut=    60.00 Ry     beta= 0.70
     Davidson diagonalization with overlap
     ethr =  1.88E-05,  avg # of iterations =  1.3

     total cpu time spent up to now is        3.7 secs

     total energy              =    -764.43235285 Ry
     Harris-Foulkes estimate   =    -764.43238521 Ry
     estimated scf accuracy    <       0.00038116 Ry

     iteration # 14     ecut=    60.00 Ry     beta= 0.70
     Davidson diagonalization with overlap
     ethr =  3.47E-06,  avg # of iterations =  4.0

     total cpu time spent up to now is        3.9 secs

     total energy              =    -764.43241728 Ry
     Harris-Foulkes estimate   =    -764.43242060 Ry
     estimated scf accuracy    <       0.00039810 Ry

     iteration # 15     ecut=    60.00 Ry     beta= 0.70
     Davidson diagonalization with overlap
     ethr =  3.47E-06,  avg # of iterations =  1.0

     total cpu time spent up to now is        4.1 secs

     total energy              =    -764.43240383 Ry
     Harris-Foulkes estimate   =    -764.43242272 Ry
     estimated scf accuracy    <       0.00043242 Ry

     iteration # 16     ecut=    60.00 Ry     beta= 0.70
     Davidson diagonalization with overlap
     ethr =  3.47E-06,  avg # of iterations =  1.3

     total cpu time spent up to now is        4.2 secs

     total energy              =    -764.43240456 Ry
     Harris-Foulkes estimate   =    -764.43240978 Ry
     estimated scf accuracy    <       0.00010776 Ry

     iteration # 17     ecut=    60.00 Ry     beta= 0.70
     Davidson diagonalization with overlap
     ethr =  9.80E-07,  avg # of iterations =  1.3

     total cpu time spent up to now is        4.4 secs

     total energy              =    -764.43240463 Ry
     Harris-Foulkes estimate   =    -764.43240682 Ry
     estimated scf accuracy    <       0.00002799 Ry

     iteration # 18     ecut=    60.00 Ry     beta= 0.70
     Davidson diagonalization with overlap
     ethr =  2.54E-07,  avg # of iterations =  2.3

     total cpu time spent up to now is        4.6 secs

     total energy              =    -764.43240787 Ry
     Harris-Foulkes estimate   =    -764.43240789 Ry
     estimated scf accuracy    <       0.00000860 Ry

     iteration # 19     ecut=    60.00 Ry     beta= 0.70
     Davidson diagonalization with overlap
     ethr =  7.82E-08,  avg # of iterations =  1.7

     total cpu time spent up to now is        4.7 secs

     total energy              =    -764.43240753 Ry
     Harris-Foulkes estimate   =    -764.43240819 Ry
     estimated scf accuracy    <       0.00001375 Ry

     iteration # 20     ecut=    60.00 Ry     beta= 0.70
     Davidson diagonalization with overlap
     ethr =  7.82E-08,  avg # of iterations =  1.0

     total cpu time spent up to now is        4.9 secs

     total energy              =    -764.43240767 Ry
     Harris-Foulkes estimate   =    -764.43240772 Ry
     estimated scf accuracy    <       0.00000326 Ry

     iteration # 21     ecut=    60.00 Ry     beta= 0.70
     Davidson diagonalization with overlap
     ethr =  2.97E-08,  avg # of iterations =  1.0

     total cpu time spent up to now is        5.1 secs

     total energy              =    -764.43240759 Ry
     Harris-Foulkes estimate   =    -764.43240769 Ry
     estimated scf accuracy    <       0.00000260 Ry

     iteration # 22     ecut=    60.00 Ry     beta= 0.70
     Davidson diagonalization with overlap
     ethr =  2.37E-08,  avg # of iterations =  1.0

     total cpu time spent up to now is        5.2 secs

     total energy              =    -764.43240763 Ry
     Harris-Foulkes estimate   =    -764.43240764 Ry
     estimated scf accuracy    <       0.00000040 Ry

     iteration # 23     ecut=    60.00 Ry     beta= 0.70
     Davidson diagonalization with overlap
     ethr =  3.62E-09,  avg # of iterations =  2.0

     total cpu time spent up to now is        5.4 secs

     total energy              =    -764.43240765 Ry
     Harris-Foulkes estimate   =    -764.43240766 Ry
     estimated scf accuracy    <       0.00000006 Ry

     iteration # 24     ecut=    60.00 Ry     beta= 0.70
     Davidson diagonalization with overlap
     ethr =  5.72E-10,  avg # of iterations =  3.3

     total cpu time spent up to now is        5.6 secs

     total energy              =    -764.43240766 Ry
     Harris-Foulkes estimate   =    -764.43240768 Ry
     estimated scf accuracy    <       0.00000027 Ry

     iteration # 25     ecut=    60.00 Ry     beta= 0.70
     Davidson diagonalization with overlap
     ethr =  5.72E-10,  avg # of iterations =  1.7

     total cpu time spent up to now is        5.7 secs

     End of self-consistent calculation

          k = 0.0000 0.0000 0.0000 (   893 PWs)   bands (ev):

     5.8304  11.4608  11.4608  11.4608  13.0910  13.0910  31.0252  35.0162
    35.0162  35.0162

          k = 0.5000-0.5000 0.5000 (   886 PWs)   bands (ev):

     8.6186  11.4375  11.4375  14.3211  14.3211  14.7401  19.1785  30.3436
    33.3952  33.3952

          k = 0.0000-1.0000 0.0000 (   934 PWs)   bands (ev):

     8.9311   9.2942  14.2948  14.6471  14.6471  16.7465  21.7417  25.9886
    25.9886  32.8341

     the Fermi energy is    14.8218 ev

!    total energy              =    -764.43240767 Ry
     Harris-Foulkes estimate   =    -764.43240767 Ry
     estimated scf accuracy    <          2.0E-10 Ry

     total all-electron energy =    -38013.266870 Ry

     The total energy is the sum of the following terms:

     one-electron contribution =      13.99055685 Ry
     hartree contribution      =       7.85770862 Ry
     xc contribution           =     -31.93782493 Ry
     ewald contribution        =     -71.95438535 Ry
     one-center paw contrib.   =    -682.38568206 Ry
     smearing contrib. (-TS)   =      -0.00278079 Ry

     convergence has been achieved in  25 iterations

     Forces acting on atoms (cartesian axes, Ry/au):

     atom    1 type  1   force =     0.00000000    0.00000000    0.00000000

     Total force =     0.000000     Total SCF correction =     0.000000


     Computing stress (Cartesian axis) and pressure

          total   stress  (Ry/bohr**3)                   (kbar)     P=  494.79
   0.00336355  -0.00000000   0.00000000        494.79     -0.00      0.00
  -0.00000000   0.00336355  -0.00000000         -0.00    494.79     -0.00
   0.00000000   0.00000000   0.00336355          0.00      0.00    494.79


     Writing output data file Au.save/

     init_run     :      0.34s CPU      0.36s WALL (       1 calls)
     electrons    :      3.95s CPU      4.42s WALL (       1 calls)
     forces       :      0.02s CPU      0.02s WALL (       1 calls)
     stress       :      0.07s CPU      0.08s WALL (       1 calls)

     Called by init_run:
     wfcinit      :      0.01s CPU      0.01s WALL (       1 calls)
     potinit      :      0.12s CPU      0.14s WALL (       1 calls)
     hinit0       :      0.19s CPU      0.19s WALL (       1 calls)

     Called by electrons:
     c_bands      :      0.64s CPU      0.67s WALL (      26 calls)
     sum_band     :      0.37s CPU      0.38s WALL (      26 calls)
     v_of_rho     :      0.11s CPU      0.12s WALL (      26 calls)
     newd         :      0.20s CPU      0.23s WALL (      26 calls)
     PAW_pot      :      2.72s CPU      3.11s WALL (      26 calls)
     mix_rho      :      0.02s CPU      0.02s WALL (      26 calls)

     Called by c_bands:
     init_us_2    :      0.02s CPU      0.02s WALL (     165 calls)
     cegterg      :      0.60s CPU      0.63s WALL (      78 calls)

     Called by sum_band:
     sum_band:bec :      0.00s CPU      0.00s WALL (      78 calls)
     addusdens    :      0.19s CPU      0.19s WALL (      26 calls)

     Called by *egterg:
     h_psi        :      0.46s CPU      0.49s WALL (     270 calls)
     s_psi        :      0.01s CPU      0.01s WALL (     270 calls)
     g_psi        :      0.00s CPU      0.00s WALL (     189 calls)
     cdiaghg      :      0.06s CPU      0.06s WALL (     264 calls)

     Called by h_psi:
     h_psi:pot    :      0.46s CPU      0.48s WALL (     270 calls)
     h_psi:calbec :      0.02s CPU      0.02s WALL (     270 calls)
     vloc_psi     :      0.42s CPU      0.44s WALL (     270 calls)
     add_vuspsi   :      0.01s CPU      0.01s WALL (     270 calls)

     General routines
     calbec       :      0.03s CPU      0.03s WALL (     363 calls)
     fft          :      0.07s CPU      0.07s WALL (     313 calls)
     ffts         :      0.00s CPU      0.00s WALL (      26 calls)
     fftw         :      0.48s CPU      0.51s WALL (    4498 calls)

     Parallel routines
     fft_scatt_xy :      0.04s CPU      0.05s WALL (    4837 calls)
     fft_scatt_yz :      0.18s CPU      0.18s WALL (    4837 calls)

     PWSCF        :     5.32s CPU         5.84s WALL


   This run was terminated on:  11:53:41  26Mar2024            

=------------------------------------------------------------------------------=
   JOB DONE.
=------------------------------------------------------------------------------=
