
     Program PWSCF v.6.3MaX starts on 26Mar2024 at 11:38:59 

     This program is part of the open-source Quantum ESPRESSO suite
     for quantum simulation of materials; please cite
         "P. Giannozzi et al., J. Phys.:Condens. Matter 21 395502 (2009);
         "P. Giannozzi et al., J. Phys.:Condens. Matter 29 465901 (2017);
          URL http://www.quantum-espresso.org", 
     in publications or presentations arising from this work. More details at
     http://www.quantum-espresso.org/quote

     Parallel version (MPI), running on     5 processors

     MPI processes distributed on     1 nodes
     R & G space division:  proc/nbgrp/npool/nimage =       5
     Waiting for input...
     Reading input from standard input

     Current dimensions of program PWSCF are:
     Max number of different atomic species (ntypx) = 10
     Max number of k-points (npk) =  40000
     Max angular momentum in pseudopotentials (lmaxx) =  3

     Subspace diagonalization in iterative solution of the eigenvalue problem:
     a serial algorithm will be used


     Parallelization info
     --------------------
     sticks:   dense  smooth     PW     G-vecs:    dense   smooth      PW
     Min          73      73     24                  928      928     178
     Max          74      74     25                  930      930     181
     Sum         367     367    121                 4645     4645     893



     bravais-lattice index     =            2
     lattice parameter (alat)  =       7.7100  a.u.
     unit-cell volume          =     114.5785 (a.u.)^3
     number of atoms/cell      =            1
     number of atomic types    =            1
     number of electrons       =        11.00
     number of Kohn-Sham states=           10
     kinetic-energy cutoff     =      45.0000  Ry
     charge density cutoff     =     180.0000  Ry
     convergence threshold     =      1.0E-08
     mixing beta               =       0.7000
     number of iterations used =            8  plain     mixing
     Exchange-correlation      = PBESOL ( 1  4 10  8 0 0)

     celldm(1)=   7.710000  celldm(2)=   0.000000  celldm(3)=   0.000000
     celldm(4)=   0.000000  celldm(5)=   0.000000  celldm(6)=   0.000000

     crystal axes: (cart. coord. in units of alat)
               a(1) = (  -0.500000   0.000000   0.500000 )  
               a(2) = (   0.000000   0.500000   0.500000 )  
               a(3) = (  -0.500000   0.500000   0.000000 )  

     reciprocal axes: (cart. coord. in units 2 pi/alat)
               b(1) = ( -1.000000 -1.000000  1.000000 )  
               b(2) = (  1.000000  1.000000  1.000000 )  
               b(3) = ( -1.000000  1.000000 -1.000000 )  


     PseudoPot. # 1 for Au read from file:
     /home/lorenzo/pseudos/Au/Au.pbesol-n-rrkjus_psl.1.0.0.UPF
     MD5 check sum: 09626e9411213730b9a56fcc59c03ca8
     Pseudo is Ultrasoft + core correction, Zval = 11.0
     Generated using "atomic" code by A. Dal Corso v.6.3
     Using radial grid of 1279 points,  6 beta functions with: 
                l(1) =   0
                l(2) =   0
                l(3) =   1
                l(4) =   1
                l(5) =   2
                l(6) =   2
     Q(r) pseudized with 0 coefficients 


     atomic species   valence    mass     pseudopotential
        Au            11.00   196.96600     Au( 1.00)

     48 Sym. Ops., with inversion, found



   Cartesian axes

     site n.     atom                  positions (alat units)
         1           Au  tau(   1) = (   0.0000000   0.0000000   0.0000000  )

     number of k points=    20  gaussian smearing, width (Ry)=  0.0100
                       cart. coord. in units 2pi/alat
        k(    1) = (   0.0000000   0.0000000   0.0000000), wk =   0.0058309
        k(    2) = (  -0.1428571   0.1428571  -0.1428571), wk =   0.0466472
        k(    3) = (  -0.2857143   0.2857143  -0.2857143), wk =   0.0466472
        k(    4) = (  -0.4285714   0.4285714  -0.4285714), wk =   0.0466472
        k(    5) = (   0.0000000   0.2857143   0.0000000), wk =   0.0349854
        k(    6) = (  -0.1428571   0.4285714  -0.1428571), wk =   0.1399417
        k(    7) = (  -0.2857143   0.5714286  -0.2857143), wk =   0.1399417
        k(    8) = (   0.5714286  -0.2857143   0.5714286), wk =   0.1399417
        k(    9) = (   0.4285714  -0.1428571   0.4285714), wk =   0.1399417
        k(   10) = (   0.2857143  -0.0000000   0.2857143), wk =   0.0699708
        k(   11) = (   0.0000000   0.5714286   0.0000000), wk =   0.0349854
        k(   12) = (  -0.1428571   0.7142857  -0.1428571), wk =   0.1399417
        k(   13) = (   0.7142857  -0.1428571   0.7142857), wk =   0.1399417
        k(   14) = (   0.5714286   0.0000000   0.5714286), wk =   0.0699708
        k(   15) = (   0.0000000   0.8571429   0.0000000), wk =   0.0349854
        k(   16) = (   0.8571429  -0.0000000   0.8571429), wk =   0.0699708
        k(   17) = (  -0.2857143   0.5714286   0.0000000), wk =   0.1399417
        k(   18) = (   0.5714286  -0.2857143   0.8571429), wk =   0.2798834
        k(   19) = (   0.7142857  -0.1428571   1.0000000), wk =   0.1399417
        k(   20) = (   0.5714286   0.0000000   0.8571429), wk =   0.1399417

     Dense  grid:     4645 G-vectors     FFT dimensions: (  24,  24,  24)

     Estimated max dynamical RAM per process >       5.16 MB

     Estimated total dynamical RAM >      25.81 MB

     Initial potential from superposition of free atoms

     starting charge   10.99990, renormalised to   11.00000
     Starting wfcs are    9 randomized atomic wfcs +    1 random wfcs

     total cpu time spent up to now is        1.1 secs

     Self-consistent Calculation

     iteration #  1     ecut=    45.00 Ry     beta= 0.70
     Davidson diagonalization with overlap
     ethr =  1.00E-02,  avg # of iterations =  5.5

     Threshold (ethr) on eigenvalues was too large:
     Diagonalizing with lowered threshold

     Davidson diagonalization with overlap
     ethr =  5.63E-04,  avg # of iterations =  1.6

     total cpu time spent up to now is        1.4 secs

     total energy              =     -85.20505623 Ry
     Harris-Foulkes estimate   =     -85.23206218 Ry
     estimated scf accuracy    <       0.06372381 Ry

     iteration #  2     ecut=    45.00 Ry     beta= 0.70
     Davidson diagonalization with overlap
     ethr =  5.79E-04,  avg # of iterations =  4.5

     total cpu time spent up to now is        1.7 secs

     total energy              =     -34.67991279 Ry
     Harris-Foulkes estimate   =    -282.12781993 Ry
     estimated scf accuracy    <  159101.90924871 Ry

     iteration #  3     ecut=    45.00 Ry     beta= 0.70
     Davidson diagonalization with overlap
     ethr =  5.79E-04,  avg # of iterations =  7.3

     total cpu time spent up to now is        1.9 secs

     total energy              =     -85.20835848 Ry
     Harris-Foulkes estimate   =     -85.21916164 Ry
     estimated scf accuracy    <       0.02414859 Ry

     iteration #  4     ecut=    45.00 Ry     beta= 0.70
     Davidson diagonalization with overlap
     ethr =  2.20E-04,  avg # of iterations =  2.2

     total cpu time spent up to now is        2.1 secs

     total energy              =     -85.21160741 Ry
     Harris-Foulkes estimate   =     -85.21179482 Ry
     estimated scf accuracy    <       0.00585065 Ry

     iteration #  5     ecut=    45.00 Ry     beta= 0.70
     Davidson diagonalization with overlap
     ethr =  5.32E-05,  avg # of iterations =  2.5

     total cpu time spent up to now is        2.2 secs

     total energy              =     -85.21207930 Ry
     Harris-Foulkes estimate   =     -85.21210362 Ry
     estimated scf accuracy    <       0.00332926 Ry

     iteration #  6     ecut=    45.00 Ry     beta= 0.70
     Davidson diagonalization with overlap
     ethr =  3.03E-05,  avg # of iterations =  1.0

     total cpu time spent up to now is        2.4 secs

     total energy              =     -85.21214361 Ry
     Harris-Foulkes estimate   =     -85.21215357 Ry
     estimated scf accuracy    <       0.00322498 Ry

     iteration #  7     ecut=    45.00 Ry     beta= 0.70
     Davidson diagonalization with overlap
     ethr =  2.93E-05,  avg # of iterations =  1.0

     total cpu time spent up to now is        2.5 secs

     total energy              =     -85.21216914 Ry
     Harris-Foulkes estimate   =     -85.21216987 Ry
     estimated scf accuracy    <       0.00320327 Ry

     iteration #  8     ecut=    45.00 Ry     beta= 0.70
     Davidson diagonalization with overlap
     ethr =  2.91E-05,  avg # of iterations =  1.0

     total cpu time spent up to now is        2.6 secs

     total energy              =     -85.21217648 Ry
     Harris-Foulkes estimate   =     -85.21217920 Ry
     estimated scf accuracy    <       0.00317758 Ry

     iteration #  9     ecut=    45.00 Ry     beta= 0.70
     Davidson diagonalization with overlap
     ethr =  2.89E-05,  avg # of iterations =  1.0

     total cpu time spent up to now is        2.7 secs

     total energy              =     -85.21217261 Ry
     Harris-Foulkes estimate   =     -85.21218032 Ry
     estimated scf accuracy    <       0.00313583 Ry

     iteration # 10     ecut=    45.00 Ry     beta= 0.70
     Davidson diagonalization with overlap
     ethr =  2.85E-05,  avg # of iterations =  1.0

     total cpu time spent up to now is        2.8 secs

     total energy              =     -85.21217472 Ry
     Harris-Foulkes estimate   =     -85.21217505 Ry
     estimated scf accuracy    <       0.00306470 Ry

     iteration # 11     ecut=    45.00 Ry     beta= 0.70
     Davidson diagonalization with overlap
     ethr =  2.79E-05,  avg # of iterations =  1.0

     total cpu time spent up to now is        2.9 secs

     total energy              =     -85.21209816 Ry
     Harris-Foulkes estimate   =     -85.21217597 Ry
     estimated scf accuracy    <       0.00304239 Ry

     iteration # 12     ecut=    45.00 Ry     beta= 0.70
     Davidson diagonalization with overlap
     ethr =  2.77E-05,  avg # of iterations =  2.6

     total cpu time spent up to now is        3.1 secs

     total energy              =     -85.21208969 Ry
     Harris-Foulkes estimate   =     -85.21246141 Ry
     estimated scf accuracy    <       0.00145527 Ry

     iteration # 13     ecut=    45.00 Ry     beta= 0.70
     Davidson diagonalization with overlap
     ethr =  1.32E-05,  avg # of iterations =  1.1

     total cpu time spent up to now is        3.2 secs

     total energy              =     -85.21187773 Ry
     Harris-Foulkes estimate   =     -85.21213873 Ry
     estimated scf accuracy    <       0.00056636 Ry

     iteration # 14     ecut=    45.00 Ry     beta= 0.70
     Davidson diagonalization with overlap
     ethr =  5.15E-06,  avg # of iterations =  2.2

     total cpu time spent up to now is        3.3 secs

     total energy              =     -85.21194538 Ry
     Harris-Foulkes estimate   =     -85.21195683 Ry
     estimated scf accuracy    <       0.00002908 Ry

     iteration # 15     ecut=    45.00 Ry     beta= 0.70
     Davidson diagonalization with overlap
     ethr =  2.64E-07,  avg # of iterations =  3.0

     total cpu time spent up to now is        3.5 secs

     total energy              =     -85.21195728 Ry
     Harris-Foulkes estimate   =     -85.21195729 Ry
     estimated scf accuracy    <       0.00000036 Ry

     iteration # 16     ecut=    45.00 Ry     beta= 0.70
     Davidson diagonalization with overlap
     ethr =  3.26E-09,  avg # of iterations =  3.4

     total cpu time spent up to now is        3.6 secs

     total energy              =     -85.21195751 Ry
     Harris-Foulkes estimate   =     -85.21195749 Ry
     estimated scf accuracy    <       0.00000029 Ry

     iteration # 17     ecut=    45.00 Ry     beta= 0.70
     Davidson diagonalization with overlap
     ethr =  2.63E-09,  avg # of iterations =  1.9

     total cpu time spent up to now is        3.7 secs

     total energy              =     -85.21195743 Ry
     Harris-Foulkes estimate   =     -85.21195755 Ry
     estimated scf accuracy    <       0.00000037 Ry

     iteration # 18     ecut=    45.00 Ry     beta= 0.70
     Davidson diagonalization with overlap
     ethr =  2.63E-09,  avg # of iterations =  1.9

     total cpu time spent up to now is        3.9 secs

     total energy              =     -85.21195742 Ry
     Harris-Foulkes estimate   =     -85.21195748 Ry
     estimated scf accuracy    <       0.00000022 Ry

     iteration # 19     ecut=    45.00 Ry     beta= 0.70
     Davidson diagonalization with overlap
     ethr =  2.04E-09,  avg # of iterations =  1.0

     total cpu time spent up to now is        4.0 secs

     total energy              =     -85.21195742 Ry
     Harris-Foulkes estimate   =     -85.21195743 Ry
     estimated scf accuracy    <       0.00000009 Ry

     iteration # 20     ecut=    45.00 Ry     beta= 0.70
     Davidson diagonalization with overlap
     ethr =  8.33E-10,  avg # of iterations =  1.8

     total cpu time spent up to now is        4.1 secs

     End of self-consistent calculation

          k = 0.0000 0.0000 0.0000 (   561 PWs)   bands (ev):

     5.8362  11.1389  11.1389  11.1389  12.6824  12.6824  31.1408  35.0008
    35.0008  35.0008

          k =-0.1429 0.1429-0.1429 (   576 PWs)   bands (ev):

     6.5239  10.9504  11.3440  11.3440  12.6210  12.6210  31.0722  32.1438
    35.6238  35.6238

          k =-0.2857 0.2857-0.2857 (   583 PWs)   bands (ev):

     7.9840  11.2160  11.3788  11.3788  13.0311  13.0311  25.6637  31.7982
    35.6413  35.6413

          k =-0.4286 0.4286-0.4286 (   589 PWs)   bands (ev):

     8.4474  11.1412  11.1412  13.7549  13.7731  13.7731  20.2569  30.5977
    33.6909  33.6909

          k = 0.0000 0.2857 0.0000 (   572 PWs)   bands (ev):

     6.7592  10.6826  11.5674  11.5674  12.2091  12.8884  32.1671  32.9580
    33.7112  33.7112

          k =-0.1429 0.4286-0.1429 (   584 PWs)   bands (ev):

     8.0746  10.4024  11.4304  11.8412  12.7158  13.2584  27.9435  32.3674
    32.4301  34.4463

          k =-0.2857 0.5714-0.2857 (   590 PWs)   bands (ev):

     8.8969  10.9089  11.3971  11.6443  13.8707  14.7651  22.1339  30.8074
    31.5555  32.7412

          k = 0.5714-0.2857 0.5714 (   582 PWs)   bands (ev):

     8.9562  10.8070  11.4898  12.2911  13.7336  16.7360  19.1930  29.5514
    31.7752  32.4946

          k = 0.4286-0.1429 0.4286 (   583 PWs)   bands (ev):

     8.8593  10.9421  11.2556  11.6400  12.7987  14.5274  24.0918  29.5501
    32.6473  35.6076

          k = 0.2857-0.0000 0.2857 (   576 PWs)   bands (ev):

     7.5642  10.6398  11.4767  11.7100  12.1998  13.2291  29.2138  30.8487
    34.6974  35.5456

          k = 0.0000 0.5714 0.0000 (   584 PWs)   bands (ev):

     8.6743   9.7750  12.0202  12.7290  12.7290  13.3741  29.7170  29.7170
    30.4911  32.3033

          k =-0.1429 0.7143-0.1429 (   587 PWs)   bands (ev):

     9.1635   9.6824  11.9399  12.8041  13.9331  15.0604  24.4119  27.7099
    28.4795  33.3945

          k = 0.7143-0.1429 0.7143 (   589 PWs)   bands (ev):

     9.4482  10.2528  11.5706  12.5097  13.8203  18.9725  19.7497  25.2720
    29.4438  33.1201

          k = 0.5714 0.0000 0.5714 (   584 PWs)   bands (ev):

     9.8523  10.7509  10.8040  12.2199  13.0211  16.6445  23.4193  24.4539
    32.3458  32.7617

          k = 0.0000 0.8571 0.0000 (   592 PWs)   bands (ev):

     8.7807   9.1360  13.7893  14.0021  14.0021  15.3826  23.3465  26.4627
    26.4627  32.6850

          k = 0.8571-0.0000 0.8571 (   598 PWs)   bands (ev):

     8.9743   9.3439  13.0687  13.5025  14.0797  18.4167  21.0236  24.4008
    26.8660  33.8199

          k =-0.2857 0.5714 0.0000 (   584 PWs)   bands (ev):

     9.3107  10.1110  10.9795  12.6488  12.7266  14.6144  25.9281  27.7714
    30.9654  36.1775

          k = 0.5714-0.2857 0.8571 (   577 PWs)   bands (ev):

     9.7143  10.3934  11.0346  12.3100  13.6450  17.1641  21.2567  26.8688
    28.8806  34.9032

          k = 0.7143-0.1429 1.0000 (   584 PWs)   bands (ev):

     9.3877   9.6435  11.8803  13.2267  13.9971  17.7008  22.5646  24.9855
    26.1000  36.2456

          k = 0.5714 0.0000 0.8571 (   591 PWs)   bands (ev):

     9.7922  10.2655  11.1084  12.6145  13.9897  19.6076  21.7023  22.8420
    26.7164  36.3653

     the Fermi energy is    15.3631 ev

!    total energy              =     -85.21195744 Ry
     Harris-Foulkes estimate   =     -85.21195743 Ry
     estimated scf accuracy    <          2.0E-09 Ry

     The total energy is the sum of the following terms:

     one-electron contribution =      11.00709753 Ry
     hartree contribution      =       7.54360507 Ry
     xc contribution           =     -31.80817512 Ry
     ewald contribution        =     -71.95438543 Ry
     smearing contrib. (-TS)   =      -0.00009949 Ry

     convergence has been achieved in  20 iterations

     Forces acting on atoms (cartesian axes, Ry/au):

     atom    1 type  1   force =     0.00000000    0.00000000    0.00000000

     Total force =     0.000000     Total SCF correction =     0.000000


     Computing stress (Cartesian axis) and pressure

          total   stress  (Ry/bohr**3)                   (kbar)     P=   11.93
   0.00008110  -0.00000000  -0.00000000         11.93     -0.00     -0.00
  -0.00000000   0.00008110   0.00000000         -0.00     11.93      0.00
  -0.00000000   0.00000000   0.00008110         -0.00      0.00     11.93


     Writing output data file Au.save/

     init_run     :      0.20s CPU      0.21s WALL (       1 calls)
     electrons    :      2.83s CPU      3.04s WALL (       1 calls)
     forces       :      0.03s CPU      0.03s WALL (       1 calls)
     stress       :      0.07s CPU      0.07s WALL (       1 calls)

     Called by init_run:
     wfcinit      :      0.04s CPU      0.05s WALL (       1 calls)
     potinit      :      0.01s CPU      0.01s WALL (       1 calls)
     hinit0       :      0.15s CPU      0.15s WALL (       1 calls)

     Called by electrons:
     c_bands      :      2.21s CPU      2.37s WALL (      21 calls)
     sum_band     :      0.46s CPU      0.50s WALL (      21 calls)
     v_of_rho     :      0.06s CPU      0.06s WALL (      21 calls)
     newd         :      0.10s CPU      0.10s WALL (      21 calls)
     mix_rho      :      0.01s CPU      0.01s WALL (      21 calls)

     Called by c_bands:
     init_us_2    :      0.07s CPU      0.07s WALL (     900 calls)
     cegterg      :      2.11s CPU      2.26s WALL (     420 calls)

     Called by sum_band:
     sum_band:bec :      0.00s CPU      0.00s WALL (     420 calls)
     addusdens    :      0.09s CPU      0.09s WALL (      21 calls)

     Called by *egterg:
     h_psi        :      1.51s CPU      1.63s WALL (    1406 calls)
     s_psi        :      0.05s CPU      0.05s WALL (    1406 calls)
     g_psi        :      0.01s CPU      0.01s WALL (     966 calls)
     cdiaghg      :      0.30s CPU      0.32s WALL (    1366 calls)

     Called by h_psi:
     h_psi:pot    :      1.50s CPU      1.62s WALL (    1406 calls)
     h_psi:calbec :      0.08s CPU      0.09s WALL (    1406 calls)
     vloc_psi     :      1.36s CPU      1.47s WALL (    1406 calls)
     add_vuspsi   :      0.05s CPU      0.05s WALL (    1406 calls)

     General routines
     calbec       :      0.12s CPU      0.13s WALL (    1926 calls)
     fft          :      0.04s CPU      0.04s WALL (     258 calls)
     ffts         :      0.00s CPU      0.00s WALL (      21 calls)
     fftw         :      1.51s CPU      1.64s WALL (   24746 calls)

     Parallel routines
     fft_scatt_xy :      0.14s CPU      0.15s WALL (   25025 calls)
     fft_scatt_yz :      0.47s CPU      0.51s WALL (   25025 calls)

     PWSCF        :     4.00s CPU         4.26s WALL


   This run was terminated on:  11:39: 3  26Mar2024            

=------------------------------------------------------------------------------=
   JOB DONE.
=------------------------------------------------------------------------------=
