
     Program PWSCF v.6.3MaX starts on 26Mar2024 at 12:21: 3 

     This program is part of the open-source Quantum ESPRESSO suite
     for quantum simulation of materials; please cite
         "P. Giannozzi et al., J. Phys.:Condens. Matter 21 395502 (2009);
         "P. Giannozzi et al., J. Phys.:Condens. Matter 29 465901 (2017);
          URL http://www.quantum-espresso.org", 
     in publications or presentations arising from this work. More details at
     http://www.quantum-espresso.org/quote

     Parallel version (MPI), running on     5 processors

     MPI processes distributed on     1 nodes
     R & G space division:  proc/nbgrp/npool/nimage =       5
     Waiting for input...
     Reading input from standard input

     Current dimensions of program PWSCF are:
     Max number of different atomic species (ntypx) = 10
     Max number of k-points (npk) =  40000
     Max angular momentum in pseudopotentials (lmaxx) =  3
               file Au.pbe-n-kjpaw_psl.1.0.0.UPF: wavefunction(s)  6S 5D renormalized

     Subspace diagonalization in iterative solution of the eigenvalue problem:
     a serial algorithm will be used


     Parallelization info
     --------------------
     sticks:   dense  smooth     PW     G-vecs:    dense   smooth      PW
     Min         129     129     39                 2201     2201     376
     Max         130     130     40                 2204     2204     380
     Sum         649     649    199                11017    11017    1893



     bravais-lattice index     =            2
     lattice parameter (alat)  =       7.7100  a.u.
     unit-cell volume          =     114.5785 (a.u.)^3
     number of atoms/cell      =            1
     number of atomic types    =            1
     number of electrons       =        11.00
     number of Kohn-Sham states=           10
     kinetic-energy cutoff     =      80.0000  Ry
     charge density cutoff     =     320.0000  Ry
     convergence threshold     =      1.0E-08
     mixing beta               =       0.7000
     number of iterations used =            8  plain     mixing
     Exchange-correlation      = SLA PW PBX PBC ( 1  4  3  4 0 0)

     celldm(1)=   7.710000  celldm(2)=   0.000000  celldm(3)=   0.000000
     celldm(4)=   0.000000  celldm(5)=   0.000000  celldm(6)=   0.000000

     crystal axes: (cart. coord. in units of alat)
               a(1) = (  -0.500000   0.000000   0.500000 )  
               a(2) = (   0.000000   0.500000   0.500000 )  
               a(3) = (  -0.500000   0.500000   0.000000 )  

     reciprocal axes: (cart. coord. in units 2 pi/alat)
               b(1) = ( -1.000000 -1.000000  1.000000 )  
               b(2) = (  1.000000  1.000000  1.000000 )  
               b(3) = ( -1.000000  1.000000 -1.000000 )  


     PseudoPot. # 1 for Au read from file:
     /home/lorenzo/pseudos/Au/Au.pbe-n-kjpaw_psl.1.0.0.UPF
     MD5 check sum: 4db85c736373c707a97ce4c36c2a9d23
     Pseudo is Projector augmented-wave + core cor, Zval = 11.0
     Generated using "atomic" code by A. Dal Corso v.6.3
     Shape of augmentation charge: PSQ
     Using radial grid of 1279 points,  6 beta functions with: 
                l(1) =   0
                l(2) =   0
                l(3) =   1
                l(4) =   1
                l(5) =   2
                l(6) =   2
     Q(r) pseudized with 0 coefficients 


     atomic species   valence    mass     pseudopotential
        Au            11.00   196.96600     Au( 1.00)

     48 Sym. Ops., with inversion, found



   Cartesian axes

     site n.     atom                  positions (alat units)
         1           Au  tau(   1) = (   0.0000000   0.0000000   0.0000000  )

     number of k points=    10  gaussian smearing, width (Ry)=  0.0100
                       cart. coord. in units 2pi/alat
        k(    1) = (   0.0000000   0.0000000   0.0000000), wk =   0.0160000
        k(    2) = (  -0.2000000   0.2000000  -0.2000000), wk =   0.1280000
        k(    3) = (  -0.4000000   0.4000000  -0.4000000), wk =   0.1280000
        k(    4) = (   0.0000000   0.4000000   0.0000000), wk =   0.0960000
        k(    5) = (  -0.2000000   0.6000000  -0.2000000), wk =   0.3840000
        k(    6) = (   0.6000000  -0.2000000   0.6000000), wk =   0.3840000
        k(    7) = (   0.4000000   0.0000000   0.4000000), wk =   0.1920000
        k(    8) = (   0.0000000   0.8000000   0.0000000), wk =   0.0960000
        k(    9) = (   0.8000000   0.0000000   0.8000000), wk =   0.1920000
        k(   10) = (   0.6000000  -0.2000000   1.0000000), wk =   0.3840000

     Dense  grid:    11017 G-vectors     FFT dimensions: (  32,  32,  32)

     Estimated max dynamical RAM per process >      10.46 MB

     Estimated total dynamical RAM >      52.29 MB

     Initial potential from superposition of free atoms

     starting charge   10.99989, renormalised to   11.00000
     Starting wfcs are    9 randomized atomic wfcs +    1 random wfcs
     Checking if some PAW data can be deallocated... 

     total cpu time spent up to now is        1.3 secs

     Self-consistent Calculation

     iteration #  1     ecut=    80.00 Ry     beta= 0.70
     Davidson diagonalization with overlap
     ethr =  1.00E-02,  avg # of iterations =  5.3

     Threshold (ethr) on eigenvalues was too large:
     Diagonalizing with lowered threshold

     Davidson diagonalization with overlap
     ethr =  4.64E-04,  avg # of iterations =  2.0

     total cpu time spent up to now is        1.8 secs

     total energy              =    -775.12535004 Ry
     Harris-Foulkes estimate   =    -775.16114848 Ry
     estimated scf accuracy    <       0.05285231 Ry

     iteration #  2     ecut=    80.00 Ry     beta= 0.70
     Davidson diagonalization with overlap
     ethr =  4.80E-04,  avg # of iterations =  2.6

     total cpu time spent up to now is        2.1 secs

     total energy              =    -775.14144481 Ry
     Harris-Foulkes estimate   =    -775.15126862 Ry
     estimated scf accuracy    <       0.01628921 Ry

     iteration #  3     ecut=    80.00 Ry     beta= 0.70
     Davidson diagonalization with overlap
     ethr =  1.48E-04,  avg # of iterations =  2.0

     total cpu time spent up to now is        2.4 secs

     total energy              =    -775.14498241 Ry
     Harris-Foulkes estimate   =    -775.14502662 Ry
     estimated scf accuracy    <       0.00024125 Ry

     iteration #  4     ecut=    80.00 Ry     beta= 0.70
     Davidson diagonalization with overlap
     ethr =  2.19E-06,  avg # of iterations =  4.4

     total cpu time spent up to now is        2.7 secs

     total energy              =    -775.14522941 Ry
     Harris-Foulkes estimate   =    -775.14534918 Ry
     estimated scf accuracy    <       0.00025216 Ry

     iteration #  5     ecut=    80.00 Ry     beta= 0.70
     Davidson diagonalization with overlap
     ethr =  2.19E-06,  avg # of iterations =  1.0

     total cpu time spent up to now is        2.9 secs

     total energy              =    -775.14524122 Ry
     Harris-Foulkes estimate   =    -775.14525439 Ry
     estimated scf accuracy    <       0.00002396 Ry

     iteration #  6     ecut=    80.00 Ry     beta= 0.70
     Davidson diagonalization with overlap
     ethr =  2.18E-07,  avg # of iterations =  2.8

     total cpu time spent up to now is        3.2 secs

     total energy              =    -775.14525239 Ry
     Harris-Foulkes estimate   =    -775.14525228 Ry
     estimated scf accuracy    <       0.00000029 Ry

     iteration #  7     ecut=    80.00 Ry     beta= 0.70
     Davidson diagonalization with overlap
     ethr =  2.61E-09,  avg # of iterations =  3.5

     total cpu time spent up to now is        3.5 secs

     total energy              =    -775.14525243 Ry
     Harris-Foulkes estimate   =    -775.14525267 Ry
     estimated scf accuracy    <       0.00000067 Ry

     iteration #  8     ecut=    80.00 Ry     beta= 0.70
     Davidson diagonalization with overlap
     ethr =  2.61E-09,  avg # of iterations =  1.0

     total cpu time spent up to now is        3.7 secs

     total energy              =    -775.14525236 Ry
     Harris-Foulkes estimate   =    -775.14525246 Ry
     estimated scf accuracy    <       0.00000017 Ry

     iteration #  9     ecut=    80.00 Ry     beta= 0.70
     Davidson diagonalization with overlap
     ethr =  1.56E-09,  avg # of iterations =  2.3

     total cpu time spent up to now is        4.1 secs

     End of self-consistent calculation

          k = 0.0000 0.0000 0.0000 (  1411 PWs)   bands (ev):

     6.0752  11.2848  11.2848  11.2848  12.8100  12.8100  31.3892  35.2423
    35.2423  35.2423

          k =-0.2000 0.2000-0.2000 (  1387 PWs)   bands (ev):

     7.3439  11.0444  11.5723  11.5723  12.8101  12.8101  29.2536  32.4772
    36.1863  36.1863

          k =-0.4000 0.4000-0.4000 (  1389 PWs)   bands (ev):

     8.6214  11.3218  11.3218  13.3394  13.7815  13.7815  21.3797  31.0099
    34.2131  34.2131

          k = 0.0000 0.4000 0.0000 (  1375 PWs)   bands (ev):

     7.7887  10.4812  12.0533  12.1034  12.1034  13.1907  32.4305  32.4305
    32.6737  33.1280

          k =-0.2000 0.6000-0.2000 (  1395 PWs)   bands (ev):

     9.2844  10.4894  11.3321  12.2453  13.9365  14.5421  24.3959  30.5667
    30.5796  33.1819

          k = 0.6000-0.2000 0.6000 (  1382 PWs)   bands (ev):

     9.5189  10.7766  11.8879  11.9646  13.7231  17.5720  19.9655  27.8310
    32.1116  32.4397

          k = 0.4000 0.0000 0.4000 (  1384 PWs)   bands (ev):

     9.0430  10.6531  11.3837  12.1726  12.3318  14.4145  26.6467  28.5971
    33.7889  36.6169

          k = 0.0000 0.8000 0.0000 (  1383 PWs)   bands (ev):

     9.0241   9.3782  13.8545  13.9229  13.9229  14.7518  24.8550  27.1391
    27.1391  32.9577

          k = 0.8000 0.0000 0.8000 (  1374 PWs)   bands (ev):

     9.3307   9.8111  12.6183  13.3562  14.0556  19.6762  20.6428  23.8920
    27.9181  33.9967

          k = 0.6000-0.2000 1.0000 (  1382 PWs)   bands (ev):

    10.0757  10.3240  11.0268  12.9367  13.9089  18.0047  23.1122  24.3515
    27.3685  37.4566

     the Fermi energy is    14.7789 ev

!    total energy              =    -775.14525241 Ry
     Harris-Foulkes estimate   =    -775.14525242 Ry
     estimated scf accuracy    <          9.7E-09 Ry

     total all-electron energy =    -38023.991343 Ry

     The total energy is the sum of the following terms:

     one-electron contribution =      13.81521390 Ry
     hartree contribution      =       7.64351987 Ry
     xc contribution           =     -32.12520225 Ry
     ewald contribution        =     -71.95438534 Ry
     one-center paw contrib.   =    -692.52408567 Ry
     smearing contrib. (-TS)   =      -0.00031293 Ry

     convergence has been achieved in   9 iterations

     Forces acting on atoms (cartesian axes, Ry/au):

     atom    1 type  1   force =     0.00000000    0.00000000    0.00000000

     Total force =     0.000000     Total SCF correction =     0.000000


     Computing stress (Cartesian axis) and pressure

          total   stress  (Ry/bohr**3)                   (kbar)     P=   94.66
   0.00064349   0.00000000   0.00000000         94.66      0.00      0.00
   0.00000000   0.00064349  -0.00000000          0.00     94.66     -0.00
   0.00000000  -0.00000000   0.00064349          0.00     -0.00     94.66


     Writing output data file Au.save/

     init_run     :      0.37s CPU      0.40s WALL (       1 calls)
     electrons    :      2.65s CPU      2.81s WALL (       1 calls)
     forces       :      0.05s CPU      0.06s WALL (       1 calls)
     stress       :      0.17s CPU      0.17s WALL (       1 calls)

     Called by init_run:
     wfcinit      :      0.03s CPU      0.04s WALL (       1 calls)
     potinit      :      0.10s CPU      0.12s WALL (       1 calls)
     hinit0       :      0.21s CPU      0.21s WALL (       1 calls)

     Called by electrons:
     c_bands      :      1.21s CPU      1.31s WALL (      10 calls)
     sum_band     :      0.32s CPU      0.34s WALL (      10 calls)
     v_of_rho     :      0.07s CPU      0.07s WALL (      10 calls)
     newd         :      0.12s CPU      0.12s WALL (      10 calls)
     PAW_pot      :      1.02s CPU      1.06s WALL (      10 calls)
     mix_rho      :      0.01s CPU      0.01s WALL (      10 calls)

     Called by c_bands:
     init_us_2    :      0.04s CPU      0.04s WALL (     230 calls)
     cegterg      :      1.15s CPU      1.25s WALL (     100 calls)

     Called by sum_band:
     sum_band:bec :      0.00s CPU      0.00s WALL (     100 calls)
     addusdens    :      0.11s CPU      0.11s WALL (      10 calls)

     Called by *egterg:
     h_psi        :      0.86s CPU      0.95s WALL (     379 calls)
     s_psi        :      0.03s CPU      0.03s WALL (     379 calls)
     g_psi        :      0.00s CPU      0.00s WALL (     269 calls)
     cdiaghg      :      0.09s CPU      0.10s WALL (     359 calls)

     Called by h_psi:
     h_psi:pot    :      0.86s CPU      0.94s WALL (     379 calls)
     h_psi:calbec :      0.04s CPU      0.05s WALL (     379 calls)
     vloc_psi     :      0.78s CPU      0.86s WALL (     379 calls)
     add_vuspsi   :      0.03s CPU      0.03s WALL (     379 calls)

     General routines
     calbec       :      0.07s CPU      0.08s WALL (     529 calls)
     fft          :      0.05s CPU      0.05s WALL (     137 calls)
     ffts         :      0.00s CPU      0.00s WALL (      10 calls)
     fftw         :      0.86s CPU      0.94s WALL (    6442 calls)

     Parallel routines
     fft_scatt_xy :      0.08s CPU      0.09s WALL (    6589 calls)
     fft_scatt_yz :      0.31s CPU      0.33s WALL (    6589 calls)

     PWSCF        :     4.19s CPU         4.42s WALL


   This run was terminated on:  12:21: 7  26Mar2024            

=------------------------------------------------------------------------------=
   JOB DONE.
=------------------------------------------------------------------------------=
