
     Program PWSCF v.6.3MaX starts on 26Mar2024 at 11:19:18 

     This program is part of the open-source Quantum ESPRESSO suite
     for quantum simulation of materials; please cite
         "P. Giannozzi et al., J. Phys.:Condens. Matter 21 395502 (2009);
         "P. Giannozzi et al., J. Phys.:Condens. Matter 29 465901 (2017);
          URL http://www.quantum-espresso.org", 
     in publications or presentations arising from this work. More details at
     http://www.quantum-espresso.org/quote

     Parallel version (MPI), running on     5 processors

     MPI processes distributed on     1 nodes
     R & G space division:  proc/nbgrp/npool/nimage =       5
     Waiting for input...
     Reading input from standard input

     Current dimensions of program PWSCF are:
     Max number of different atomic species (ntypx) = 10
     Max number of k-points (npk) =  40000
     Max angular momentum in pseudopotentials (lmaxx) =  3

     Subspace diagonalization in iterative solution of the eigenvalue problem:
     a serial algorithm will be used


     Parallelization info
     --------------------
     sticks:   dense  smooth     PW     G-vecs:    dense   smooth      PW
     Min          32      32     12                  280      280      66
     Max          33      33     13                  283      283      67
     Sum         163     163     61                 1411     1411     331



     bravais-lattice index     =            2
     lattice parameter (alat)  =       7.7100  a.u.
     unit-cell volume          =     114.5785 (a.u.)^3
     number of atoms/cell      =            1
     number of atomic types    =            1
     number of electrons       =        11.00
     number of Kohn-Sham states=           10
     kinetic-energy cutoff     =      20.0000  Ry
     charge density cutoff     =      80.0000  Ry
     convergence threshold     =      1.0E-08
     mixing beta               =       0.7000
     number of iterations used =            8  plain     mixing
     Exchange-correlation      = PBESOL ( 1  4 10  8 0 0)

     celldm(1)=   7.710000  celldm(2)=   0.000000  celldm(3)=   0.000000
     celldm(4)=   0.000000  celldm(5)=   0.000000  celldm(6)=   0.000000

     crystal axes: (cart. coord. in units of alat)
               a(1) = (  -0.500000   0.000000   0.500000 )  
               a(2) = (   0.000000   0.500000   0.500000 )  
               a(3) = (  -0.500000   0.500000   0.000000 )  

     reciprocal axes: (cart. coord. in units 2 pi/alat)
               b(1) = ( -1.000000 -1.000000  1.000000 )  
               b(2) = (  1.000000  1.000000  1.000000 )  
               b(3) = ( -1.000000  1.000000 -1.000000 )  


     PseudoPot. # 1 for Au read from file:
     /home/lorenzo/pseudos/Au/Au.pbesol-n-rrkjus_psl.1.0.0.UPF
     MD5 check sum: 09626e9411213730b9a56fcc59c03ca8
     Pseudo is Ultrasoft + core correction, Zval = 11.0
     Generated using "atomic" code by A. Dal Corso v.6.3
     Using radial grid of 1279 points,  6 beta functions with: 
                l(1) =   0
                l(2) =   0
                l(3) =   1
                l(4) =   1
                l(5) =   2
                l(6) =   2
     Q(r) pseudized with 0 coefficients 


     atomic species   valence    mass     pseudopotential
        Au            11.00   196.96600     Au( 1.00)

     48 Sym. Ops., with inversion, found



   Cartesian axes

     site n.     atom                  positions (alat units)
         1           Au  tau(   1) = (   0.0000000   0.0000000   0.0000000  )

     number of k points=    16  gaussian smearing, width (Ry)=  0.0100
                       cart. coord. in units 2pi/alat
        k(    1) = (   0.0000000   0.0000000   0.0000000), wk =   0.0092593
        k(    2) = (  -0.1666667   0.1666667  -0.1666667), wk =   0.0740741
        k(    3) = (  -0.3333333   0.3333333  -0.3333333), wk =   0.0740741
        k(    4) = (   0.5000000  -0.5000000   0.5000000), wk =   0.0370370
        k(    5) = (   0.0000000   0.3333333   0.0000000), wk =   0.0555556
        k(    6) = (  -0.1666667   0.5000000  -0.1666667), wk =   0.2222222
        k(    7) = (   0.6666667  -0.3333333   0.6666667), wk =   0.2222222
        k(    8) = (   0.5000000  -0.1666667   0.5000000), wk =   0.2222222
        k(    9) = (   0.3333333   0.0000000   0.3333333), wk =   0.1111111
        k(   10) = (   0.0000000   0.6666667   0.0000000), wk =   0.0555556
        k(   11) = (   0.8333333  -0.1666667   0.8333333), wk =   0.2222222
        k(   12) = (   0.6666667  -0.0000000   0.6666667), wk =   0.1111111
        k(   13) = (   0.0000000  -1.0000000   0.0000000), wk =   0.0277778
        k(   14) = (   0.6666667  -0.3333333   1.0000000), wk =   0.2222222
        k(   15) = (   0.5000000  -0.1666667   0.8333333), wk =   0.2222222
        k(   16) = (  -0.3333333  -1.0000000   0.0000000), wk =   0.1111111

     Dense  grid:     1411 G-vectors     FFT dimensions: (  15,  15,  15)

     Estimated max dynamical RAM per process >       2.01 MB

     Estimated total dynamical RAM >      10.04 MB

     Initial potential from superposition of free atoms

     starting charge   10.99990, renormalised to   11.00000
     Starting wfcs are    9 randomized atomic wfcs +    1 random wfcs

     total cpu time spent up to now is        1.2 secs

     Self-consistent Calculation

     iteration #  1     ecut=    20.00 Ry     beta= 0.70
     Davidson diagonalization with overlap
     ethr =  1.00E-02,  avg # of iterations =  4.8

     Threshold (ethr) on eigenvalues was too large:
     Diagonalizing with lowered threshold

     Davidson diagonalization with overlap
     ethr =  5.87E-04,  avg # of iterations =  1.4

     total cpu time spent up to now is        1.3 secs

     total energy              =     -85.16564540 Ry
     Harris-Foulkes estimate   =     -85.20464241 Ry
     estimated scf accuracy    <       0.06590821 Ry

     iteration #  2     ecut=    20.00 Ry     beta= 0.70
     Davidson diagonalization with overlap
     ethr =  5.99E-04,  avg # of iterations =  3.2

     negative rho (up, down):  1.852E-03 0.000E+00

     total cpu time spent up to now is        1.4 secs

     total energy              =     -85.21280410 Ry
     Harris-Foulkes estimate   =     -85.19620191 Ry
     estimated scf accuracy    <       0.01447837 Ry

     iteration #  3     ecut=    20.00 Ry     beta= 0.70
     Davidson diagonalization with overlap
     ethr =  1.32E-04,  avg # of iterations =  4.4

     total cpu time spent up to now is        1.5 secs

     total energy              =     -75.53993002 Ry
     Harris-Foulkes estimate   =     -86.82955814 Ry
     estimated scf accuracy    <     456.23768765 Ry

     iteration #  4     ecut=    20.00 Ry     beta= 0.70
     Davidson diagonalization with overlap
     ethr =  1.32E-04,  avg # of iterations =  5.6

     total cpu time spent up to now is        1.6 secs

     total energy              =     -85.18918210 Ry
     Harris-Foulkes estimate   =     -85.18932827 Ry
     estimated scf accuracy    <       0.00316379 Ry

     iteration #  5     ecut=    20.00 Ry     beta= 0.70
     Davidson diagonalization with overlap
     ethr =  2.88E-05,  avg # of iterations =  1.8

     total cpu time spent up to now is        1.6 secs

     total energy              =     -85.18910337 Ry
     Harris-Foulkes estimate   =     -85.18920530 Ry
     estimated scf accuracy    <       0.00289785 Ry

     iteration #  6     ecut=    20.00 Ry     beta= 0.70
     Davidson diagonalization with overlap
     ethr =  2.63E-05,  avg # of iterations =  1.0

     total cpu time spent up to now is        1.7 secs

     total energy              =     -85.18905795 Ry
     Harris-Foulkes estimate   =     -85.18910525 Ry
     estimated scf accuracy    <       0.00286717 Ry

     iteration #  7     ecut=    20.00 Ry     beta= 0.70
     Davidson diagonalization with overlap
     ethr =  2.61E-05,  avg # of iterations =  1.4

     total cpu time spent up to now is        1.7 secs

     total energy              =     -85.18903427 Ry
     Harris-Foulkes estimate   =     -85.18905857 Ry
     estimated scf accuracy    <       0.00284705 Ry

     iteration #  8     ecut=    20.00 Ry     beta= 0.70
     Davidson diagonalization with overlap
     ethr =  2.59E-05,  avg # of iterations =  1.3

     total cpu time spent up to now is        1.8 secs

     total energy              =     -85.18898491 Ry
     Harris-Foulkes estimate   =     -85.18903454 Ry
     estimated scf accuracy    <       0.00283642 Ry

     iteration #  9     ecut=    20.00 Ry     beta= 0.70
     Davidson diagonalization with overlap
     ethr =  2.58E-05,  avg # of iterations =  1.0

     total cpu time spent up to now is        1.8 secs

     total energy              =     -85.18889193 Ry
     Harris-Foulkes estimate   =     -85.18898522 Ry
     estimated scf accuracy    <       0.00281816 Ry

     iteration # 10     ecut=    20.00 Ry     beta= 0.70
     Davidson diagonalization with overlap
     ethr =  2.56E-05,  avg # of iterations =  1.0

     total cpu time spent up to now is        1.8 secs

     total energy              =     -85.18887007 Ry
     Harris-Foulkes estimate   =     -85.18889253 Ry
     estimated scf accuracy    <       0.00279668 Ry

     iteration # 11     ecut=    20.00 Ry     beta= 0.70
     Davidson diagonalization with overlap
     ethr =  2.54E-05,  avg # of iterations =  1.0

     total cpu time spent up to now is        1.9 secs

     total energy              =     -85.18876202 Ry
     Harris-Foulkes estimate   =     -85.18887030 Ry
     estimated scf accuracy    <       0.00279055 Ry

     iteration # 12     ecut=    20.00 Ry     beta= 0.70
     Davidson diagonalization with overlap
     ethr =  2.54E-05,  avg # of iterations =  1.0

     negative rho (up, down):  8.561E-05 0.000E+00

     total cpu time spent up to now is        1.9 secs

     total energy              =     -85.09296512 Ry
     Harris-Foulkes estimate   =     -85.18876303 Ry
     estimated scf accuracy    <       0.00275005 Ry

     iteration # 13     ecut=    20.00 Ry     beta= 0.70
     Davidson diagonalization with overlap
     ethr =  2.50E-05,  avg # of iterations =  4.8

     total cpu time spent up to now is        2.0 secs

     total energy              =     -88.30403957 Ry
     Harris-Foulkes estimate   =     -94.91793469 Ry
     estimated scf accuracy    <    2248.18119420 Ry

     iteration # 14     ecut=    20.00 Ry     beta= 0.70
     Davidson diagonalization with overlap
     ethr =  2.50E-05,  avg # of iterations =  3.7

     total cpu time spent up to now is        2.1 secs

     total energy              =     -88.72844679 Ry
     Harris-Foulkes estimate   =     -88.73535047 Ry
     estimated scf accuracy    <    1517.49028037 Ry

     iteration # 15     ecut=    20.00 Ry     beta= 0.70
     Davidson diagonalization with overlap
     ethr =  2.50E-05,  avg # of iterations =  1.0

     total cpu time spent up to now is        2.2 secs

     total energy              =     -86.53074135 Ry
     Harris-Foulkes estimate   =     -88.72844938 Ry
     estimated scf accuracy    <    1516.09598796 Ry

     iteration # 16     ecut=    20.00 Ry     beta= 0.70
     Davidson diagonalization with overlap
     ethr =  2.50E-05,  avg # of iterations =  3.1

     total cpu time spent up to now is        2.3 secs

     total energy              =     -82.54640915 Ry
     Harris-Foulkes estimate   =     -86.82861281 Ry
     estimated scf accuracy    <     857.00278124 Ry

     iteration # 17     ecut=    20.00 Ry     beta= 0.70
     Davidson diagonalization with overlap
     ethr =  2.50E-05,  avg # of iterations =  4.6

     total cpu time spent up to now is        2.3 secs

     total energy              =     -85.21289508 Ry
     Harris-Foulkes estimate   =     -85.25051695 Ry
     estimated scf accuracy    <       1.01302990 Ry

     iteration # 18     ecut=    20.00 Ry     beta= 0.70
     Davidson diagonalization with overlap
     ethr =  2.50E-05,  avg # of iterations =  3.9

     total cpu time spent up to now is        2.4 secs

     total energy              =     -85.23430658 Ry
     Harris-Foulkes estimate   =     -85.21958529 Ry
     estimated scf accuracy    <       0.51539182 Ry

     iteration # 19     ecut=    20.00 Ry     beta= 0.70
     Davidson diagonalization with overlap
     ethr =  2.50E-05,  avg # of iterations =  3.6

     total cpu time spent up to now is        2.5 secs

     total energy              =     -84.62657396 Ry
     Harris-Foulkes estimate   =     -85.23539492 Ry
     estimated scf accuracy    <       0.69075461 Ry

     iteration # 20     ecut=    20.00 Ry     beta= 0.70
     Davidson diagonalization with overlap
     ethr =  2.50E-05,  avg # of iterations =  6.9

     total cpu time spent up to now is        2.6 secs

     total energy              =     -85.18007678 Ry
     Harris-Foulkes estimate   =     -85.18204908 Ry
     estimated scf accuracy    <       0.00091012 Ry

     iteration # 21     ecut=    20.00 Ry     beta= 0.70
     Davidson diagonalization with overlap
     ethr =  8.27E-06,  avg # of iterations =  3.6

     total cpu time spent up to now is        2.7 secs

     total energy              =     -85.17928031 Ry
     Harris-Foulkes estimate   =     -85.18037242 Ry
     estimated scf accuracy    <       0.00053327 Ry

     iteration # 22     ecut=    20.00 Ry     beta= 0.70
     Davidson diagonalization with overlap
     ethr =  4.85E-06,  avg # of iterations =  2.9

     total cpu time spent up to now is        2.7 secs

     total energy              =     -85.18082786 Ry
     Harris-Foulkes estimate   =     -85.17940887 Ry
     estimated scf accuracy    <       0.00038045 Ry

     iteration # 23     ecut=    20.00 Ry     beta= 0.70
     Davidson diagonalization with overlap
     ethr =  3.46E-06,  avg # of iterations =  4.4

     total cpu time spent up to now is        2.8 secs

     total energy              =     -85.18226424 Ry
     Harris-Foulkes estimate   =     -85.18118169 Ry
     estimated scf accuracy    <       0.00061773 Ry

     iteration # 24     ecut=    20.00 Ry     beta= 0.70
     Davidson diagonalization with overlap
     ethr =  3.46E-06,  avg # of iterations =  3.0

     total cpu time spent up to now is        2.8 secs

     total energy              =     -85.18217684 Ry
     Harris-Foulkes estimate   =     -85.18239535 Ry
     estimated scf accuracy    <       0.00086244 Ry

     iteration # 25     ecut=    20.00 Ry     beta= 0.70
     Davidson diagonalization with overlap
     ethr =  3.46E-06,  avg # of iterations =  1.2

     total cpu time spent up to now is        2.9 secs

     total energy              =     -85.18127893 Ry
     Harris-Foulkes estimate   =     -85.18218091 Ry
     estimated scf accuracy    <       0.00084191 Ry

     iteration # 26     ecut=    20.00 Ry     beta= 0.70
     Davidson diagonalization with overlap
     ethr =  3.46E-06,  avg # of iterations =  2.7

     total cpu time spent up to now is        2.9 secs

     total energy              =     -85.18086612 Ry
     Harris-Foulkes estimate   =     -85.18134881 Ry
     estimated scf accuracy    <       0.00067004 Ry

     iteration # 27     ecut=    20.00 Ry     beta= 0.70
     Davidson diagonalization with overlap
     ethr =  3.46E-06,  avg # of iterations =  2.1

     total cpu time spent up to now is        3.0 secs

     total energy              =     -85.18162912 Ry
     Harris-Foulkes estimate   =     -85.18088788 Ry
     estimated scf accuracy    <       0.00057438 Ry

     iteration # 28     ecut=    20.00 Ry     beta= 0.70
     Davidson diagonalization with overlap
     ethr =  3.46E-06,  avg # of iterations =  2.6

     total cpu time spent up to now is        3.1 secs

     total energy              =     -85.17449784 Ry
     Harris-Foulkes estimate   =     -85.18170022 Ry
     estimated scf accuracy    <       0.00071815 Ry

     iteration # 29     ecut=    20.00 Ry     beta= 0.70
     Davidson diagonalization with overlap
     ethr =  3.46E-06,  avg # of iterations =  4.2

     total cpu time spent up to now is        3.2 secs

     total energy              =     -85.17698803 Ry
     Harris-Foulkes estimate   =     -85.17774095 Ry
     estimated scf accuracy    <       0.00005902 Ry

     iteration # 30     ecut=    20.00 Ry     beta= 0.70
     Davidson diagonalization with overlap
     ethr =  5.37E-07,  avg # of iterations =  3.6

     total cpu time spent up to now is        3.2 secs

     total energy              =     -85.17740126 Ry
     Harris-Foulkes estimate   =     -85.17740116 Ry
     estimated scf accuracy    <       0.00000114 Ry

     iteration # 31     ecut=    20.00 Ry     beta= 0.70
     Davidson diagonalization with overlap
     ethr =  1.03E-08,  avg # of iterations =  2.2

     total cpu time spent up to now is        3.3 secs

     total energy              =     -85.17739735 Ry
     Harris-Foulkes estimate   =     -85.17740195 Ry
     estimated scf accuracy    <       0.00000036 Ry

     iteration # 32     ecut=    20.00 Ry     beta= 0.70
     Davidson diagonalization with overlap
     ethr =  3.28E-09,  avg # of iterations =  3.1

     total cpu time spent up to now is        3.4 secs

     total energy              =     -85.17740000 Ry
     Harris-Foulkes estimate   =     -85.17740134 Ry
     estimated scf accuracy    <       0.00000011 Ry

     iteration # 33     ecut=    20.00 Ry     beta= 0.70
     Davidson diagonalization with overlap
     ethr =  1.02E-09,  avg # of iterations =  3.1

     total cpu time spent up to now is        3.4 secs

     End of self-consistent calculation

          k = 0.0000 0.0000 0.0000 (   169 PWs)   bands (ev):

     5.8559  11.0683  11.0683  11.0683  12.5944  12.5944  31.1938  35.0258
    35.0258  35.0258

          k =-0.1667 0.1667-0.1667 (   172 PWs)   bands (ev):

     6.7729  10.8522  11.3165  11.3165  12.5485  12.5485  30.5826  32.3262
    35.9698  35.9698

          k =-0.3333 0.3333-0.3333 (   171 PWs)   bands (ev):

     8.2804  11.2244  11.2244  11.7904  13.2651  13.2651  23.9427  31.4485
    35.1442  35.1442

          k = 0.5000-0.5000 0.5000 (   168 PWs)   bands (ev):

     8.4448  11.0327  11.0327  13.8694  13.8694  14.7817  19.0474  30.4811
    33.3655  33.3655

          k = 0.0000 0.3333 0.0000 (   169 PWs)   bands (ev):

     7.0882  10.4800  11.6511  11.6511  12.0174  12.8700  32.8454  32.8628
    33.4588  33.4588

          k =-0.1667 0.5000-0.1667 (   169 PWs)   bands (ev):

     8.6106  10.2824  11.2055  11.8930  13.2211  13.4680  26.6270  31.7272
    32.2080  34.0795

          k = 0.6667-0.3333 0.6667 (   174 PWs)   bands (ev):

     9.0492  10.6593  11.6188  11.7302  13.8981  16.5078  20.0834  29.8125
    31.3853  32.4413

          k = 0.5000-0.1667 0.5000 (   173 PWs)   bands (ev):

     9.1343  10.7923  11.4936  11.5996  13.0941  15.5174  22.2798  28.8814
    32.3364  34.1730

          k = 0.3333 0.0000 0.3333 (   172 PWs)   bands (ev):

     8.1021  10.5061  11.3392  11.8280  12.0432  13.5487  28.1998  30.5385
    34.6104  35.3718

          k = 0.0000 0.6667 0.0000 (   174 PWs)   bands (ev):

     8.8725   9.4664  12.7492  13.1555  13.1555  13.4747  28.0467  28.5552
    28.5552  32.5828

          k = 0.8333-0.1667 0.8333 (   178 PWs)   bands (ev):

     9.0918   9.5409  12.3391  13.0216  14.0075  16.9904  22.4346  25.7329
    27.7788  34.2190

          k = 0.6667-0.0000 0.6667 (   172 PWs)   bands (ev):

     9.5917  10.3961  11.2804  12.5058  13.4122  18.3215  22.5221  23.0792
    30.3189  33.7099

          k = 0.0000-1.0000 0.0000 (   190 PWs)   bands (ev):

     8.6568   9.0151  13.7238  14.1735  14.1735  16.7829  21.5737  25.9770
    25.9770  33.0493

          k = 0.6667-0.3333 1.0000 (   178 PWs)   bands (ev):

     9.7514  10.0170  10.7582  12.7666  13.1278  15.7522  24.4469  26.4825
    29.6135  36.4258

          k = 0.5000-0.1667 0.8333 (   172 PWs)   bands (ev):

     9.9970  10.0788  11.0010  12.3623  13.7929  19.2510  20.0242  25.8354
    27.7998  35.8944

          k =-0.3333-1.0000 0.0000 (   172 PWs)   bands (ev):

     9.4057   9.7333  11.8048  12.8935  14.2247  20.1218  20.7976  24.2358
    25.5082  37.6522

     the Fermi energy is    15.7835 ev

!    total energy              =     -85.17740088 Ry
     Harris-Foulkes estimate   =     -85.17740085 Ry
     estimated scf accuracy    <          3.1E-09 Ry

     The total energy is the sum of the following terms:

     one-electron contribution =      11.07141481 Ry
     hartree contribution      =       7.48551304 Ry
     xc contribution           =     -31.77933528 Ry
     ewald contribution        =     -71.95438536 Ry
     smearing contrib. (-TS)   =      -0.00060809 Ry

     convergence has been achieved in  33 iterations

     Forces acting on atoms (cartesian axes, Ry/au):

     atom    1 type  1   force =     0.00000000    0.00000000    0.00000000

     Total force =     0.000000     Total SCF correction =     0.000000


     Computing stress (Cartesian axis) and pressure

          total   stress  (Ry/bohr**3)                   (kbar)     P= -125.17
  -0.00085087  -0.00000000   0.00000000       -125.17     -0.00      0.00
  -0.00000000  -0.00085087  -0.00000000         -0.00   -125.17     -0.00
   0.00000000  -0.00000000  -0.00085087          0.00     -0.00   -125.17


     Writing output data file Au.save/

     init_run     :      0.10s CPU      0.11s WALL (       1 calls)
     electrons    :      1.96s CPU      2.24s WALL (       1 calls)
     forces       :      0.02s CPU      0.02s WALL (       1 calls)
     stress       :      0.03s CPU      0.03s WALL (       1 calls)

     Called by init_run:
     wfcinit      :      0.01s CPU      0.01s WALL (       1 calls)
     potinit      :      0.00s CPU      0.00s WALL (       1 calls)
     hinit0       :      0.09s CPU      0.09s WALL (       1 calls)

     Called by electrons:
     c_bands      :      1.62s CPU      1.86s WALL (      34 calls)
     sum_band     :      0.24s CPU      0.27s WALL (      34 calls)
     v_of_rho     :      0.04s CPU      0.04s WALL (      34 calls)
     newd         :      0.04s CPU      0.05s WALL (      34 calls)
     mix_rho      :      0.01s CPU      0.01s WALL (      34 calls)

     Called by c_bands:
     init_us_2    :      0.03s CPU      0.04s WALL (    1136 calls)
     cegterg      :      1.56s CPU      1.79s WALL (     544 calls)

     Called by sum_band:
     sum_band:bec :      0.00s CPU      0.01s WALL (     544 calls)
     addusdens    :      0.04s CPU      0.05s WALL (      34 calls)

     Called by *egterg:
     h_psi        :      0.87s CPU      1.00s WALL (    2144 calls)
     s_psi        :      0.03s CPU      0.04s WALL (    2144 calls)
     g_psi        :      0.00s CPU      0.01s WALL (    1584 calls)
     cdiaghg      :      0.44s CPU      0.50s WALL (    2112 calls)

     Called by h_psi:
     h_psi:pot    :      0.86s CPU      0.99s WALL (    2144 calls)
     h_psi:calbec :      0.06s CPU      0.07s WALL (    2144 calls)
     vloc_psi     :      0.76s CPU      0.87s WALL (    2144 calls)
     add_vuspsi   :      0.03s CPU      0.04s WALL (    2144 calls)

     General routines
     calbec       :      0.07s CPU      0.09s WALL (    2768 calls)
     fft          :      0.02s CPU      0.02s WALL (     401 calls)
     ffts         :      0.00s CPU      0.00s WALL (      34 calls)
     fftw         :      0.81s CPU      0.94s WALL (   36464 calls)

     Parallel routines
     fft_scatt_xy :      0.09s CPU      0.10s WALL (   36899 calls)
     fft_scatt_yz :      0.35s CPU      0.40s WALL (   36899 calls)

     PWSCF        :     3.19s CPU         3.51s WALL


   This run was terminated on:  11:19:22  26Mar2024            

=------------------------------------------------------------------------------=
   JOB DONE.
=------------------------------------------------------------------------------=
