
     Program PWSCF v.6.3MaX starts on 26Mar2024 at 12:19:45 

     This program is part of the open-source Quantum ESPRESSO suite
     for quantum simulation of materials; please cite
         "P. Giannozzi et al., J. Phys.:Condens. Matter 21 395502 (2009);
         "P. Giannozzi et al., J. Phys.:Condens. Matter 29 465901 (2017);
          URL http://www.quantum-espresso.org", 
     in publications or presentations arising from this work. More details at
     http://www.quantum-espresso.org/quote

     Parallel version (MPI), running on     5 processors

     MPI processes distributed on     1 nodes
     R & G space division:  proc/nbgrp/npool/nimage =       5
     Waiting for input...
     Reading input from standard input

     Current dimensions of program PWSCF are:
     Max number of different atomic species (ntypx) = 10
     Max number of k-points (npk) =  40000
     Max angular momentum in pseudopotentials (lmaxx) =  3
               file Au.pbesol-n-kjpaw_psl.1.0.0.UPF: wavefunction(s)  6S 5D renormalized

     Subspace diagonalization in iterative solution of the eigenvalue problem:
     a serial algorithm will be used


     Parallelization info
     --------------------
     sticks:   dense  smooth     PW     G-vecs:    dense   smooth      PW
     Min         129     129     32                 2201     2201     280
     Max         130     130     33                 2204     2204     283
     Sum         649     649    163                11017    11017    1411



     bravais-lattice index     =            2
     lattice parameter (alat)  =       7.7100  a.u.
     unit-cell volume          =     114.5785 (a.u.)^3
     number of atoms/cell      =            1
     number of atomic types    =            1
     number of electrons       =        11.00
     number of Kohn-Sham states=           10
     kinetic-energy cutoff     =      80.0000  Ry
     charge density cutoff     =     320.0000  Ry
     convergence threshold     =      1.0E-08
     mixing beta               =       0.7000
     number of iterations used =            8  plain     mixing
     Exchange-correlation      = SLA PW PSX PSC ( 1  4 10  8 0 0)

     celldm(1)=   7.710000  celldm(2)=   0.000000  celldm(3)=   0.000000
     celldm(4)=   0.000000  celldm(5)=   0.000000  celldm(6)=   0.000000

     crystal axes: (cart. coord. in units of alat)
               a(1) = (  -0.500000   0.000000   0.500000 )  
               a(2) = (   0.000000   0.500000   0.500000 )  
               a(3) = (  -0.500000   0.500000   0.000000 )  

     reciprocal axes: (cart. coord. in units 2 pi/alat)
               b(1) = ( -1.000000 -1.000000  1.000000 )  
               b(2) = (  1.000000  1.000000  1.000000 )  
               b(3) = ( -1.000000  1.000000 -1.000000 )  


     PseudoPot. # 1 for Au read from file:
     /home/lorenzo/pseudos/Au/Au.pbesol-n-kjpaw_psl.1.0.0.UPF
     MD5 check sum: abc371be705c47a6b6a6b4088b452d3e
     Pseudo is Projector augmented-wave + core cor, Zval = 11.0
     Generated using "atomic" code by A. Dal Corso v.6.3
     Shape of augmentation charge: PSQ
     Using radial grid of 1279 points,  6 beta functions with: 
                l(1) =   0
                l(2) =   0
                l(3) =   1
                l(4) =   1
                l(5) =   2
                l(6) =   2
     Q(r) pseudized with 0 coefficients 


     atomic species   valence    mass     pseudopotential
        Au            11.00   196.96600     Au( 1.00)

     48 Sym. Ops., with inversion, found



   Cartesian axes

     site n.     atom                  positions (alat units)
         1           Au  tau(   1) = (   0.0000000   0.0000000   0.0000000  )

     number of k points=     1  gaussian smearing, width (Ry)=  0.0100
                       cart. coord. in units 2pi/alat
        k(    1) = (   0.0000000   0.0000000   0.0000000), wk =   2.0000000

     Dense  grid:    11017 G-vectors     FFT dimensions: (  32,  32,  32)

     Estimated max dynamical RAM per process >      10.04 MB

     Estimated total dynamical RAM >      50.19 MB

     Initial potential from superposition of free atoms

     starting charge   10.99990, renormalised to   11.00000
     Starting wfcs are    9 randomized atomic wfcs +    1 random wfcs
     Checking if some PAW data can be deallocated... 

     total cpu time spent up to now is        1.3 secs

     Self-consistent Calculation

     iteration #  1     ecut=    80.00 Ry     beta= 0.70
     Davidson diagonalization with overlap
     ethr =  1.00E-02,  avg # of iterations = 14.0

     Threshold (ethr) on eigenvalues was too large:
     Diagonalizing with lowered threshold

     Davidson diagonalization with overlap
     ethr =  9.63E-04,  avg # of iterations =  1.0

     negative rho (up, down):  6.916E-03 0.000E+00

     total cpu time spent up to now is        1.5 secs

     total energy              =    -765.45719295 Ry
     Harris-Foulkes estimate   =    -765.51832551 Ry
     estimated scf accuracy    <       0.10560402 Ry

     iteration #  2     ecut=    80.00 Ry     beta= 0.70
     Davidson diagonalization with overlap
     ethr =  9.60E-04,  avg # of iterations =  2.0

     total cpu time spent up to now is        1.6 secs

     total energy              =    -765.47775675 Ry
     Harris-Foulkes estimate   =    -765.47609801 Ry
     estimated scf accuracy    <       0.01256410 Ry

     iteration #  3     ecut=    80.00 Ry     beta= 0.70
     Davidson diagonalization with overlap
     ethr =  1.14E-04,  avg # of iterations =  4.0

     negative rho (up, down):  4.925E-03 0.000E+00

     total cpu time spent up to now is        1.8 secs

     total energy              =    -765.47595372 Ry
     Harris-Foulkes estimate   =    -765.48066374 Ry
     estimated scf accuracy    <       0.01392774 Ry

     iteration #  4     ecut=    80.00 Ry     beta= 0.70
     Davidson diagonalization with overlap
     ethr =  1.14E-04,  avg # of iterations =  2.0

     negative rho (up, down):  2.042E-01 0.000E+00

     total cpu time spent up to now is        1.9 secs

     total energy              =    -765.45875441 Ry
     Harris-Foulkes estimate   =    -765.47729618 Ry
     estimated scf accuracy    <       0.01124082 Ry

     iteration #  5     ecut=    80.00 Ry     beta= 0.70
     Davidson diagonalization with overlap
     ethr =  1.02E-04,  avg # of iterations =  2.0

     negative rho (up, down):  5.648E-01 0.000E+00

     total cpu time spent up to now is        2.0 secs

     total energy              =    -765.09282277 Ry
     Harris-Foulkes estimate   =    -765.46209885 Ry
     estimated scf accuracy    <       0.06876325 Ry

     iteration #  6     ecut=    80.00 Ry     beta= 0.70
     Davidson diagonalization with overlap
     ethr =  1.02E-04,  avg # of iterations =  5.0

     negative rho (up, down):  6.635E-01 0.000E+00

     total cpu time spent up to now is        2.2 secs

     total energy              =    -788.83587326 Ry
     Harris-Foulkes estimate   =   -1200.95620898 Ry
     estimated scf accuracy    <  221290.70623290 Ry

     iteration #  7     ecut=    80.00 Ry     beta= 0.70
     Davidson diagonalization with overlap
     ethr =  1.02E-04,  avg # of iterations =  3.0

     negative rho (up, down):  6.400E-01 0.000E+00

     total cpu time spent up to now is        2.3 secs

     total energy              =    -830.25815070 Ry
     Harris-Foulkes estimate   =    -793.39493270 Ry
     estimated scf accuracy    <  187690.05224920 Ry

     iteration #  8     ecut=    80.00 Ry     beta= 0.70
     Davidson diagonalization with overlap
     ethr =  1.02E-04,  avg # of iterations =  2.0

     negative rho (up, down):  6.436E-01 0.000E+00

     total cpu time spent up to now is        2.5 secs

     total energy              =    -824.66056284 Ry
     Harris-Foulkes estimate   =    -831.38386420 Ry
     estimated scf accuracy    <  206908.53680276 Ry

     iteration #  9     ecut=    80.00 Ry     beta= 0.70
     Davidson diagonalization with overlap
     ethr =  1.02E-04,  avg # of iterations =  2.0

     negative rho (up, down):  4.806E-01 0.000E+00

     total cpu time spent up to now is        2.6 secs

     total energy              =    -816.10375516 Ry
     Harris-Foulkes estimate   =    -824.67528413 Ry
     estimated scf accuracy    <  205039.31370885 Ry

     iteration # 10     ecut=    80.00 Ry     beta= 0.70
     Davidson diagonalization with overlap
     ethr =  1.02E-04,  avg # of iterations =  2.0

     negative rho (up, down):  4.402E-01 0.000E+00

     total cpu time spent up to now is        2.8 secs

     total energy              =    -749.78528891 Ry
     Harris-Foulkes estimate   =    -816.13371487 Ry
     estimated scf accuracy    <  202167.62018346 Ry

     iteration # 11     ecut=    80.00 Ry     beta= 0.70
     Davidson diagonalization with overlap
     ethr =  1.02E-04,  avg # of iterations =  3.0

     negative rho (up, down):  3.950E-01 0.000E+00

     total cpu time spent up to now is        2.9 secs

     total energy              =    -765.55454032 Ry
     Harris-Foulkes estimate   =    -765.53350024 Ry
     estimated scf accuracy    <       0.00514063 Ry

     iteration # 12     ecut=    80.00 Ry     beta= 0.70
     Davidson diagonalization with overlap
     ethr =  4.67E-05,  avg # of iterations =  3.0

     negative rho (up, down):  3.085E-01 0.000E+00

     total cpu time spent up to now is        3.1 secs

     total energy              =    -880.21285291 Ry
     Harris-Foulkes estimate   =    -852.03098202 Ry
     estimated scf accuracy    <  211140.56267993 Ry

     iteration # 13     ecut=    80.00 Ry     beta= 0.70
     Davidson diagonalization with overlap
     ethr =  4.67E-05,  avg # of iterations =  2.0

     negative rho (up, down):  5.012E-01 0.000E+00

     total cpu time spent up to now is        3.2 secs

     total energy              =    -842.32810954 Ry
     Harris-Foulkes estimate   =    -880.33234018 Ry
     estimated scf accuracy    <  214495.57119955 Ry

     iteration # 14     ecut=    80.00 Ry     beta= 0.70
     Davidson diagonalization with overlap
     ethr =  4.67E-05,  avg # of iterations =  2.0

     negative rho (up, down):  6.064E-01 0.000E+00

     total cpu time spent up to now is        3.3 secs

     total energy              =    -934.33040252 Ry
     Harris-Foulkes estimate   =    -842.52080925 Ry
     estimated scf accuracy    <  209426.41377187 Ry

     iteration # 15     ecut=    80.00 Ry     beta= 0.70
     Davidson diagonalization with overlap
     ethr =  4.67E-05,  avg # of iterations =  3.0

     negative rho (up, down):  5.312E-01 0.000E+00

     total cpu time spent up to now is        3.5 secs

     total energy              =    -930.66419970 Ry
     Harris-Foulkes estimate   =    -935.44728944 Ry
     estimated scf accuracy    <  217545.79004780 Ry

     iteration # 16     ecut=    80.00 Ry     beta= 0.70
     Davidson diagonalization with overlap
     ethr =  4.67E-05,  avg # of iterations =  2.0

     negative rho (up, down):  3.017E-01 0.000E+00

     total cpu time spent up to now is        3.6 secs

     total energy              =    -900.42488968 Ry
     Harris-Foulkes estimate   =    -930.66526139 Ry
     estimated scf accuracy    <  217405.34073844 Ry

     iteration # 17     ecut=    80.00 Ry     beta= 0.70
     Davidson diagonalization with overlap
     ethr =  4.67E-05,  avg # of iterations =  2.0

     negative rho (up, down):  2.992E-01 0.000E+00

     total cpu time spent up to now is        3.8 secs

     total energy              =    -905.77304869 Ry
     Harris-Foulkes estimate   =    -900.47495099 Ry
     estimated scf accuracy    <  216010.31645042 Ry

     iteration # 18     ecut=    80.00 Ry     beta= 0.70
     Davidson diagonalization with overlap
     ethr =  4.67E-05,  avg # of iterations =  2.0

     negative rho (up, down):  3.068E-01 0.000E+00

     total cpu time spent up to now is        3.9 secs

     total energy              =    -882.89615304 Ry
     Harris-Foulkes estimate   =    -905.77509827 Ry
     estimated scf accuracy    <  216338.19893752 Ry

     iteration # 19     ecut=    80.00 Ry     beta= 0.70
     Davidson diagonalization with overlap
     ethr =  4.67E-05,  avg # of iterations =  2.0

     negative rho (up, down):  3.042E-01 0.000E+00

     total cpu time spent up to now is        4.0 secs

     total energy              =    -889.75848680 Ry
     Harris-Foulkes estimate   =    -882.93588993 Ry
     estimated scf accuracy    <  214729.44042825 Ry

     iteration # 20     ecut=    80.00 Ry     beta= 0.70
     Davidson diagonalization with overlap
     ethr =  4.67E-05,  avg # of iterations =  2.0

     negative rho (up, down):  6.538E+00 0.000E+00

     total cpu time spent up to now is        4.2 secs

     total energy              =    -457.92152746 Ry
     Harris-Foulkes estimate   =    -889.76292418 Ry
     estimated scf accuracy    <  215277.10987654 Ry

     iteration # 21     ecut=    80.00 Ry     beta= 0.70
     Davidson diagonalization with overlap
     ethr =  4.67E-05,  avg # of iterations =  7.0

     negative rho (up, down):  5.118E+00 0.000E+00

     total cpu time spent up to now is        4.3 secs

     total energy              =    -988.20336502 Ry
     Harris-Foulkes estimate   =    -979.75823507 Ry
     estimated scf accuracy    <  213991.87095518 Ry

     iteration # 22     ecut=    80.00 Ry     beta= 0.70
     Davidson diagonalization with overlap
     ethr =  4.67E-05,  avg # of iterations =  5.0

     negative rho (up, down):  4.672E+00 0.000E+00

     total cpu time spent up to now is        4.5 secs

     total energy              =    -341.87268077 Ry
     Harris-Foulkes estimate   =    -988.28648547 Ry
     estimated scf accuracy    <  214713.42890907 Ry

     iteration # 23     ecut=    80.00 Ry     beta= 0.70
     Davidson diagonalization with overlap
     ethr =  4.67E-05,  avg # of iterations =  5.0

     negative rho (up, down):  6.141E+00 0.000E+00

     total cpu time spent up to now is        4.6 secs

     total energy              =   -1244.57919720 Ry
     Harris-Foulkes estimate   =   -1104.31824415 Ry
     estimated scf accuracy    <  220291.96993255 Ry

     iteration # 24     ecut=    80.00 Ry     beta= 0.70
     Davidson diagonalization with overlap
     ethr =  4.67E-05,  avg # of iterations =  3.0

     negative rho (up, down):  1.599E+01 0.000E+00

     total cpu time spent up to now is        4.8 secs

     total energy              =   -1185.62830365 Ry
     Harris-Foulkes estimate   =   -1244.84260960 Ry
     estimated scf accuracy    <  219724.65420570 Ry

     iteration # 25     ecut=    80.00 Ry     beta= 0.70
     Davidson diagonalization with overlap
     ethr =  4.67E-05,  avg # of iterations =  4.0

     negative rho (up, down):  1.694E+01 0.000E+00

     total cpu time spent up to now is        4.9 secs

     total energy              =   -1182.75656176 Ry
     Harris-Foulkes estimate   =   -1186.11360888 Ry
     estimated scf accuracy    <  214365.56438004 Ry

     iteration # 26     ecut=    80.00 Ry     beta= 0.70
     Davidson diagonalization with overlap
     ethr =  4.67E-05,  avg # of iterations =  3.0

     negative rho (up, down):  5.139E+00 0.000E+00

     total cpu time spent up to now is        5.1 secs

     total energy              =   -1082.38023744 Ry
     Harris-Foulkes estimate   =   -1182.76296274 Ry
     estimated scf accuracy    <  213831.69462706 Ry

     iteration # 27     ecut=    80.00 Ry     beta= 0.70
     Davidson diagonalization with overlap
     ethr =  4.67E-05,  avg # of iterations =  4.0

     negative rho (up, down):  4.254E+01 0.000E+00

     total cpu time spent up to now is        5.2 secs

     total energy              =   -1231.26606714 Ry
     Harris-Foulkes estimate   =   -1082.54284612 Ry
     estimated scf accuracy    <  219347.58939292 Ry

     iteration # 28     ecut=    80.00 Ry     beta= 0.70
     Davidson diagonalization with overlap
     ethr =  4.67E-05,  avg # of iterations =  4.0

     negative rho (up, down):  8.044E+02 0.000E+00

     total cpu time spent up to now is        5.4 secs

     total energy              =   -1177.90653386 Ry
     Harris-Foulkes estimate   =   -1232.25222886 Ry
     estimated scf accuracy    <  201589.57541788 Ry

     iteration # 29     ecut=    80.00 Ry     beta= 0.70
     Davidson diagonalization with overlap
     ethr =  4.67E-05,  avg # of iterations = 12.0

     negative rho (up, down):  8.267E+02 0.000E+00

     total cpu time spent up to now is        5.6 secs

     total energy              =   -1804.57916040 Ry
     Harris-Foulkes estimate   =   -1798.14991255 Ry
     estimated scf accuracy    <    1755.20218993 Ry

     iteration # 30     ecut=    80.00 Ry     beta= 0.70
     Davidson diagonalization with overlap
     ethr =  4.67E-05,  avg # of iterations =  4.0

     negative rho (up, down):  8.742E+02 0.000E+00

     total cpu time spent up to now is        5.7 secs

     total energy              =   -1837.14164851 Ry
     Harris-Foulkes estimate   =   -1805.01641232 Ry
     estimated scf accuracy    <     683.27457605 Ry

     iteration # 31     ecut=    80.00 Ry     beta= 0.70
     Davidson diagonalization with overlap
     ethr =  4.67E-05,  avg # of iterations =  4.0

     negative rho (up, down):  9.296E+02 0.000E+00

     total cpu time spent up to now is        5.9 secs

     total energy              =   -1855.74341650 Ry
     Harris-Foulkes estimate   =   -1840.86962930 Ry
     estimated scf accuracy    <     280.43796440 Ry

     iteration # 32     ecut=    80.00 Ry     beta= 0.70
     Davidson diagonalization with overlap
     ethr =  4.67E-05,  avg # of iterations =  5.0

     negative rho (up, down):  9.525E+02 0.000E+00

     total cpu time spent up to now is        6.0 secs

     total energy              =   -1857.38215767 Ry
     Harris-Foulkes estimate   =   -1856.12709072 Ry
     estimated scf accuracy    <    1387.25066404 Ry

     iteration # 33     ecut=    80.00 Ry     beta= 0.70
     Davidson diagonalization with overlap
     ethr =  4.67E-05,  avg # of iterations =  5.0

     negative rho (up, down):  9.796E+02 0.000E+00

     total cpu time spent up to now is        6.2 secs

     total energy              =   -1836.63025972 Ry
     Harris-Foulkes estimate   =   -1858.30483642 Ry
     estimated scf accuracy    <    1550.13247156 Ry

     iteration # 34     ecut=    80.00 Ry     beta= 0.70
     Davidson diagonalization with overlap
     ethr =  4.67E-05,  avg # of iterations = 11.0

     negative rho (up, down):  9.834E+02 0.000E+00

     total cpu time spent up to now is        6.3 secs

     total energy              =   -1905.09819281 Ry
     Harris-Foulkes estimate   =   -1902.79270218 Ry
     estimated scf accuracy    <    2137.87047313 Ry

     iteration # 35     ecut=    80.00 Ry     beta= 0.70
     Davidson diagonalization with overlap
     ethr =  4.67E-05,  avg # of iterations =  2.0

     negative rho (up, down):  9.791E+02 0.000E+00

     total cpu time spent up to now is        6.5 secs

     total energy              =   -1880.67902571 Ry
     Harris-Foulkes estimate   =   -1905.10779498 Ry
     estimated scf accuracy    <    2378.07861124 Ry

     iteration # 36     ecut=    80.00 Ry     beta= 0.70
     Davidson diagonalization with overlap
     ethr =  4.67E-05,  avg # of iterations =  4.0

     negative rho (up, down):  9.785E+02 0.000E+00

     total cpu time spent up to now is        6.7 secs

     total energy              =   -1871.40337306 Ry
     Harris-Foulkes estimate   =   -1885.03773810 Ry
     estimated scf accuracy    <     717.43606012 Ry

     iteration # 37     ecut=    80.00 Ry     beta= 0.70
     Davidson diagonalization with overlap
     ethr =  4.67E-05,  avg # of iterations =  4.0

     negative rho (up, down):  9.569E+02 0.000E+00

     total cpu time spent up to now is        6.8 secs

     total energy              =   -1874.54156575 Ry
     Harris-Foulkes estimate   =   -1872.56512719 Ry
     estimated scf accuracy    <     425.94379162 Ry

     iteration # 38     ecut=    80.00 Ry     beta= 0.70
     Davidson diagonalization with overlap
     ethr =  4.67E-05,  avg # of iterations =  3.0

     negative rho (up, down):  9.340E+02 0.000E+00

     total cpu time spent up to now is        7.0 secs

     total energy              =   -1876.48847841 Ry
     Harris-Foulkes estimate   =   -1874.59807392 Ry
     estimated scf accuracy    <      86.50478579 Ry

     iteration # 39     ecut=    80.00 Ry     beta= 0.70
     Davidson diagonalization with overlap
     ethr =  4.67E-05,  avg # of iterations =  3.0

     negative rho (up, down):  8.941E+02 0.000E+00

     total cpu time spent up to now is        7.1 secs

     total energy              =   -1884.97786655 Ry
     Harris-Foulkes estimate   =   -1876.92699361 Ry
     estimated scf accuracy    <      24.21304100 Ry

     iteration # 40     ecut=    80.00 Ry     beta= 0.70
     Davidson diagonalization with overlap
     ethr =  4.67E-05,  avg # of iterations =  3.0

     negative rho (up, down):  8.926E+02 0.000E+00

     total cpu time spent up to now is        7.3 secs

     total energy              =   -1885.87245614 Ry
     Harris-Foulkes estimate   =   -1885.13984029 Ry
     estimated scf accuracy    <     651.96433182 Ry

     iteration # 41     ecut=    80.00 Ry     beta= 0.70
     Davidson diagonalization with overlap
     ethr =  4.67E-05,  avg # of iterations =  1.0

     negative rho (up, down):  9.038E+02 0.000E+00

     total cpu time spent up to now is        7.4 secs

     total energy              =   -1882.75977448 Ry
     Harris-Foulkes estimate   =   -1885.87567770 Ry
     estimated scf accuracy    <     702.49316671 Ry

     iteration # 42     ecut=    80.00 Ry     beta= 0.70
     Davidson diagonalization with overlap
     ethr =  4.67E-05,  avg # of iterations =  2.0

     negative rho (up, down):  8.871E+02 0.000E+00

     total cpu time spent up to now is        7.6 secs

     total energy              =   -1886.44492931 Ry
     Harris-Foulkes estimate   =   -1882.79564704 Ry
     estimated scf accuracy    <     414.45053073 Ry

     iteration # 43     ecut=    80.00 Ry     beta= 0.70
     Davidson diagonalization with overlap
     ethr =  4.67E-05,  avg # of iterations =  3.0

     negative rho (up, down):  9.367E+02 0.000E+00

     total cpu time spent up to now is        7.7 secs

     total energy              =   -1876.04676422 Ry
     Harris-Foulkes estimate   =   -1886.48333245 Ry
     estimated scf accuracy    <     847.44217591 Ry

     iteration # 44     ecut=    80.00 Ry     beta= 0.70
     Davidson diagonalization with overlap
     ethr =  4.67E-05,  avg # of iterations =  4.0

     negative rho (up, down):  9.428E+02 0.000E+00

     total cpu time spent up to now is        7.8 secs

     total energy              =   -1875.21787138 Ry
     Harris-Foulkes estimate   =   -1876.35063708 Ry
     estimated scf accuracy    <      10.19570117 Ry

     iteration # 45     ecut=    80.00 Ry     beta= 0.70
     Davidson diagonalization with overlap
     ethr =  4.67E-05,  avg # of iterations =  2.0

     negative rho (up, down):  9.429E+02 0.000E+00

     total cpu time spent up to now is        8.0 secs

     total energy              =   -1875.21556870 Ry
     Harris-Foulkes estimate   =   -1875.22171421 Ry
     estimated scf accuracy    <       0.00011851 Ry

     iteration # 46     ecut=    80.00 Ry     beta= 0.70
     Davidson diagonalization with overlap
     ethr =  1.08E-06,  avg # of iterations =  1.0

     negative rho (up, down):  9.429E+02 0.000E+00

     total cpu time spent up to now is        8.1 secs

     total energy              =   -1875.21773258 Ry
     Harris-Foulkes estimate   =   -1875.21557380 Ry
     estimated scf accuracy    <       0.00003911 Ry

     iteration # 47     ecut=    80.00 Ry     beta= 0.70
     Davidson diagonalization with overlap
     ethr =  3.56E-07,  avg # of iterations =  1.0

     negative rho (up, down):  9.429E+02 0.000E+00

     total cpu time spent up to now is        8.3 secs

     total energy              =   -1875.21782539 Ry
     Harris-Foulkes estimate   =   -1875.21773313 Ry
     estimated scf accuracy    <       0.00000007 Ry

     iteration # 48     ecut=    80.00 Ry     beta= 0.70
     Davidson diagonalization with overlap
     ethr =  6.19E-10,  avg # of iterations =  3.0

     negative rho (up, down):  9.429E+02 0.000E+00

     total cpu time spent up to now is        8.4 secs

     total energy              =   -1875.21781355 Ry
     Harris-Foulkes estimate   =   -1875.21782549 Ry
     estimated scf accuracy    <       0.00000001 Ry

     iteration # 49     ecut=    80.00 Ry     beta= 0.70
     Davidson diagonalization with overlap
     ethr =  9.57E-11,  avg # of iterations =  1.0

     negative rho (up, down):  9.429E+02 0.000E+00

     total cpu time spent up to now is        8.6 secs

     End of self-consistent calculation

          k = 0.0000 0.0000 0.0000 (  1411 PWs)   bands (ev):

  ************************************************************************
   -76.4803 -27.5310

     the Fermi energy is -1054.6306 ev

!    total energy              =   -1875.21778354 Ry
     Harris-Foulkes estimate   =   -1875.21781354 Ry
     estimated scf accuracy    <          6.6E-09 Ry

     total all-electron energy =    -39124.052246 Ry

     The total energy is the sum of the following terms:

     one-electron contribution =     321.46374944 Ry
     hartree contribution      =  204068.44264000 Ry
     xc contribution           =    1582.95666156 Ry
     ewald contribution        =     -71.95438534 Ry
     one-center paw contrib.   = -207776.11746113 Ry
     smearing contrib. (-TS)   =      -0.00898808 Ry

     convergence has been achieved in  49 iterations

     negative rho (up, down):  9.429E+02 0.000E+00

     Forces acting on atoms (cartesian axes, Ry/au):

     atom    1 type  1   force =     0.00000000    0.00000000    0.00000000

     Total force =     0.000000     Total SCF correction =     0.000000


     Computing stress (Cartesian axis) and pressure


     negative rho (up, down):  9.429E+02 0.000E+00
          total   stress  (Ry/bohr**3)                   (kbar)     P=********
  12.40898860   0.00000000   0.00000000    1825424.94      0.00      0.00
   0.00000000  12.40898860  -0.00000000          0.001825424.94     -0.00
   0.00000000  -0.00000000  12.40898860          0.00     -0.001825424.94


     Writing output data file Au.save/

     init_run     :      0.34s CPU      0.36s WALL (       1 calls)
     electrons    :      7.16s CPU      7.34s WALL (       1 calls)
     forces       :      0.04s CPU      0.05s WALL (       1 calls)
     stress       :      0.10s CPU      0.10s WALL (       1 calls)

     Called by init_run:
     wfcinit      :      0.00s CPU      0.00s WALL (       1 calls)
     potinit      :      0.10s CPU      0.12s WALL (       1 calls)
     hinit0       :      0.20s CPU      0.20s WALL (       1 calls)

     Called by electrons:
     c_bands      :      0.65s CPU      0.67s WALL (      50 calls)
     sum_band     :      0.73s CPU      0.74s WALL (      50 calls)
     v_of_rho     :      0.32s CPU      0.33s WALL (      50 calls)
     newd         :      0.54s CPU      0.54s WALL (      50 calls)
     PAW_pot      :      4.94s CPU      5.09s WALL (      50 calls)
     mix_rho      :      0.06s CPU      0.06s WALL (      50 calls)

     Called by c_bands:
     init_us_2    :      0.02s CPU      0.03s WALL (     101 calls)
     cegterg      :      0.62s CPU      0.64s WALL (      50 calls)

     Called by sum_band:
     sum_band:bec :      0.00s CPU      0.00s WALL (      50 calls)
     addusdens    :      0.54s CPU      0.54s WALL (      50 calls)

     Called by *egterg:
     h_psi        :      0.43s CPU      0.44s WALL (     226 calls)
     s_psi        :      0.02s CPU      0.02s WALL (     226 calls)
     g_psi        :      0.00s CPU      0.00s WALL (     175 calls)
     cdiaghg      :      0.06s CPU      0.06s WALL (     224 calls)

     Called by h_psi:
     h_psi:pot    :      0.42s CPU      0.44s WALL (     226 calls)
     h_psi:calbec :      0.03s CPU      0.03s WALL (     226 calls)
     vloc_psi     :      0.38s CPU      0.39s WALL (     226 calls)
     add_vuspsi   :      0.02s CPU      0.02s WALL (     226 calls)

     General routines
     calbec       :      0.03s CPU      0.03s WALL (     281 calls)
     fft          :      0.13s CPU      0.14s WALL (     577 calls)
     ffts         :      0.01s CPU      0.01s WALL (      50 calls)
     fftw         :      0.40s CPU      0.41s WALL (    3766 calls)

     Parallel routines
     fft_scatt_xy :      0.06s CPU      0.06s WALL (    4393 calls)
     fft_scatt_yz :      0.15s CPU      0.16s WALL (    4393 calls)

     PWSCF        :     8.54s CPU         8.78s WALL


   This run was terminated on:  12:19:54  26Mar2024            

=------------------------------------------------------------------------------=
   JOB DONE.
=------------------------------------------------------------------------------=
