
     Program PWSCF v.6.3MaX starts on 26Mar2024 at 11:53:41 

     This program is part of the open-source Quantum ESPRESSO suite
     for quantum simulation of materials; please cite
         "P. Giannozzi et al., J. Phys.:Condens. Matter 21 395502 (2009);
         "P. Giannozzi et al., J. Phys.:Condens. Matter 29 465901 (2017);
          URL http://www.quantum-espresso.org", 
     in publications or presentations arising from this work. More details at
     http://www.quantum-espresso.org/quote

     Parallel version (MPI), running on     5 processors

     MPI processes distributed on     1 nodes
     R & G space division:  proc/nbgrp/npool/nimage =       5
     Waiting for input...
     Reading input from standard input

     Current dimensions of program PWSCF are:
     Max number of different atomic species (ntypx) = 10
     Max number of k-points (npk) =  40000
     Max angular momentum in pseudopotentials (lmaxx) =  3

     Subspace diagonalization in iterative solution of the eigenvalue problem:
     a serial algorithm will be used


     Parallelization info
     --------------------
     sticks:   dense  smooth     PW     G-vecs:    dense   smooth      PW
     Min          99      99     30                 1446     1446     248
     Max         100     100     31                 1449     1449     251
     Sum         499     499    151                 7239     7239    1243



     bravais-lattice index     =            2
     lattice parameter (alat)  =       7.7100  a.u.
     unit-cell volume          =     114.5785 (a.u.)^3
     number of atoms/cell      =            1
     number of atomic types    =            1
     number of electrons       =        11.00
     number of Kohn-Sham states=           10
     kinetic-energy cutoff     =      60.0000  Ry
     charge density cutoff     =     240.0000  Ry
     convergence threshold     =      1.0E-08
     mixing beta               =       0.7000
     number of iterations used =            8  plain     mixing
     Exchange-correlation      = PBESOL ( 1  4 10  8 0 0)

     celldm(1)=   7.710000  celldm(2)=   0.000000  celldm(3)=   0.000000
     celldm(4)=   0.000000  celldm(5)=   0.000000  celldm(6)=   0.000000

     crystal axes: (cart. coord. in units of alat)
               a(1) = (  -0.500000   0.000000   0.500000 )  
               a(2) = (   0.000000   0.500000   0.500000 )  
               a(3) = (  -0.500000   0.500000   0.000000 )  

     reciprocal axes: (cart. coord. in units 2 pi/alat)
               b(1) = ( -1.000000 -1.000000  1.000000 )  
               b(2) = (  1.000000  1.000000  1.000000 )  
               b(3) = ( -1.000000  1.000000 -1.000000 )  


     PseudoPot. # 1 for Au read from file:
     /home/lorenzo/pseudos/Au/Au.pbesol-n-rrkjus_psl.1.0.0.UPF
     MD5 check sum: 09626e9411213730b9a56fcc59c03ca8
     Pseudo is Ultrasoft + core correction, Zval = 11.0
     Generated using "atomic" code by A. Dal Corso v.6.3
     Using radial grid of 1279 points,  6 beta functions with: 
                l(1) =   0
                l(2) =   0
                l(3) =   1
                l(4) =   1
                l(5) =   2
                l(6) =   2
     Q(r) pseudized with 0 coefficients 


     atomic species   valence    mass     pseudopotential
        Au            11.00   196.96600     Au( 1.00)

     48 Sym. Ops., with inversion, found



   Cartesian axes

     site n.     atom                  positions (alat units)
         1           Au  tau(   1) = (   0.0000000   0.0000000   0.0000000  )

     number of k points=     3  gaussian smearing, width (Ry)=  0.0100
                       cart. coord. in units 2pi/alat
        k(    1) = (   0.0000000   0.0000000   0.0000000), wk =   0.2500000
        k(    2) = (   0.5000000  -0.5000000   0.5000000), wk =   1.0000000
        k(    3) = (   0.0000000  -1.0000000   0.0000000), wk =   0.7500000

     Dense  grid:     7239 G-vectors     FFT dimensions: (  27,  27,  27)

     Estimated max dynamical RAM per process >       7.03 MB

     Estimated total dynamical RAM >      35.15 MB

     Initial potential from superposition of free atoms

     starting charge   10.99990, renormalised to   11.00000
     Starting wfcs are    9 randomized atomic wfcs +    1 random wfcs

     total cpu time spent up to now is        1.1 secs

     Self-consistent Calculation

     iteration #  1     ecut=    60.00 Ry     beta= 0.70
     Davidson diagonalization with overlap
     ethr =  1.00E-02,  avg # of iterations =  6.7

     Threshold (ethr) on eigenvalues was too large:
     Diagonalizing with lowered threshold

     Davidson diagonalization with overlap
     ethr =  4.50E-04,  avg # of iterations =  3.7

     negative rho (up, down):  8.805E-03 0.000E+00

     total cpu time spent up to now is        1.3 secs

     total energy              =     -84.99196193 Ry
     Harris-Foulkes estimate   =     -84.96957264 Ry
     estimated scf accuracy    <       0.05360211 Ry

     iteration #  2     ecut=    60.00 Ry     beta= 0.70
     Davidson diagonalization with overlap
     ethr =  4.87E-04,  avg # of iterations =  4.7

     total cpu time spent up to now is        1.4 secs

     total energy              =     -30.09409306 Ry
     Harris-Foulkes estimate   =    -385.11351217 Ry
     estimated scf accuracy    <  208591.45621546 Ry

     iteration #  3     ecut=    60.00 Ry     beta= 0.70
     Davidson diagonalization with overlap
     ethr =  4.87E-04,  avg # of iterations = 13.7

     total cpu time spent up to now is        1.5 secs

     total energy              =     -84.95506579 Ry
     Harris-Foulkes estimate   =     -84.96910644 Ry
     estimated scf accuracy    <       0.04054924 Ry

     iteration #  4     ecut=    60.00 Ry     beta= 0.70
     Davidson diagonalization with overlap
     ethr =  3.69E-04,  avg # of iterations =  1.0

     total cpu time spent up to now is        1.5 secs

     total energy              =     -84.95623870 Ry
     Harris-Foulkes estimate   =     -84.95766974 Ry
     estimated scf accuracy    <       0.01481600 Ry

     iteration #  5     ecut=    60.00 Ry     beta= 0.70
     Davidson diagonalization with overlap
     ethr =  1.35E-04,  avg # of iterations =  3.0

     total cpu time spent up to now is        1.6 secs

     total energy              =     -84.95600028 Ry
     Harris-Foulkes estimate   =     -84.95980360 Ry
     estimated scf accuracy    <       0.01740339 Ry

     iteration #  6     ecut=    60.00 Ry     beta= 0.70
     Davidson diagonalization with overlap
     ethr =  1.35E-04,  avg # of iterations =  1.0

     total cpu time spent up to now is        1.7 secs

     total energy              =     -84.95804222 Ry
     Harris-Foulkes estimate   =     -84.95811814 Ry
     estimated scf accuracy    <       0.01011551 Ry

     iteration #  7     ecut=    60.00 Ry     beta= 0.70
     Davidson diagonalization with overlap
     ethr =  9.20E-05,  avg # of iterations =  1.0

     total cpu time spent up to now is        1.8 secs

     total energy              =     -84.95808121 Ry
     Harris-Foulkes estimate   =     -84.95810606 Ry
     estimated scf accuracy    <       0.00967746 Ry

     iteration #  8     ecut=    60.00 Ry     beta= 0.70
     Davidson diagonalization with overlap
     ethr =  8.80E-05,  avg # of iterations =  1.0

     total cpu time spent up to now is        1.9 secs

     total energy              =     -84.95803559 Ry
     Harris-Foulkes estimate   =     -84.95810595 Ry
     estimated scf accuracy    <       0.00977121 Ry

     iteration #  9     ecut=    60.00 Ry     beta= 0.70
     Davidson diagonalization with overlap
     ethr =  8.80E-05,  avg # of iterations =  1.0

     total cpu time spent up to now is        2.0 secs

     total energy              =     -84.95806726 Ry
     Harris-Foulkes estimate   =     -84.95807707 Ry
     estimated scf accuracy    <       0.00918514 Ry

     iteration # 10     ecut=    60.00 Ry     beta= 0.70
     Davidson diagonalization with overlap
     ethr =  8.35E-05,  avg # of iterations =  1.0

     total cpu time spent up to now is        2.0 secs

     total energy              =     -84.95806153 Ry
     Harris-Foulkes estimate   =     -84.95807368 Ry
     estimated scf accuracy    <       0.00927334 Ry

     iteration # 11     ecut=    60.00 Ry     beta= 0.70
     Davidson diagonalization with overlap
     ethr =  8.35E-05,  avg # of iterations =  1.0

     total cpu time spent up to now is        2.1 secs

     total energy              =     -84.95683808 Ry
     Harris-Foulkes estimate   =     -84.95806362 Ry
     estimated scf accuracy    <       0.00912560 Ry

     iteration # 12     ecut=    60.00 Ry     beta= 0.70
     Davidson diagonalization with overlap
     ethr =  8.30E-05,  avg # of iterations =  4.0

     total cpu time spent up to now is        2.1 secs

     total energy              =     -84.95568553 Ry
     Harris-Foulkes estimate   =     -84.96122452 Ry
     estimated scf accuracy    <       0.07732362 Ry

     iteration # 13     ecut=    60.00 Ry     beta= 0.70
     Davidson diagonalization with overlap
     ethr =  8.30E-05,  avg # of iterations =  2.0

     total cpu time spent up to now is        2.2 secs

     total energy              =     -84.95754576 Ry
     Harris-Foulkes estimate   =     -84.95770235 Ry
     estimated scf accuracy    <       0.00213317 Ry

     iteration # 14     ecut=    60.00 Ry     beta= 0.70
     Davidson diagonalization with overlap
     ethr =  1.94E-05,  avg # of iterations =  2.0

     total cpu time spent up to now is        2.2 secs

     total energy              =     -84.95776004 Ry
     Harris-Foulkes estimate   =     -84.95776095 Ry
     estimated scf accuracy    <       0.00007650 Ry

     iteration # 15     ecut=    60.00 Ry     beta= 0.70
     Davidson diagonalization with overlap
     ethr =  6.95E-07,  avg # of iterations =  3.3

     total cpu time spent up to now is        2.3 secs

     total energy              =     -84.95775948 Ry
     Harris-Foulkes estimate   =     -84.95777974 Ry
     estimated scf accuracy    <       0.00044794 Ry

     iteration # 16     ecut=    60.00 Ry     beta= 0.70
     Davidson diagonalization with overlap
     ethr =  6.95E-07,  avg # of iterations =  1.3

     total cpu time spent up to now is        2.3 secs

     total energy              =     -84.95775632 Ry
     Harris-Foulkes estimate   =     -84.95776493 Ry
     estimated scf accuracy    <       0.00010142 Ry

     iteration # 17     ecut=    60.00 Ry     beta= 0.70
     Davidson diagonalization with overlap
     ethr =  6.95E-07,  avg # of iterations =  1.3

     total cpu time spent up to now is        2.4 secs

     total energy              =     -84.95776232 Ry
     Harris-Foulkes estimate   =     -84.95776208 Ry
     estimated scf accuracy    <       0.00000049 Ry

     iteration # 18     ecut=    60.00 Ry     beta= 0.70
     Davidson diagonalization with overlap
     ethr =  4.48E-09,  avg # of iterations =  3.7

     total cpu time spent up to now is        2.4 secs

     total energy              =     -84.95776012 Ry
     Harris-Foulkes estimate   =     -84.95776798 Ry
     estimated scf accuracy    <       0.00012982 Ry

     iteration # 19     ecut=    60.00 Ry     beta= 0.70
     Davidson diagonalization with overlap
     ethr =  4.48E-09,  avg # of iterations =  3.0

     total cpu time spent up to now is        2.5 secs

     total energy              =     -84.95776336 Ry
     Harris-Foulkes estimate   =     -84.95776367 Ry
     estimated scf accuracy    <       0.00000176 Ry

     iteration # 20     ecut=    60.00 Ry     beta= 0.70
     Davidson diagonalization with overlap
     ethr =  4.48E-09,  avg # of iterations =  2.3

     total cpu time spent up to now is        2.5 secs

     total energy              =     -84.95776373 Ry
     Harris-Foulkes estimate   =     -84.95776376 Ry
     estimated scf accuracy    <       0.00000537 Ry

     iteration # 21     ecut=    60.00 Ry     beta= 0.70
     Davidson diagonalization with overlap
     ethr =  4.48E-09,  avg # of iterations =  1.0

     total cpu time spent up to now is        2.6 secs

     total energy              =     -84.95776340 Ry
     Harris-Foulkes estimate   =     -84.95776373 Ry
     estimated scf accuracy    <       0.00000503 Ry

     iteration # 22     ecut=    60.00 Ry     beta= 0.70
     Davidson diagonalization with overlap
     ethr =  4.48E-09,  avg # of iterations =  1.7

     total cpu time spent up to now is        2.6 secs

     End of self-consistent calculation

          k = 0.0000 0.0000 0.0000 (   893 PWs)   bands (ev):

     5.8546  11.4942  11.4942  11.4942  13.1293  13.1293  31.0300  35.0339
    35.0339  35.0339

          k = 0.5000-0.5000 0.5000 (   886 PWs)   bands (ev):

     8.6442  11.4708  11.4708  14.3625  14.3625  14.7743  19.2150  30.3540
    33.4213  33.4213

          k = 0.0000-1.0000 0.0000 (   934 PWs)   bands (ev):

     8.9579   9.3217  14.3366  14.6890  14.6890  16.7805  21.7753  26.0192
    26.0192  32.8602

     the Fermi energy is    14.8584 ev

!    total energy              =     -84.95776359 Ry
     Harris-Foulkes estimate   =     -84.95776358 Ry
     estimated scf accuracy    <          5.2E-09 Ry

     The total energy is the sum of the following terms:

     one-electron contribution =      11.10339324 Ry
     hartree contribution      =       7.81836607 Ry
     xc contribution           =     -31.92231227 Ry
     ewald contribution        =     -71.95438535 Ry
     smearing contrib. (-TS)   =      -0.00282528 Ry

     convergence has been achieved in  22 iterations

     Forces acting on atoms (cartesian axes, Ry/au):

     atom    1 type  1   force =     0.00000000    0.00000000    0.00000000

     Total force =     0.000000     Total SCF correction =     0.000000


     Computing stress (Cartesian axis) and pressure

          total   stress  (Ry/bohr**3)                   (kbar)     P=  497.67
   0.00338307   0.00000000   0.00000000        497.67      0.00      0.00
   0.00000000   0.00338307   0.00000000          0.00    497.67      0.00
   0.00000000  -0.00000000   0.00338307          0.00     -0.00    497.67


     Writing output data file Au.save/

     init_run     :      0.21s CPU      0.22s WALL (       1 calls)
     electrons    :      1.46s CPU      1.52s WALL (       1 calls)
     forces       :      0.03s CPU      0.03s WALL (       1 calls)
     stress       :      0.11s CPU      0.11s WALL (       1 calls)

     Called by init_run:
     wfcinit      :      0.01s CPU      0.01s WALL (       1 calls)
     potinit      :      0.01s CPU      0.01s WALL (       1 calls)
     hinit0       :      0.18s CPU      0.18s WALL (       1 calls)

     Called by electrons:
     c_bands      :      0.78s CPU      0.82s WALL (      23 calls)
     sum_band     :      0.36s CPU      0.37s WALL (      23 calls)
     v_of_rho     :      0.11s CPU      0.11s WALL (      23 calls)
     newd         :      0.18s CPU      0.19s WALL (      23 calls)
     mix_rho      :      0.02s CPU      0.02s WALL (      23 calls)

     Called by c_bands:
     init_us_2    :      0.02s CPU      0.02s WALL (     147 calls)
     cegterg      :      0.75s CPU      0.79s WALL (      69 calls)

     Called by sum_band:
     sum_band:bec :      0.00s CPU      0.00s WALL (      69 calls)
     addusdens    :      0.17s CPU      0.17s WALL (      23 calls)

     Called by *egterg:
     h_psi        :      0.56s CPU      0.59s WALL (     265 calls)
     s_psi        :      0.01s CPU      0.02s WALL (     265 calls)
     g_psi        :      0.00s CPU      0.00s WALL (     193 calls)
     cdiaghg      :      0.08s CPU      0.09s WALL (     259 calls)

     Called by h_psi:
     h_psi:pot    :      0.55s CPU      0.59s WALL (     265 calls)
     h_psi:calbec :      0.03s CPU      0.03s WALL (     265 calls)
     vloc_psi     :      0.51s CPU      0.54s WALL (     265 calls)
     add_vuspsi   :      0.02s CPU      0.02s WALL (     265 calls)

     General routines
     calbec       :      0.04s CPU      0.04s WALL (     349 calls)
     fft          :      0.07s CPU      0.07s WALL (     280 calls)
     ffts         :      0.01s CPU      0.01s WALL (      23 calls)
     fftw         :      0.57s CPU      0.60s WALL (    4288 calls)

     Parallel routines
     fft_scatt_xy :      0.05s CPU      0.05s WALL (    4591 calls)
     fft_scatt_yz :      0.24s CPU      0.25s WALL (    4591 calls)

     PWSCF        :     2.72s CPU         2.83s WALL


   This run was terminated on:  11:53:44  26Mar2024            

=------------------------------------------------------------------------------=
   JOB DONE.
=------------------------------------------------------------------------------=
