
     Program PWSCF v.6.3MaX starts on 26Mar2024 at 11:42:25 

     This program is part of the open-source Quantum ESPRESSO suite
     for quantum simulation of materials; please cite
         "P. Giannozzi et al., J. Phys.:Condens. Matter 21 395502 (2009);
         "P. Giannozzi et al., J. Phys.:Condens. Matter 29 465901 (2017);
          URL http://www.quantum-espresso.org", 
     in publications or presentations arising from this work. More details at
     http://www.quantum-espresso.org/quote

     Parallel version (MPI), running on     5 processors

     MPI processes distributed on     1 nodes
     R & G space division:  proc/nbgrp/npool/nimage =       5
     Waiting for input...
     Reading input from standard input

     Current dimensions of program PWSCF are:
     Max number of different atomic species (ntypx) = 10
     Max number of k-points (npk) =  40000
     Max angular momentum in pseudopotentials (lmaxx) =  3

     Subspace diagonalization in iterative solution of the eigenvalue problem:
     a serial algorithm will be used


     Parallelization info
     --------------------
     sticks:   dense  smooth     PW     G-vecs:    dense   smooth      PW
     Min          84      84     24                 1115     1115     187
     Max          85      85     25                 1117     1117     191
     Sum         421     421    121                 5577     5577     941



     bravais-lattice index     =            2
     lattice parameter (alat)  =       7.7100  a.u.
     unit-cell volume          =     114.5785 (a.u.)^3
     number of atoms/cell      =            1
     number of atomic types    =            1
     number of electrons       =        11.00
     number of Kohn-Sham states=           10
     kinetic-energy cutoff     =      50.0000  Ry
     charge density cutoff     =     200.0000  Ry
     convergence threshold     =      1.0E-08
     mixing beta               =       0.7000
     number of iterations used =            8  plain     mixing
     Exchange-correlation      = PBESOL ( 1  4 10  8 0 0)

     celldm(1)=   7.710000  celldm(2)=   0.000000  celldm(3)=   0.000000
     celldm(4)=   0.000000  celldm(5)=   0.000000  celldm(6)=   0.000000

     crystal axes: (cart. coord. in units of alat)
               a(1) = (  -0.500000   0.000000   0.500000 )  
               a(2) = (   0.000000   0.500000   0.500000 )  
               a(3) = (  -0.500000   0.500000   0.000000 )  

     reciprocal axes: (cart. coord. in units 2 pi/alat)
               b(1) = ( -1.000000 -1.000000  1.000000 )  
               b(2) = (  1.000000  1.000000  1.000000 )  
               b(3) = ( -1.000000  1.000000 -1.000000 )  


     PseudoPot. # 1 for Au read from file:
     /home/lorenzo/pseudos/Au/Au.pbesol-n-rrkjus_psl.1.0.0.UPF
     MD5 check sum: 09626e9411213730b9a56fcc59c03ca8
     Pseudo is Ultrasoft + core correction, Zval = 11.0
     Generated using "atomic" code by A. Dal Corso v.6.3
     Using radial grid of 1279 points,  6 beta functions with: 
                l(1) =   0
                l(2) =   0
                l(3) =   1
                l(4) =   1
                l(5) =   2
                l(6) =   2
     Q(r) pseudized with 0 coefficients 


     atomic species   valence    mass     pseudopotential
        Au            11.00   196.96600     Au( 1.00)

     48 Sym. Ops., with inversion, found



   Cartesian axes

     site n.     atom                  positions (alat units)
         1           Au  tau(   1) = (   0.0000000   0.0000000   0.0000000  )

     number of k points=     4  gaussian smearing, width (Ry)=  0.0100
                       cart. coord. in units 2pi/alat
        k(    1) = (   0.0000000   0.0000000   0.0000000), wk =   0.0740741
        k(    2) = (  -0.3333333   0.3333333  -0.3333333), wk =   0.5925926
        k(    3) = (   0.0000000   0.6666667   0.0000000), wk =   0.4444444
        k(    4) = (   0.6666667  -0.0000000   0.6666667), wk =   0.8888889

     Dense  grid:     5577 G-vectors     FFT dimensions: (  25,  25,  25)

     Estimated max dynamical RAM per process >       5.64 MB

     Estimated total dynamical RAM >      28.20 MB

     Initial potential from superposition of free atoms

     starting charge   10.99990, renormalised to   11.00000
     Starting wfcs are    9 randomized atomic wfcs +    1 random wfcs

     total cpu time spent up to now is        1.0 secs

     Self-consistent Calculation

     iteration #  1     ecut=    50.00 Ry     beta= 0.70
     Davidson diagonalization with overlap
     ethr =  1.00E-02,  avg # of iterations =  6.5

     Threshold (ethr) on eigenvalues was too large:
     Diagonalizing with lowered threshold

     Davidson diagonalization with overlap
     ethr =  6.11E-04,  avg # of iterations =  1.5

     total cpu time spent up to now is        1.1 secs

     total energy              =     -85.22302550 Ry
     Harris-Foulkes estimate   =     -85.26051999 Ry
     estimated scf accuracy    <       0.06704597 Ry

     iteration #  2     ecut=    50.00 Ry     beta= 0.70
     Davidson diagonalization with overlap
     ethr =  6.10E-04,  avg # of iterations =  4.2

     total cpu time spent up to now is        1.2 secs

     total energy              =     -37.98960939 Ry
     Harris-Foulkes estimate   =    -182.75529671 Ry
     estimated scf accuracy    <  177759.52801915 Ry

     iteration #  3     ecut=    50.00 Ry     beta= 0.70
     Davidson diagonalization with overlap
     ethr =  6.10E-04,  avg # of iterations =  6.0

     total cpu time spent up to now is        1.3 secs

     total energy              =     -85.23463560 Ry
     Harris-Foulkes estimate   =     -85.24407765 Ry
     estimated scf accuracy    <       0.01895727 Ry

     iteration #  4     ecut=    50.00 Ry     beta= 0.70
     Davidson diagonalization with overlap
     ethr =  1.72E-04,  avg # of iterations =  3.5

     total cpu time spent up to now is        1.3 secs

     total energy              =     -85.23757142 Ry
     Harris-Foulkes estimate   =     -85.23768076 Ry
     estimated scf accuracy    <       0.00392898 Ry

     iteration #  5     ecut=    50.00 Ry     beta= 0.70
     Davidson diagonalization with overlap
     ethr =  3.57E-05,  avg # of iterations =  2.5

     total cpu time spent up to now is        1.4 secs

     total energy              =     -85.23801916 Ry
     Harris-Foulkes estimate   =     -85.23805260 Ry
     estimated scf accuracy    <       0.00225972 Ry

     iteration #  6     ecut=    50.00 Ry     beta= 0.70
     Davidson diagonalization with overlap
     ethr =  2.05E-05,  avg # of iterations =  1.0

     total cpu time spent up to now is        1.4 secs

     total energy              =     -85.23804458 Ry
     Harris-Foulkes estimate   =     -85.23805839 Ry
     estimated scf accuracy    <       0.00233817 Ry

     iteration #  7     ecut=    50.00 Ry     beta= 0.70
     Davidson diagonalization with overlap
     ethr =  2.05E-05,  avg # of iterations =  1.0

     total cpu time spent up to now is        1.5 secs

     total energy              =     -85.23806377 Ry
     Harris-Foulkes estimate   =     -85.23806055 Ry
     estimated scf accuracy    <       0.00254427 Ry

     iteration #  8     ecut=    50.00 Ry     beta= 0.70
     Davidson diagonalization with overlap
     ethr =  2.05E-05,  avg # of iterations =  2.2

     total cpu time spent up to now is        1.5 secs

     total energy              =     -85.23806377 Ry
     Harris-Foulkes estimate   =     -85.23806781 Ry
     estimated scf accuracy    <       0.00260884 Ry

     iteration #  9     ecut=    50.00 Ry     beta= 0.70
     Davidson diagonalization with overlap
     ethr =  2.05E-05,  avg # of iterations =  1.0

     total cpu time spent up to now is        1.6 secs

     total energy              =     -85.23806396 Ry
     Harris-Foulkes estimate   =     -85.23806545 Ry
     estimated scf accuracy    <       0.00265633 Ry

     iteration # 10     ecut=    50.00 Ry     beta= 0.70
     Davidson diagonalization with overlap
     ethr =  2.05E-05,  avg # of iterations =  1.0

     total cpu time spent up to now is        1.6 secs

     total energy              =     -85.23806336 Ry
     Harris-Foulkes estimate   =     -85.23806469 Ry
     estimated scf accuracy    <       0.00267181 Ry

     iteration # 11     ecut=    50.00 Ry     beta= 0.70
     Davidson diagonalization with overlap
     ethr =  2.05E-05,  avg # of iterations =  1.0

     total cpu time spent up to now is        1.6 secs

     total energy              =     -85.23825427 Ry
     Harris-Foulkes estimate   =     -85.23806371 Ry
     estimated scf accuracy    <       0.00268417 Ry

     iteration # 12     ecut=    50.00 Ry     beta= 0.70
     Davidson diagonalization with overlap
     ethr =  2.05E-05,  avg # of iterations =  1.5

     total cpu time spent up to now is        1.7 secs

     total energy              =     -85.23830047 Ry
     Harris-Foulkes estimate   =     -85.23829959 Ry
     estimated scf accuracy    <       0.00545106 Ry

     iteration # 13     ecut=    50.00 Ry     beta= 0.70
     Davidson diagonalization with overlap
     ethr =  2.05E-05,  avg # of iterations =  1.0

     total cpu time spent up to now is        1.7 secs

     total energy              =     -85.23803960 Ry
     Harris-Foulkes estimate   =     -85.23830362 Ry
     estimated scf accuracy    <       0.00552441 Ry

     iteration # 14     ecut=    50.00 Ry     beta= 0.70
     Davidson diagonalization with overlap
     ethr =  2.05E-05,  avg # of iterations =  3.2

     total cpu time spent up to now is        1.8 secs

     total energy              =     -85.23776705 Ry
     Harris-Foulkes estimate   =     -85.23808901 Ry
     estimated scf accuracy    <       0.00312295 Ry

     iteration # 15     ecut=    50.00 Ry     beta= 0.70
     Davidson diagonalization with overlap
     ethr =  2.05E-05,  avg # of iterations =  2.0

     total cpu time spent up to now is        1.8 secs

     total energy              =     -85.23787531 Ry
     Harris-Foulkes estimate   =     -85.23787367 Ry
     estimated scf accuracy    <       0.00053928 Ry

     iteration # 16     ecut=    50.00 Ry     beta= 0.70
     Davidson diagonalization with overlap
     ethr =  4.90E-06,  avg # of iterations =  2.0

     total cpu time spent up to now is        1.9 secs

     total energy              =     -85.23786458 Ry
     Harris-Foulkes estimate   =     -85.23788420 Ry
     estimated scf accuracy    <       0.00043761 Ry

     iteration # 17     ecut=    50.00 Ry     beta= 0.70
     Davidson diagonalization with overlap
     ethr =  3.98E-06,  avg # of iterations =  1.0

     total cpu time spent up to now is        1.9 secs

     total energy              =     -85.23787078 Ry
     Harris-Foulkes estimate   =     -85.23786883 Ry
     estimated scf accuracy    <       0.00026288 Ry

     iteration # 18     ecut=    50.00 Ry     beta= 0.70
     Davidson diagonalization with overlap
     ethr =  2.39E-06,  avg # of iterations =  1.0

     total cpu time spent up to now is        2.0 secs

     total energy              =     -85.23784578 Ry
     Harris-Foulkes estimate   =     -85.23787200 Ry
     estimated scf accuracy    <       0.00024739 Ry

     iteration # 19     ecut=    50.00 Ry     beta= 0.70
     Davidson diagonalization with overlap
     ethr =  2.25E-06,  avg # of iterations =  1.8

     total cpu time spent up to now is        2.0 secs

     total energy              =     -85.23785618 Ry
     Harris-Foulkes estimate   =     -85.23785682 Ry
     estimated scf accuracy    <       0.00003964 Ry

     iteration # 20     ecut=    50.00 Ry     beta= 0.70
     Davidson diagonalization with overlap
     ethr =  3.60E-07,  avg # of iterations =  2.0

     total cpu time spent up to now is        2.0 secs

     total energy              =     -85.23785835 Ry
     Harris-Foulkes estimate   =     -85.23785918 Ry
     estimated scf accuracy    <       0.00001455 Ry

     iteration # 21     ecut=    50.00 Ry     beta= 0.70
     Davidson diagonalization with overlap
     ethr =  1.32E-07,  avg # of iterations =  1.0

     total cpu time spent up to now is        2.1 secs

     total energy              =     -85.23785867 Ry
     Harris-Foulkes estimate   =     -85.23785855 Ry
     estimated scf accuracy    <       0.00000736 Ry

     iteration # 22     ecut=    50.00 Ry     beta= 0.70
     Davidson diagonalization with overlap
     ethr =  6.69E-08,  avg # of iterations =  1.0

     total cpu time spent up to now is        2.1 secs

     total energy              =     -85.23785813 Ry
     Harris-Foulkes estimate   =     -85.23785870 Ry
     estimated scf accuracy    <       0.00000720 Ry

     iteration # 23     ecut=    50.00 Ry     beta= 0.70
     Davidson diagonalization with overlap
     ethr =  6.54E-08,  avg # of iterations =  1.0

     total cpu time spent up to now is        2.2 secs

     total energy              =     -85.23785821 Ry
     Harris-Foulkes estimate   =     -85.23785827 Ry
     estimated scf accuracy    <       0.00000240 Ry

     iteration # 24     ecut=    50.00 Ry     beta= 0.70
     Davidson diagonalization with overlap
     ethr =  2.18E-08,  avg # of iterations =  1.0

     total cpu time spent up to now is        2.2 secs

     total energy              =     -85.23785833 Ry
     Harris-Foulkes estimate   =     -85.23785824 Ry
     estimated scf accuracy    <       0.00000195 Ry

     iteration # 25     ecut=    50.00 Ry     beta= 0.70
     Davidson diagonalization with overlap
     ethr =  1.77E-08,  avg # of iterations =  1.0

     total cpu time spent up to now is        2.2 secs

     total energy              =     -85.23785830 Ry
     Harris-Foulkes estimate   =     -85.23785834 Ry
     estimated scf accuracy    <       0.00000208 Ry

     iteration # 26     ecut=    50.00 Ry     beta= 0.70
     Davidson diagonalization with overlap
     ethr =  1.77E-08,  avg # of iterations =  1.0

     total cpu time spent up to now is        2.3 secs

     total energy              =     -85.23785837 Ry
     Harris-Foulkes estimate   =     -85.23785831 Ry
     estimated scf accuracy    <       0.00000172 Ry

     iteration # 27     ecut=    50.00 Ry     beta= 0.70
     Davidson diagonalization with overlap
     ethr =  1.57E-08,  avg # of iterations =  1.0

     total cpu time spent up to now is        2.3 secs

     total energy              =     -85.23785832 Ry
     Harris-Foulkes estimate   =     -85.23785837 Ry
     estimated scf accuracy    <       0.00000209 Ry

     iteration # 28     ecut=    50.00 Ry     beta= 0.70
     Davidson diagonalization with overlap
     ethr =  1.57E-08,  avg # of iterations =  1.0

     total cpu time spent up to now is        2.4 secs

     total energy              =     -85.23785801 Ry
     Harris-Foulkes estimate   =     -85.23785833 Ry
     estimated scf accuracy    <       0.00000177 Ry

     iteration # 29     ecut=    50.00 Ry     beta= 0.70
     Davidson diagonalization with overlap
     ethr =  1.57E-08,  avg # of iterations =  1.8

     total cpu time spent up to now is        2.4 secs

     total energy              =     -85.23785829 Ry
     Harris-Foulkes estimate   =     -85.23785822 Ry
     estimated scf accuracy    <       0.00000014 Ry

     iteration # 30     ecut=    50.00 Ry     beta= 0.70
     Davidson diagonalization with overlap
     ethr =  1.31E-09,  avg # of iterations =  3.2

     total cpu time spent up to now is        2.5 secs

     total energy              =     -85.23785803 Ry
     Harris-Foulkes estimate   =     -85.23785846 Ry
     estimated scf accuracy    <       0.00000348 Ry

     iteration # 31     ecut=    50.00 Ry     beta= 0.70
     Davidson diagonalization with overlap
     ethr =  1.31E-09,  avg # of iterations =  3.0

     total cpu time spent up to now is        2.5 secs

     total energy              =     -85.23785820 Ry
     Harris-Foulkes estimate   =     -85.23785821 Ry
     estimated scf accuracy    <       0.00000007 Ry

     iteration # 32     ecut=    50.00 Ry     beta= 0.70
     Davidson diagonalization with overlap
     ethr =  6.21E-10,  avg # of iterations =  1.2

     total cpu time spent up to now is        2.6 secs

     End of self-consistent calculation

          k = 0.0000 0.0000 0.0000 (   701 PWs)   bands (ev):

     5.8304  11.0749  11.0749  11.0749  12.6014  12.6014  31.1538  34.9934
    34.9934  34.9934

          k =-0.3333 0.3333-0.3333 (   685 PWs)   bands (ev):

     8.2518  11.2258  11.2258  11.7800  13.2254  13.2254  23.7040  31.3281
    34.9174  34.9174

          k = 0.0000 0.6667 0.0000 (   693 PWs)   bands (ev):

     8.8657   9.4514  12.7345  13.1254  13.1254  13.4563  27.9317  28.3743
    28.3743  32.3585

          k = 0.6667-0.0000 0.6667 (   680 PWs)   bands (ev):

     9.5844  10.3896  11.2683  12.4895  13.3794  18.2344  22.2466  22.9088
    30.1725  33.0943

     the Fermi energy is    13.5482 ev

!    total energy              =     -85.23785825 Ry
     Harris-Foulkes estimate   =     -85.23785821 Ry
     estimated scf accuracy    <          7.2E-09 Ry

     The total energy is the sum of the following terms:

     one-electron contribution =      11.01436114 Ry
     hartree contribution      =       7.49384502 Ry
     xc contribution           =     -31.79033484 Ry
     ewald contribution        =     -71.95438538 Ry
     smearing contrib. (-TS)   =      -0.00134418 Ry

     convergence has been achieved in  32 iterations

     Forces acting on atoms (cartesian axes, Ry/au):

     atom    1 type  1   force =     0.00000000    0.00000000    0.00000000

     Total force =     0.000000     Total SCF correction =     0.000000


     Computing stress (Cartesian axis) and pressure

          total   stress  (Ry/bohr**3)                   (kbar)     P=  -45.89
  -0.00031197   0.00000000   0.00000000        -45.89      0.00      0.00
   0.00000000  -0.00031197  -0.00000000          0.00    -45.89     -0.00
   0.00000000  -0.00000000  -0.00031197          0.00     -0.00    -45.89


     Writing output data file Au.save/

     init_run     :      0.17s CPU      0.17s WALL (       1 calls)
     electrons    :      1.48s CPU      1.56s WALL (       1 calls)
     forces       :      0.02s CPU      0.02s WALL (       1 calls)
     stress       :      0.06s CPU      0.06s WALL (       1 calls)

     Called by init_run:
     wfcinit      :      0.01s CPU      0.01s WALL (       1 calls)
     potinit      :      0.01s CPU      0.01s WALL (       1 calls)
     hinit0       :      0.14s CPU      0.15s WALL (       1 calls)

     Called by electrons:
     c_bands      :      0.81s CPU      0.86s WALL (      33 calls)
     sum_band     :      0.35s CPU      0.37s WALL (      33 calls)
     v_of_rho     :      0.10s CPU      0.11s WALL (      33 calls)
     newd         :      0.20s CPU      0.20s WALL (      33 calls)
     mix_rho      :      0.02s CPU      0.02s WALL (      33 calls)

     Called by c_bands:
     init_us_2    :      0.03s CPU      0.03s WALL (     276 calls)
     cegterg      :      0.76s CPU      0.81s WALL (     132 calls)

     Called by sum_band:
     sum_band:bec :      0.00s CPU      0.00s WALL (     132 calls)
     addusdens    :      0.17s CPU      0.18s WALL (      33 calls)

     Called by *egterg:
     h_psi        :      0.58s CPU      0.62s WALL (     393 calls)
     s_psi        :      0.02s CPU      0.02s WALL (     393 calls)
     g_psi        :      0.00s CPU      0.00s WALL (     257 calls)
     cdiaghg      :      0.08s CPU      0.08s WALL (     385 calls)

     Called by h_psi:
     h_psi:pot    :      0.58s CPU      0.62s WALL (     393 calls)
     h_psi:calbec :      0.03s CPU      0.03s WALL (     393 calls)
     vloc_psi     :      0.53s CPU      0.57s WALL (     393 calls)
     add_vuspsi   :      0.02s CPU      0.02s WALL (     393 calls)

     General routines
     calbec       :      0.04s CPU      0.04s WALL (     545 calls)
     fft          :      0.07s CPU      0.07s WALL (     390 calls)
     ffts         :      0.00s CPU      0.01s WALL (      33 calls)
     fftw         :      0.61s CPU      0.64s WALL (    7404 calls)

     Parallel routines
     fft_scatt_xy :      0.06s CPU      0.06s WALL (    7827 calls)
     fft_scatt_yz :      0.21s CPU      0.22s WALL (    7827 calls)

     PWSCF        :     2.55s CPU         2.67s WALL


   This run was terminated on:  11:42:28  26Mar2024            

=------------------------------------------------------------------------------=
   JOB DONE.
=------------------------------------------------------------------------------=
