
     Program PWSCF v.6.3MaX starts on 26Mar2024 at 11:42:39 

     This program is part of the open-source Quantum ESPRESSO suite
     for quantum simulation of materials; please cite
         "P. Giannozzi et al., J. Phys.:Condens. Matter 21 395502 (2009);
         "P. Giannozzi et al., J. Phys.:Condens. Matter 29 465901 (2017);
          URL http://www.quantum-espresso.org", 
     in publications or presentations arising from this work. More details at
     http://www.quantum-espresso.org/quote

     Parallel version (MPI), running on     5 processors

     MPI processes distributed on     1 nodes
     R & G space division:  proc/nbgrp/npool/nimage =       5
     Waiting for input...
     Reading input from standard input

     Current dimensions of program PWSCF are:
     Max number of different atomic species (ntypx) = 10
     Max number of k-points (npk) =  40000
     Max angular momentum in pseudopotentials (lmaxx) =  3

     Subspace diagonalization in iterative solution of the eigenvalue problem:
     a serial algorithm will be used


     Parallelization info
     --------------------
     sticks:   dense  smooth     PW     G-vecs:    dense   smooth      PW
     Min          84      84     24                 1115     1115     187
     Max          85      85     25                 1117     1117     191
     Sum         421     421    121                 5577     5577     941



     bravais-lattice index     =            2
     lattice parameter (alat)  =       7.7100  a.u.
     unit-cell volume          =     114.5785 (a.u.)^3
     number of atoms/cell      =            1
     number of atomic types    =            1
     number of electrons       =        11.00
     number of Kohn-Sham states=           10
     kinetic-energy cutoff     =      50.0000  Ry
     charge density cutoff     =     200.0000  Ry
     convergence threshold     =      1.0E-08
     mixing beta               =       0.7000
     number of iterations used =            8  plain     mixing
     Exchange-correlation      = PBESOL ( 1  4 10  8 0 0)

     celldm(1)=   7.710000  celldm(2)=   0.000000  celldm(3)=   0.000000
     celldm(4)=   0.000000  celldm(5)=   0.000000  celldm(6)=   0.000000

     crystal axes: (cart. coord. in units of alat)
               a(1) = (  -0.500000   0.000000   0.500000 )  
               a(2) = (   0.000000   0.500000   0.500000 )  
               a(3) = (  -0.500000   0.500000   0.000000 )  

     reciprocal axes: (cart. coord. in units 2 pi/alat)
               b(1) = ( -1.000000 -1.000000  1.000000 )  
               b(2) = (  1.000000  1.000000  1.000000 )  
               b(3) = ( -1.000000  1.000000 -1.000000 )  


     PseudoPot. # 1 for Au read from file:
     /home/lorenzo/pseudos/Au/Au.pbesol-n-rrkjus_psl.1.0.0.UPF
     MD5 check sum: 09626e9411213730b9a56fcc59c03ca8
     Pseudo is Ultrasoft + core correction, Zval = 11.0
     Generated using "atomic" code by A. Dal Corso v.6.3
     Using radial grid of 1279 points,  6 beta functions with: 
                l(1) =   0
                l(2) =   0
                l(3) =   1
                l(4) =   1
                l(5) =   2
                l(6) =   2
     Q(r) pseudized with 0 coefficients 


     atomic species   valence    mass     pseudopotential
        Au            11.00   196.96600     Au( 1.00)

     48 Sym. Ops., with inversion, found



   Cartesian axes

     site n.     atom                  positions (alat units)
         1           Au  tau(   1) = (   0.0000000   0.0000000   0.0000000  )

     number of k points=     8  gaussian smearing, width (Ry)=  0.0100
                       cart. coord. in units 2pi/alat
        k(    1) = (   0.0000000   0.0000000   0.0000000), wk =   0.0312500
        k(    2) = (  -0.2500000   0.2500000  -0.2500000), wk =   0.2500000
        k(    3) = (   0.5000000  -0.5000000   0.5000000), wk =   0.1250000
        k(    4) = (   0.0000000   0.5000000   0.0000000), wk =   0.1875000
        k(    5) = (   0.7500000  -0.2500000   0.7500000), wk =   0.7500000
        k(    6) = (   0.5000000   0.0000000   0.5000000), wk =   0.3750000
        k(    7) = (   0.0000000  -1.0000000   0.0000000), wk =   0.0937500
        k(    8) = (  -0.5000000  -1.0000000   0.0000000), wk =   0.1875000

     Dense  grid:     5577 G-vectors     FFT dimensions: (  25,  25,  25)

     Estimated max dynamical RAM per process >       5.72 MB

     Estimated total dynamical RAM >      28.61 MB

     Initial potential from superposition of free atoms

     starting charge   10.99990, renormalised to   11.00000
     Starting wfcs are    9 randomized atomic wfcs +    1 random wfcs

     total cpu time spent up to now is        1.0 secs

     Self-consistent Calculation

     iteration #  1     ecut=    50.00 Ry     beta= 0.70
     Davidson diagonalization with overlap
     ethr =  1.00E-02,  avg # of iterations =  6.0

     Threshold (ethr) on eigenvalues was too large:
     Diagonalizing with lowered threshold

     Davidson diagonalization with overlap
     ethr =  5.43E-04,  avg # of iterations =  1.5

     total cpu time spent up to now is        1.2 secs

     total energy              =     -85.18436594 Ry
     Harris-Foulkes estimate   =     -85.21310050 Ry
     estimated scf accuracy    <       0.06230724 Ry

     iteration #  2     ecut=    50.00 Ry     beta= 0.70
     Davidson diagonalization with overlap
     ethr =  5.66E-04,  avg # of iterations =  4.4

     total cpu time spent up to now is        1.3 secs

     total energy              =     -34.63650935 Ry
     Harris-Foulkes estimate   =    -248.32466522 Ry
     estimated scf accuracy    <  183635.19303679 Ry

     iteration #  3     ecut=    50.00 Ry     beta= 0.70
     Davidson diagonalization with overlap
     ethr =  5.66E-04,  avg # of iterations =  7.1

     total cpu time spent up to now is        1.5 secs

     total energy              =     -85.18970693 Ry
     Harris-Foulkes estimate   =     -85.19938506 Ry
     estimated scf accuracy    <       0.02312201 Ry

     iteration #  4     ecut=    50.00 Ry     beta= 0.70
     Davidson diagonalization with overlap
     ethr =  2.10E-04,  avg # of iterations =  2.2

     total cpu time spent up to now is        1.5 secs

     total energy              =     -85.19265992 Ry
     Harris-Foulkes estimate   =     -85.19280103 Ry
     estimated scf accuracy    <       0.00665217 Ry

     iteration #  5     ecut=    50.00 Ry     beta= 0.70
     Davidson diagonalization with overlap
     ethr =  6.05E-05,  avg # of iterations =  3.6

     total cpu time spent up to now is        1.6 secs

     total energy              =     -85.19301638 Ry
     Harris-Foulkes estimate   =     -85.19302670 Ry
     estimated scf accuracy    <       0.00453533 Ry

     iteration #  6     ecut=    50.00 Ry     beta= 0.70
     Davidson diagonalization with overlap
     ethr =  4.12E-05,  avg # of iterations =  2.2

     total cpu time spent up to now is        1.7 secs

     total energy              =     -85.19309183 Ry
     Harris-Foulkes estimate   =     -85.19309644 Ry
     estimated scf accuracy    <       0.00443472 Ry

     iteration #  7     ecut=    50.00 Ry     beta= 0.70
     Davidson diagonalization with overlap
     ethr =  4.03E-05,  avg # of iterations =  1.0

     total cpu time spent up to now is        1.8 secs

     total energy              =     -85.19311883 Ry
     Harris-Foulkes estimate   =     -85.19312004 Ry
     estimated scf accuracy    <       0.00447835 Ry

     iteration #  8     ecut=    50.00 Ry     beta= 0.70
     Davidson diagonalization with overlap
     ethr =  4.03E-05,  avg # of iterations =  1.0

     total cpu time spent up to now is        1.8 secs

     total energy              =     -85.19312529 Ry
     Harris-Foulkes estimate   =     -85.19312827 Ry
     estimated scf accuracy    <       0.00444724 Ry

     iteration #  9     ecut=    50.00 Ry     beta= 0.70
     Davidson diagonalization with overlap
     ethr =  4.03E-05,  avg # of iterations =  1.0

     total cpu time spent up to now is        1.9 secs

     total energy              =     -85.19312538 Ry
     Harris-Foulkes estimate   =     -85.19312946 Ry
     estimated scf accuracy    <       0.00441621 Ry

     iteration # 10     ecut=    50.00 Ry     beta= 0.70
     Davidson diagonalization with overlap
     ethr =  4.01E-05,  avg # of iterations =  1.0

     total cpu time spent up to now is        2.0 secs

     total energy              =     -85.19312940 Ry
     Harris-Foulkes estimate   =     -85.19312821 Ry
     estimated scf accuracy    <       0.00435550 Ry

     iteration # 11     ecut=    50.00 Ry     beta= 0.70
     Davidson diagonalization with overlap
     ethr =  3.96E-05,  avg # of iterations =  1.0

     total cpu time spent up to now is        2.0 secs

     total energy              =     -85.19422373 Ry
     Harris-Foulkes estimate   =     -85.19313083 Ry
     estimated scf accuracy    <       0.00435583 Ry

     iteration # 12     ecut=    50.00 Ry     beta= 0.70
     Davidson diagonalization with overlap
     ethr =  3.96E-05,  avg # of iterations =  3.0

     total cpu time spent up to now is        2.1 secs

     total energy              =     -85.19207688 Ry
     Harris-Foulkes estimate   =     -85.19606203 Ry
     estimated scf accuracy    <       0.01016311 Ry

     iteration # 13     ecut=    50.00 Ry     beta= 0.70
     Davidson diagonalization with overlap
     ethr =  3.96E-05,  avg # of iterations =  2.4

     total cpu time spent up to now is        2.2 secs

     total energy              =     -85.19284457 Ry
     Harris-Foulkes estimate   =     -85.19291889 Ry
     estimated scf accuracy    <       0.00032159 Ry

     iteration # 14     ecut=    50.00 Ry     beta= 0.70
     Davidson diagonalization with overlap
     ethr =  2.92E-06,  avg # of iterations =  2.9

     total cpu time spent up to now is        2.3 secs

     total energy              =     -85.19308323 Ry
     Harris-Foulkes estimate   =     -85.19291276 Ry
     estimated scf accuracy    <       0.00012286 Ry

     iteration # 15     ecut=    50.00 Ry     beta= 0.70
     Davidson diagonalization with overlap
     ethr =  1.12E-06,  avg # of iterations =  2.9

     total cpu time spent up to now is        2.3 secs

     total energy              =     -85.19278451 Ry
     Harris-Foulkes estimate   =     -85.19313688 Ry
     estimated scf accuracy    <       0.00102506 Ry

     iteration # 16     ecut=    50.00 Ry     beta= 0.70
     Davidson diagonalization with overlap
     ethr =  1.12E-06,  avg # of iterations =  4.1

     total cpu time spent up to now is        2.5 secs

     total energy              =     -85.19399410 Ry
     Harris-Foulkes estimate   =     -85.19427677 Ry
     estimated scf accuracy    <       0.00903136 Ry

     iteration # 17     ecut=    50.00 Ry     beta= 0.70
     Davidson diagonalization with overlap
     ethr =  1.12E-06,  avg # of iterations =  1.1

     total cpu time spent up to now is        2.5 secs

     total energy              =     -85.19244723 Ry
     Harris-Foulkes estimate   =     -85.19400285 Ry
     estimated scf accuracy    <       0.00838548 Ry

     iteration # 18     ecut=    50.00 Ry     beta= 0.70
     Davidson diagonalization with overlap
     ethr =  1.12E-06,  avg # of iterations =  3.8

     total cpu time spent up to now is        2.7 secs

     total energy              =     -85.19307161 Ry
     Harris-Foulkes estimate   =     -85.19290786 Ry
     estimated scf accuracy    <       0.00046248 Ry

     iteration # 19     ecut=    50.00 Ry     beta= 0.70
     Davidson diagonalization with overlap
     ethr =  1.12E-06,  avg # of iterations =  2.8

     total cpu time spent up to now is        2.7 secs

     total energy              =     -85.19278242 Ry
     Harris-Foulkes estimate   =     -85.19312437 Ry
     estimated scf accuracy    <       0.00164006 Ry

     iteration # 20     ecut=    50.00 Ry     beta= 0.70
     Davidson diagonalization with overlap
     ethr =  1.12E-06,  avg # of iterations =  3.1

     total cpu time spent up to now is        2.8 secs

     total energy              =     -85.19287195 Ry
     Harris-Foulkes estimate   =     -85.19289711 Ry
     estimated scf accuracy    <       0.00008608 Ry

     iteration # 21     ecut=    50.00 Ry     beta= 0.70
     Davidson diagonalization with overlap
     ethr =  7.83E-07,  avg # of iterations =  1.8

     total cpu time spent up to now is        2.9 secs

     total energy              =     -85.19287616 Ry
     Harris-Foulkes estimate   =     -85.19287756 Ry
     estimated scf accuracy    <       0.00003168 Ry

     iteration # 22     ecut=    50.00 Ry     beta= 0.70
     Davidson diagonalization with overlap
     ethr =  2.88E-07,  avg # of iterations =  1.0

     total cpu time spent up to now is        3.0 secs

     total energy              =     -85.19287464 Ry
     Harris-Foulkes estimate   =     -85.19287724 Ry
     estimated scf accuracy    <       0.00001685 Ry

     iteration # 23     ecut=    50.00 Ry     beta= 0.70
     Davidson diagonalization with overlap
     ethr =  1.53E-07,  avg # of iterations =  2.8

     total cpu time spent up to now is        3.1 secs

     total energy              =     -85.19287696 Ry
     Harris-Foulkes estimate   =     -85.19287736 Ry
     estimated scf accuracy    <       0.00000332 Ry

     iteration # 24     ecut=    50.00 Ry     beta= 0.70
     Davidson diagonalization with overlap
     ethr =  3.02E-08,  avg # of iterations =  2.0

     total cpu time spent up to now is        3.1 secs

     total energy              =     -85.19287708 Ry
     Harris-Foulkes estimate   =     -85.19287718 Ry
     estimated scf accuracy    <       0.00000044 Ry

     iteration # 25     ecut=    50.00 Ry     beta= 0.70
     Davidson diagonalization with overlap
     ethr =  3.98E-09,  avg # of iterations =  2.9

     total cpu time spent up to now is        3.2 secs

     total energy              =     -85.19287716 Ry
     Harris-Foulkes estimate   =     -85.19287724 Ry
     estimated scf accuracy    <       0.00000077 Ry

     iteration # 26     ecut=    50.00 Ry     beta= 0.70
     Davidson diagonalization with overlap
     ethr =  3.98E-09,  avg # of iterations =  1.8

     total cpu time spent up to now is        3.3 secs

     total energy              =     -85.19287719 Ry
     Harris-Foulkes estimate   =     -85.19287719 Ry
     estimated scf accuracy    <       0.00000002 Ry

     iteration # 27     ecut=    50.00 Ry     beta= 0.70
     Davidson diagonalization with overlap
     ethr =  1.39E-10,  avg # of iterations =  3.1

     total cpu time spent up to now is        3.4 secs

     total energy              =     -85.19287720 Ry
     Harris-Foulkes estimate   =     -85.19287720 Ry
     estimated scf accuracy    <       0.00000003 Ry

     iteration # 28     ecut=    50.00 Ry     beta= 0.70
     Davidson diagonalization with overlap
     ethr =  1.39E-10,  avg # of iterations =  1.2

     total cpu time spent up to now is        3.4 secs

     total energy              =     -85.19287719 Ry
     Harris-Foulkes estimate   =     -85.19287720 Ry
     estimated scf accuracy    <       0.00000001 Ry

     iteration # 29     ecut=    50.00 Ry     beta= 0.70
     Davidson diagonalization with overlap
     ethr =  9.87E-11,  avg # of iterations =  1.1

     total cpu time spent up to now is        3.5 secs

     End of self-consistent calculation

          k = 0.0000 0.0000 0.0000 (   701 PWs)   bands (ev):

     5.8333  11.1233  11.1233  11.1233  12.6711  12.6711  31.1323  35.0051
    35.0051  35.0051

          k =-0.2500 0.2500-0.2500 (   679 PWs)   bands (ev):

     7.6475  10.9705  11.4097  11.4097  12.8387  12.8387  27.1081  32.0926
    35.9673  35.9673

          k = 0.5000-0.5000 0.5000 (   700 PWs)   bands (ev):

     8.4429  11.0887  11.0887  13.8858  13.8858  14.7567  18.9153  30.4207
    33.3566  33.3566

          k = 0.0000 0.5000 0.0000 (   681 PWs)   bands (ev):

     8.2750   9.9855  11.8159  12.3739  12.3739  13.2314  30.7784  30.7784
    31.9367  32.9006

          k = 0.7500-0.2500 0.7500 (   687 PWs)   bands (ev):

     9.3202  10.2445  11.4527  12.3275  13.9765  16.8399  21.2528  27.3247
    29.4288  32.9889

          k = 0.5000 0.0000 0.5000 (   676 PWs)   bands (ev):

     9.6577  10.5695  10.9127  12.0625  12.6572  15.5473  24.3748  26.1250
    32.7978  34.0864

          k = 0.0000-1.0000 0.0000 (   692 PWs)   bands (ev):

     8.6980   9.0338  13.8398  14.2154  14.2154  16.7627  21.5412  25.9665
    25.9665  32.7925

          k =-0.5000-1.0000 0.0000 (   700 PWs)   bands (ev):

     9.8203  10.6361  10.6361  12.5164  14.2174  20.5520  22.1378  22.1378
    25.1237  39.3363

     the Fermi energy is    16.6527 ev

!    total energy              =     -85.19287721 Ry
     Harris-Foulkes estimate   =     -85.19287720 Ry
     estimated scf accuracy    <          3.1E-09 Ry

     The total energy is the sum of the following terms:

     one-electron contribution =      11.03392255 Ry
     hartree contribution      =       7.53370322 Ry
     xc contribution           =     -31.80566122 Ry
     ewald contribution        =     -71.95438538 Ry
     smearing contrib. (-TS)   =      -0.00045638 Ry

     convergence has been achieved in  29 iterations

     Forces acting on atoms (cartesian axes, Ry/au):

     atom    1 type  1   force =     0.00000000    0.00000000    0.00000000

     Total force =     0.000000     Total SCF correction =     0.000000


     Computing stress (Cartesian axis) and pressure

          total   stress  (Ry/bohr**3)                   (kbar)     P=   37.18
   0.00025271  -0.00000000  -0.00000000         37.18     -0.00     -0.00
  -0.00000000   0.00025271   0.00000000         -0.00     37.18      0.00
  -0.00000000   0.00000000   0.00025271         -0.00      0.00     37.18


     Writing output data file Au.save/

     init_run     :      0.21s CPU      0.21s WALL (       1 calls)
     electrons    :      2.33s CPU      2.44s WALL (       1 calls)
     forces       :      0.02s CPU      0.02s WALL (       1 calls)
     stress       :      0.07s CPU      0.07s WALL (       1 calls)

     Called by init_run:
     wfcinit      :      0.02s CPU      0.02s WALL (       1 calls)
     potinit      :      0.01s CPU      0.01s WALL (       1 calls)
     hinit0       :      0.16s CPU      0.16s WALL (       1 calls)

     Called by electrons:
     c_bands      :      1.61s CPU      1.70s WALL (      30 calls)
     sum_band     :      0.44s CPU      0.46s WALL (      30 calls)
     v_of_rho     :      0.10s CPU      0.10s WALL (      30 calls)
     newd         :      0.16s CPU      0.16s WALL (      30 calls)
     mix_rho      :      0.02s CPU      0.02s WALL (      30 calls)

     Called by c_bands:
     init_us_2    :      0.05s CPU      0.05s WALL (     504 calls)
     cegterg      :      1.54s CPU      1.62s WALL (     240 calls)

     Called by sum_band:
     sum_band:bec :      0.00s CPU      0.00s WALL (     240 calls)
     addusdens    :      0.16s CPU      0.16s WALL (      30 calls)

     Called by *egterg:
     h_psi        :      1.12s CPU      1.19s WALL (     854 calls)
     s_psi        :      0.04s CPU      0.04s WALL (     854 calls)
     g_psi        :      0.00s CPU      0.00s WALL (     606 calls)
     cdiaghg      :      0.18s CPU      0.19s WALL (     838 calls)

     Called by h_psi:
     h_psi:pot    :      1.12s CPU      1.18s WALL (     854 calls)
     h_psi:calbec :      0.06s CPU      0.06s WALL (     854 calls)
     vloc_psi     :      1.02s CPU      1.08s WALL (     854 calls)
     add_vuspsi   :      0.04s CPU      0.04s WALL (     854 calls)

     General routines
     calbec       :      0.08s CPU      0.08s WALL (    1134 calls)
     fft          :      0.06s CPU      0.06s WALL (     357 calls)
     ffts         :      0.00s CPU      0.00s WALL (      30 calls)
     fftw         :      1.14s CPU      1.21s WALL (   14938 calls)

     Parallel routines
     fft_scatt_xy :      0.10s CPU      0.10s WALL (   15325 calls)
     fft_scatt_yz :      0.33s CPU      0.35s WALL (   15325 calls)

     PWSCF        :     3.46s CPU         3.62s WALL


   This run was terminated on:  11:42:43  26Mar2024            

=------------------------------------------------------------------------------=
   JOB DONE.
=------------------------------------------------------------------------------=
