
     Program PWSCF v.6.3MaX starts on 26Mar2024 at 11: 8:36 

     This program is part of the open-source Quantum ESPRESSO suite
     for quantum simulation of materials; please cite
         "P. Giannozzi et al., J. Phys.:Condens. Matter 21 395502 (2009);
         "P. Giannozzi et al., J. Phys.:Condens. Matter 29 465901 (2017);
          URL http://www.quantum-espresso.org", 
     in publications or presentations arising from this work. More details at
     http://www.quantum-espresso.org/quote

     Parallel version (MPI), running on     5 processors

     MPI processes distributed on     1 nodes
     R & G space division:  proc/nbgrp/npool/nimage =       5
     Waiting for input...
     Reading input from standard input

     Current dimensions of program PWSCF are:
     Max number of different atomic species (ntypx) = 10
     Max number of k-points (npk) =  40000
     Max angular momentum in pseudopotentials (lmaxx) =  3
               file Au.pbesol-n-kjpaw_psl.1.0.0.UPF: wavefunction(s)  6S 5D renormalized

     Subspace diagonalization in iterative solution of the eigenvalue problem:
     a serial algorithm will be used


     Parallelization info
     --------------------
     sticks:   dense  smooth     PW     G-vecs:    dense   smooth      PW
     Min         164     164     48                 3094     3094     484
     Max         165     165     49                 3095     3095     485
     Sum         823     823    241                15473    15473    2421



     bravais-lattice index     =            2
     lattice parameter (alat)  =       7.7100  a.u.
     unit-cell volume          =     114.5785 (a.u.)^3
     number of atoms/cell      =            1
     number of atomic types    =            1
     number of electrons       =        11.00
     number of Kohn-Sham states=           10
     kinetic-energy cutoff     =     100.0000  Ry
     charge density cutoff     =     400.0000  Ry
     convergence threshold     =      1.0E-08
     mixing beta               =       0.7000
     number of iterations used =            8  plain     mixing
     Exchange-correlation      = SLA PW PSX PSC ( 1  4 10  8 0 0)

     celldm(1)=   7.710000  celldm(2)=   0.000000  celldm(3)=   0.000000
     celldm(4)=   0.000000  celldm(5)=   0.000000  celldm(6)=   0.000000

     crystal axes: (cart. coord. in units of alat)
               a(1) = (  -0.500000   0.000000   0.500000 )  
               a(2) = (   0.000000   0.500000   0.500000 )  
               a(3) = (  -0.500000   0.500000   0.000000 )  

     reciprocal axes: (cart. coord. in units 2 pi/alat)
               b(1) = ( -1.000000 -1.000000  1.000000 )  
               b(2) = (  1.000000  1.000000  1.000000 )  
               b(3) = ( -1.000000  1.000000 -1.000000 )  


     PseudoPot. # 1 for Au read from file:
     /home/lorenzo/pseudos/Au/Au.pbesol-n-kjpaw_psl.1.0.0.UPF
     MD5 check sum: abc371be705c47a6b6a6b4088b452d3e
     Pseudo is Projector augmented-wave + core cor, Zval = 11.0
     Generated using "atomic" code by A. Dal Corso v.6.3
     Shape of augmentation charge: PSQ
     Using radial grid of 1279 points,  6 beta functions with: 
                l(1) =   0
                l(2) =   0
                l(3) =   1
                l(4) =   1
                l(5) =   2
                l(6) =   2
     Q(r) pseudized with 0 coefficients 


     atomic species   valence    mass     pseudopotential
        Au            11.00   196.96600     Au( 1.00)

     48 Sym. Ops., with inversion, found



   Cartesian axes

     site n.     atom                  positions (alat units)
         1           Au  tau(   1) = (   0.0000000   0.0000000   0.0000000  )

     number of k points=     4  gaussian smearing, width (Ry)=  0.0100
                       cart. coord. in units 2pi/alat
        k(    1) = (   0.0000000   0.0000000   0.0000000), wk =   0.0740741
        k(    2) = (  -0.3333333   0.3333333  -0.3333333), wk =   0.5925926
        k(    3) = (   0.0000000   0.6666667   0.0000000), wk =   0.4444444
        k(    4) = (   0.6666667  -0.0000000   0.6666667), wk =   0.8888889

     Dense  grid:    15473 G-vectors     FFT dimensions: (  36,  36,  36)

     Estimated max dynamical RAM per process >      13.86 MB

     Estimated total dynamical RAM >      69.31 MB

     Initial potential from superposition of free atoms

     starting charge   10.99990, renormalised to   11.00000
     Starting wfcs are    9 randomized atomic wfcs +    1 random wfcs
     Checking if some PAW data can be deallocated... 

     total cpu time spent up to now is        1.4 secs

     Self-consistent Calculation

     iteration #  1     ecut=   100.00 Ry     beta= 0.70
     Davidson diagonalization with overlap
     ethr =  1.00E-02,  avg # of iterations =  6.8

     Threshold (ethr) on eigenvalues was too large:
     Diagonalizing with lowered threshold

     Davidson diagonalization with overlap
     ethr =  6.06E-04,  avg # of iterations =  1.5

     total cpu time spent up to now is        1.7 secs

     total energy              =    -764.68731865 Ry
     Harris-Foulkes estimate   =    -764.73425168 Ry
     estimated scf accuracy    <       0.06623458 Ry

     iteration #  2     ecut=   100.00 Ry     beta= 0.70
     Davidson diagonalization with overlap
     ethr =  6.02E-04,  avg # of iterations =  2.8

     total cpu time spent up to now is        2.0 secs

     total energy              =    -764.70764317 Ry
     Harris-Foulkes estimate   =    -764.71821596 Ry
     estimated scf accuracy    <       0.01716515 Ry

     iteration #  3     ecut=   100.00 Ry     beta= 0.70
     Davidson diagonalization with overlap
     ethr =  1.56E-04,  avg # of iterations =  2.0

     total cpu time spent up to now is        2.2 secs

     total energy              =    -764.71148864 Ry
     Harris-Foulkes estimate   =    -764.71153043 Ry
     estimated scf accuracy    <       0.00026012 Ry

     iteration #  4     ecut=   100.00 Ry     beta= 0.70
     Davidson diagonalization with overlap
     ethr =  2.36E-06,  avg # of iterations =  3.5

     total cpu time spent up to now is        2.4 secs

     total energy              =    -764.71172235 Ry
     Harris-Foulkes estimate   =    -764.71177003 Ry
     estimated scf accuracy    <       0.00011734 Ry

     iteration #  5     ecut=   100.00 Ry     beta= 0.70
     Davidson diagonalization with overlap
     ethr =  1.07E-06,  avg # of iterations =  1.0

     total cpu time spent up to now is        2.6 secs

     total energy              =    -764.71171872 Ry
     Harris-Foulkes estimate   =    -764.71173017 Ry
     estimated scf accuracy    <       0.00002561 Ry

     iteration #  6     ecut=   100.00 Ry     beta= 0.70
     Davidson diagonalization with overlap
     ethr =  2.33E-07,  avg # of iterations =  2.0

     total cpu time spent up to now is        2.9 secs

     total energy              =    -764.71172515 Ry
     Harris-Foulkes estimate   =    -764.71172517 Ry
     estimated scf accuracy    <       0.00000032 Ry

     iteration #  7     ecut=   100.00 Ry     beta= 0.70
     Davidson diagonalization with overlap
     ethr =  2.95E-09,  avg # of iterations =  3.2

     total cpu time spent up to now is        3.1 secs

     total energy              =    -764.71172532 Ry
     Harris-Foulkes estimate   =    -764.71172532 Ry
     estimated scf accuracy    <       0.00000006 Ry

     iteration #  8     ecut=   100.00 Ry     beta= 0.70
     Davidson diagonalization with overlap
     ethr =  5.02E-10,  avg # of iterations =  1.5

     total cpu time spent up to now is        3.3 secs

     total energy              =    -764.71172532 Ry
     Harris-Foulkes estimate   =    -764.71172532 Ry
     estimated scf accuracy    <       0.00000001 Ry

     iteration #  9     ecut=   100.00 Ry     beta= 0.70
     Davidson diagonalization with overlap
     ethr =  1.26E-10,  avg # of iterations =  1.2

     total cpu time spent up to now is        3.5 secs

     End of self-consistent calculation

          k = 0.0000 0.0000 0.0000 (  1917 PWs)   bands (ev):

     5.8067  11.0232  11.0232  11.0232  12.5438  12.5438  31.1467  34.9743
    34.9743  34.9743

          k =-0.3333 0.3333-0.3333 (  1922 PWs)   bands (ev):

     8.2182  11.1737  11.1737  11.7423  13.1656  13.1656  23.6360  31.3063
    34.8551  34.8551

          k = 0.0000 0.6667 0.0000 (  1948 PWs)   bands (ev):

     8.8339   9.4047  12.6978  13.0651  13.0651  13.3979  27.9420  28.3235
    28.3235  32.4163

          k = 0.6667-0.0000 0.6667 (  1935 PWs)   bands (ev):

     9.5409  10.3473  11.2214  12.4336  13.3166  18.1884  22.1781  22.9086
    30.1881  33.0564

     the Fermi energy is    13.4881 ev

!    total energy              =    -764.71172532 Ry
     Harris-Foulkes estimate   =    -764.71172532 Ry
     estimated scf accuracy    <          5.9E-09 Ry

     total all-electron energy =    -38013.546188 Ry

     The total energy is the sum of the following terms:

     one-electron contribution =      13.85938389 Ry
     hartree contribution      =       7.53392405 Ry
     xc contribution           =     -31.80731247 Ry
     ewald contribution        =     -71.95438534 Ry
     one-center paw contrib.   =    -682.34200307 Ry
     smearing contrib. (-TS)   =      -0.00133237 Ry

     convergence has been achieved in   9 iterations

     Forces acting on atoms (cartesian axes, Ry/au):

     atom    1 type  1   force =     0.00000000    0.00000000    0.00000000

     Total force =     0.000000     Total SCF correction =     0.000000


     Computing stress (Cartesian axis) and pressure

          total   stress  (Ry/bohr**3)                   (kbar)     P=  -46.51
  -0.00031616   0.00000000   0.00000000        -46.51      0.00      0.00
   0.00000000  -0.00031616  -0.00000000          0.00    -46.51     -0.00
   0.00000000  -0.00000000  -0.00031616          0.00     -0.00    -46.51


     Writing output data file Au.save/

     init_run     :      0.39s CPU      0.41s WALL (       1 calls)
     electrons    :      2.02s CPU      2.08s WALL (       1 calls)
     forces       :      0.05s CPU      0.05s WALL (       1 calls)
     stress       :      0.17s CPU      0.17s WALL (       1 calls)

     Called by init_run:
     wfcinit      :      0.02s CPU      0.02s WALL (       1 calls)
     potinit      :      0.10s CPU      0.12s WALL (       1 calls)
     hinit0       :      0.23s CPU      0.23s WALL (       1 calls)

     Called by electrons:
     c_bands      :      0.61s CPU      0.64s WALL (      10 calls)
     sum_band     :      0.27s CPU      0.28s WALL (      10 calls)
     v_of_rho     :      0.09s CPU      0.09s WALL (      10 calls)
     newd         :      0.15s CPU      0.16s WALL (      10 calls)
     PAW_pot      :      0.97s CPU      1.02s WALL (      10 calls)
     mix_rho      :      0.01s CPU      0.01s WALL (      10 calls)

     Called by c_bands:
     init_us_2    :      0.02s CPU      0.02s WALL (      92 calls)
     cegterg      :      0.59s CPU      0.61s WALL (      40 calls)

     Called by sum_band:
     sum_band:bec :      0.00s CPU      0.00s WALL (      40 calls)
     addusdens    :      0.14s CPU      0.14s WALL (      10 calls)

     Called by *egterg:
     h_psi        :      0.47s CPU      0.50s WALL (     146 calls)
     s_psi        :      0.01s CPU      0.02s WALL (     146 calls)
     g_psi        :      0.00s CPU      0.00s WALL (     102 calls)
     cdiaghg      :      0.03s CPU      0.03s WALL (     138 calls)

     Called by h_psi:
     h_psi:pot    :      0.47s CPU      0.49s WALL (     146 calls)
     h_psi:calbec :      0.02s CPU      0.02s WALL (     146 calls)
     vloc_psi     :      0.43s CPU      0.45s WALL (     146 calls)
     add_vuspsi   :      0.02s CPU      0.02s WALL (     146 calls)

     General routines
     calbec       :      0.03s CPU      0.04s WALL (     206 calls)
     fft          :      0.06s CPU      0.06s WALL (     137 calls)
     ffts         :      0.00s CPU      0.00s WALL (      10 calls)
     fftw         :      0.48s CPU      0.50s WALL (    2532 calls)

     Parallel routines
     fft_scatt_xy :      0.04s CPU      0.04s WALL (    2679 calls)
     fft_scatt_yz :      0.12s CPU      0.13s WALL (    2679 calls)

     PWSCF        :     3.62s CPU         3.75s WALL


   This run was terminated on:  11: 8:40  26Mar2024            

=------------------------------------------------------------------------------=
   JOB DONE.
=------------------------------------------------------------------------------=
