
     Program PWSCF v.6.3MaX starts on 26Mar2024 at 11:23:24 

     This program is part of the open-source Quantum ESPRESSO suite
     for quantum simulation of materials; please cite
         "P. Giannozzi et al., J. Phys.:Condens. Matter 21 395502 (2009);
         "P. Giannozzi et al., J. Phys.:Condens. Matter 29 465901 (2017);
          URL http://www.quantum-espresso.org", 
     in publications or presentations arising from this work. More details at
     http://www.quantum-espresso.org/quote

     Parallel version (MPI), running on     5 processors

     MPI processes distributed on     1 nodes
     R & G space division:  proc/nbgrp/npool/nimage =       5
     Waiting for input...
     Reading input from standard input

     Current dimensions of program PWSCF are:
     Max number of different atomic species (ntypx) = 10
     Max number of k-points (npk) =  40000
     Max angular momentum in pseudopotentials (lmaxx) =  3

     Subspace diagonalization in iterative solution of the eigenvalue problem:
     a serial algorithm will be used


     Parallelization info
     --------------------
     sticks:   dense  smooth     PW     G-vecs:    dense   smooth      PW
     Min          50      50     17                  527      527     107
     Max          51      51     17                  528      528     108
     Sum         253     253     85                 2637     2637     537



     bravais-lattice index     =            2
     lattice parameter (alat)  =       7.7100  a.u.
     unit-cell volume          =     114.5785 (a.u.)^3
     number of atoms/cell      =            1
     number of atomic types    =            1
     number of electrons       =        11.00
     number of Kohn-Sham states=           10
     kinetic-energy cutoff     =      30.0000  Ry
     charge density cutoff     =     120.0000  Ry
     convergence threshold     =      1.0E-08
     mixing beta               =       0.7000
     number of iterations used =            8  plain     mixing
     Exchange-correlation      = PBE ( 1  4  3  4 0 0)

     celldm(1)=   7.710000  celldm(2)=   0.000000  celldm(3)=   0.000000
     celldm(4)=   0.000000  celldm(5)=   0.000000  celldm(6)=   0.000000

     crystal axes: (cart. coord. in units of alat)
               a(1) = (  -0.500000   0.000000   0.500000 )  
               a(2) = (   0.000000   0.500000   0.500000 )  
               a(3) = (  -0.500000   0.500000   0.000000 )  

     reciprocal axes: (cart. coord. in units 2 pi/alat)
               b(1) = ( -1.000000 -1.000000  1.000000 )  
               b(2) = (  1.000000  1.000000  1.000000 )  
               b(3) = ( -1.000000  1.000000 -1.000000 )  


     PseudoPot. # 1 for Au read from file:
     /home/lorenzo/pseudos/Au/Au.pbe-n-rrkjus_psl.1.0.0.UPF
     MD5 check sum: d7e77ba19504afed2c9b41c931dde4f0
     Pseudo is Ultrasoft + core correction, Zval = 11.0
     Generated using "atomic" code by A. Dal Corso v.6.3
     Using radial grid of 1279 points,  6 beta functions with: 
                l(1) =   0
                l(2) =   0
                l(3) =   1
                l(4) =   1
                l(5) =   2
                l(6) =   2
     Q(r) pseudized with 0 coefficients 


     atomic species   valence    mass     pseudopotential
        Au            11.00   196.96600     Au( 1.00)

     48 Sym. Ops., with inversion, found



   Cartesian axes

     site n.     atom                  positions (alat units)
         1           Au  tau(   1) = (   0.0000000   0.0000000   0.0000000  )

     number of k points=    47  gaussian smearing, width (Ry)=  0.0100
                       cart. coord. in units 2pi/alat
        k(    1) = (   0.0000000   0.0000000   0.0000000), wk =   0.0020000
        k(    2) = (  -0.1000000   0.1000000  -0.1000000), wk =   0.0160000
        k(    3) = (  -0.2000000   0.2000000  -0.2000000), wk =   0.0160000
        k(    4) = (  -0.3000000   0.3000000  -0.3000000), wk =   0.0160000
        k(    5) = (  -0.4000000   0.4000000  -0.4000000), wk =   0.0160000
        k(    6) = (   0.5000000  -0.5000000   0.5000000), wk =   0.0080000
        k(    7) = (   0.0000000   0.2000000   0.0000000), wk =   0.0120000
        k(    8) = (  -0.1000000   0.3000000  -0.1000000), wk =   0.0480000
        k(    9) = (  -0.2000000   0.4000000  -0.2000000), wk =   0.0480000
        k(   10) = (  -0.3000000   0.5000000  -0.3000000), wk =   0.0480000
        k(   11) = (   0.6000000  -0.4000000   0.6000000), wk =   0.0480000
        k(   12) = (   0.5000000  -0.3000000   0.5000000), wk =   0.0480000
        k(   13) = (   0.4000000  -0.2000000   0.4000000), wk =   0.0480000
        k(   14) = (   0.3000000  -0.1000000   0.3000000), wk =   0.0480000
        k(   15) = (   0.2000000   0.0000000   0.2000000), wk =   0.0240000
        k(   16) = (   0.0000000   0.4000000   0.0000000), wk =   0.0120000
        k(   17) = (  -0.1000000   0.5000000  -0.1000000), wk =   0.0480000
        k(   18) = (  -0.2000000   0.6000000  -0.2000000), wk =   0.0480000
        k(   19) = (   0.7000000  -0.3000000   0.7000000), wk =   0.0480000
        k(   20) = (   0.6000000  -0.2000000   0.6000000), wk =   0.0480000
        k(   21) = (   0.5000000  -0.1000000   0.5000000), wk =   0.0480000
        k(   22) = (   0.4000000   0.0000000   0.4000000), wk =   0.0240000
        k(   23) = (   0.0000000   0.6000000   0.0000000), wk =   0.0120000
        k(   24) = (  -0.1000000   0.7000000  -0.1000000), wk =   0.0480000
        k(   25) = (   0.8000000  -0.2000000   0.8000000), wk =   0.0480000
        k(   26) = (   0.7000000  -0.1000000   0.7000000), wk =   0.0480000
        k(   27) = (   0.6000000  -0.0000000   0.6000000), wk =   0.0240000
        k(   28) = (   0.0000000   0.8000000   0.0000000), wk =   0.0120000
        k(   29) = (   0.9000000  -0.1000000   0.9000000), wk =   0.0480000
        k(   30) = (   0.8000000   0.0000000   0.8000000), wk =   0.0240000
        k(   31) = (   0.0000000  -1.0000000   0.0000000), wk =   0.0060000
        k(   32) = (  -0.2000000   0.4000000   0.0000000), wk =   0.0480000
        k(   33) = (  -0.3000000   0.5000000  -0.1000000), wk =   0.0960000
        k(   34) = (   0.6000000  -0.4000000   0.8000000), wk =   0.0960000
        k(   35) = (   0.5000000  -0.3000000   0.7000000), wk =   0.0480000
        k(   36) = (  -0.2000000   0.6000000   0.0000000), wk =   0.0480000
        k(   37) = (   0.7000000  -0.3000000   0.9000000), wk =   0.0960000
        k(   38) = (   0.6000000  -0.2000000   0.8000000), wk =   0.0960000
        k(   39) = (   0.5000000  -0.1000000   0.7000000), wk =   0.0960000
        k(   40) = (   0.4000000   0.0000000   0.6000000), wk =   0.0480000
        k(   41) = (   0.8000000  -0.2000000   1.0000000), wk =   0.0480000
        k(   42) = (   0.7000000  -0.1000000   0.9000000), wk =   0.0960000
        k(   43) = (   0.6000000   0.0000000   0.8000000), wk =   0.0480000
        k(   44) = (  -0.2000000  -1.0000000   0.0000000), wk =   0.0240000
        k(   45) = (   0.6000000  -0.2000000   1.0000000), wk =   0.0480000
        k(   46) = (   0.5000000  -0.1000000   0.9000000), wk =   0.0480000
        k(   47) = (  -0.4000000  -1.0000000   0.0000000), wk =   0.0240000

     Dense  grid:     2637 G-vectors     FFT dimensions: (  20,  20,  20)

     Estimated max dynamical RAM per process >       3.51 MB

     Estimated total dynamical RAM >      17.54 MB

     Initial potential from superposition of free atoms

     starting charge   10.99989, renormalised to   11.00000
     Starting wfcs are    9 randomized atomic wfcs +    1 random wfcs

     total cpu time spent up to now is        1.1 secs

     Self-consistent Calculation

     iteration #  1     ecut=    30.00 Ry     beta= 0.70
     Davidson diagonalization with overlap
     ethr =  1.00E-02,  avg # of iterations =  5.2

     Threshold (ethr) on eigenvalues was too large:
     Diagonalizing with lowered threshold

     Davidson diagonalization with overlap
     ethr =  4.71E-04,  avg # of iterations =  1.6

     total cpu time spent up to now is        1.9 secs

     total energy              =     -85.36611751 Ry
     Harris-Foulkes estimate   =     -85.39829934 Ry
     estimated scf accuracy    <       0.05163766 Ry

     iteration #  2     ecut=    30.00 Ry     beta= 0.70
     Davidson diagonalization with overlap
     ethr =  4.69E-04,  avg # of iterations =  2.4

     total cpu time spent up to now is        2.2 secs

     total energy              =     -85.37958066 Ry
     Harris-Foulkes estimate   =     -85.38653896 Ry
     estimated scf accuracy    <       0.01113036 Ry

     iteration #  3     ecut=    30.00 Ry     beta= 0.70
     Davidson diagonalization with overlap
     ethr =  1.01E-04,  avg # of iterations =  2.1

     total cpu time spent up to now is        2.4 secs

     total energy              =     -85.38224653 Ry
     Harris-Foulkes estimate   =     -85.38229955 Ry
     estimated scf accuracy    <       0.00018229 Ry

     iteration #  4     ecut=    30.00 Ry     beta= 0.70
     Davidson diagonalization with overlap
     ethr =  1.66E-06,  avg # of iterations =  3.9

     total cpu time spent up to now is        2.7 secs

     total energy              =     -85.38236864 Ry
     Harris-Foulkes estimate   =     -85.38241533 Ry
     estimated scf accuracy    <       0.00008755 Ry

     iteration #  5     ecut=    30.00 Ry     beta= 0.70
     Davidson diagonalization with overlap
     ethr =  7.96E-07,  avg # of iterations =  1.1

     total cpu time spent up to now is        2.9 secs

     total energy              =     -85.38237627 Ry
     Harris-Foulkes estimate   =     -85.38237881 Ry
     estimated scf accuracy    <       0.00000432 Ry

     iteration #  6     ecut=    30.00 Ry     beta= 0.70
     Davidson diagonalization with overlap
     ethr =  3.93E-08,  avg # of iterations =  3.1

     total cpu time spent up to now is        3.2 secs

     total energy              =     -85.38237983 Ry
     Harris-Foulkes estimate   =     -85.38238012 Ry
     estimated scf accuracy    <       0.00000075 Ry

     iteration #  7     ecut=    30.00 Ry     beta= 0.70
     Davidson diagonalization with overlap
     ethr =  6.84E-09,  avg # of iterations =  1.0

     total cpu time spent up to now is        3.4 secs

     total energy              =     -85.38237981 Ry
     Harris-Foulkes estimate   =     -85.38237988 Ry
     estimated scf accuracy    <       0.00000011 Ry

     iteration #  8     ecut=    30.00 Ry     beta= 0.70
     Davidson diagonalization with overlap
     ethr =  1.02E-09,  avg # of iterations =  3.0

     total cpu time spent up to now is        3.6 secs

     total energy              =     -85.38237986 Ry
     Harris-Foulkes estimate   =     -85.38237987 Ry
     estimated scf accuracy    <       0.00000002 Ry

     iteration #  9     ecut=    30.00 Ry     beta= 0.70
     Davidson diagonalization with overlap
     ethr =  2.11E-10,  avg # of iterations =  1.4

     total cpu time spent up to now is        3.8 secs

     End of self-consistent calculation

          k = 0.0000 0.0000 0.0000 (   331 PWs)   bands (ev):

     6.0984  11.3308  11.3308  11.3308  12.8596  12.8596  31.3933  35.2621
    35.2621  35.2621

          k =-0.1000 0.1000-0.1000 (   319 PWs)   bands (ev):

     6.4438  11.2262  11.4459  11.4459  12.8144  12.8144  31.6974  33.1736
    35.5963  35.5963

          k =-0.2000 0.2000-0.2000 (   320 PWs)   bands (ev):

     7.3686  11.0890  11.6193  11.6193  12.8598  12.8598  29.2935  32.4907
    36.2255  36.2255

          k =-0.3000 0.3000-0.3000 (   314 PWs)   bands (ev):

     8.3364  11.5451  11.5451  11.5805  13.2896  13.2896  25.2976  31.9014
    35.6788  35.6788

          k =-0.4000 0.4000-0.4000 (   320 PWs)   bands (ev):

     8.6565  11.3687  11.3687  13.3721  13.8339  13.8339  21.4233  31.0218
    34.2468  34.2468

          k = 0.5000-0.5000 0.5000 (   332 PWs)   bands (ev):

     8.6741  11.2906  11.2906  14.0744  14.0744  15.0291  19.1231  30.6827
    33.6286  33.6286

          k = 0.0000 0.2000 0.0000 (   327 PWs)   bands (ev):

     6.5605  11.0960  11.5427  11.5427  12.6110  12.9631  31.9009  33.8993
    34.6839  34.6839

          k =-0.1000 0.3000-0.1000 (   317 PWs)   bands (ev):

     7.3079  10.8704  11.7374  11.7723  12.4923  13.0893  30.7706  32.6114
    34.1154  35.6800

          k =-0.2000 0.4000-0.2000 (   318 PWs)   bands (ev):

     8.3507  10.9168  11.5574  11.8072  13.0655  13.4508  26.8214  32.3562
    33.4526  35.6052

          k =-0.3000 0.5000-0.3000 (   317 PWs)   bands (ev):

     8.8749  11.2732  11.6464  11.8570  13.9210  14.2724  22.7859  31.4358
    32.7865  33.9390

          k = 0.6000-0.4000 0.6000 (   320 PWs)   bands (ev):

     8.9277  11.1336  11.5072  12.8742  14.0907  16.0820  19.4862  30.8132
    32.5458  32.7869

          k = 0.5000-0.3000 0.5000 (   321 PWs)   bands (ev):

     8.9369  11.1865  11.5044  12.7915  13.7723  15.5677  20.4514  30.6937
    32.1813  33.9304

          k = 0.4000-0.2000 0.4000 (   316 PWs)   bands (ev):

     8.8066  11.3313  11.6524  11.6549  13.1288  14.2817  24.1324  31.0460
    32.9724  36.1954

          k = 0.3000-0.1000 0.3000 (   316 PWs)   bands (ev):

     8.0207  10.9069  11.6441  11.8140  12.5558  13.4698  28.1368  31.5994
    34.4939  36.5233

          k = 0.2000 0.0000 0.2000 (   317 PWs)   bands (ev):

     6.9939  11.0339  11.6185  11.6304  12.5743  13.0039  31.5543  31.9037
    34.5342  37.0766

          k = 0.0000 0.4000 0.0000 (   311 PWs)   bands (ev):

     7.8138  10.5262  12.0999  12.1522  12.1522  13.2416  32.4812  32.4812
    32.7073  33.1603

          k =-0.1000 0.5000-0.1000 (   316 PWs)   bands (ev):

     8.6868  10.2883  11.6892  12.3898  13.0245  13.5401  28.6276  31.2699
    32.4386  33.6748

          k =-0.2000 0.6000-0.2000 (   316 PWs)   bands (ev):

     9.3194  10.5315  11.3757  12.2938  13.9895  14.5876  24.4362  30.6096
    30.6250  33.2247

          k = 0.7000-0.3000 0.7000 (   319 PWs)   bands (ev):

     9.4487  10.7915  11.6834  12.1132  14.1351  16.8874  20.6823  29.0066
    30.8318  32.6867

          k = 0.6000-0.2000 0.6000 (   315 PWs)   bands (ev):

     9.5590  10.8211  11.9311  12.0122  13.7754  17.6137  20.0098  27.8783
    32.1555  32.4690

          k = 0.5000-0.1000 0.5000 (   317 PWs)   bands (ev):

     9.6392  10.9661  11.3382  12.0564  13.0803  15.7456  23.4553  27.5960
    32.8316  34.4256

          k = 0.4000 0.0000 0.4000 (   323 PWs)   bands (ev):

     9.0710  10.6976  11.4288  12.2202  12.3807  14.4649  26.6833  28.6518
    33.8093  36.6300

          k = 0.0000 0.6000 0.0000 (   315 PWs)   bands (ev):

     9.0221   9.8900  12.4027  13.0536  13.0536  13.6013  29.5429  29.5429
    30.0619  32.6348

          k =-0.1000 0.7000-0.1000 (   319 PWs)   bands (ev):

     9.2894   9.7514  12.4369  13.1610  14.0008  14.6054  25.9302  28.2516
    28.5611  33.5522

          k = 0.8000-0.2000 0.8000 (   317 PWs)   bands (ev):

     9.4603  10.0401  12.1422  12.9679  14.1983  17.1568  22.2855  26.4202
    28.6488  33.6931

          k = 0.7000-0.1000 0.7000 (   317 PWs)   bands (ev):

     9.7122  10.5004  11.7400  12.7463  13.8763  19.2589  20.4104  24.7624
    29.9097  33.4046

          k = 0.6000-0.0000 0.6000 (   319 PWs)   bands (ev):

    10.0334  10.8973  11.1370  12.4894  13.3361  17.3339  23.4678  23.9983
    32.0304  33.0983

          k = 0.0000 0.8000 0.0000 (   322 PWs)   bands (ev):

     9.0629   9.4201  13.9068  13.9759  13.9759  14.7827  24.8955  27.1721
    27.1721  33.0063

          k = 0.9000-0.1000 0.9000 (   318 PWs)   bands (ev):

     9.1110   9.4316  13.5579  13.7568  14.2887  17.1491  22.5284  25.6436
    26.9170  33.8969

          k = 0.8000 0.0000 0.8000 (   318 PWs)   bands (ev):

     9.3723   9.8540  12.6636  13.4066  14.1092  19.7168  20.6751  23.9425
    27.9535  34.0544

          k = 0.0000-1.0000 0.0000 (   326 PWs)   bands (ev):

     8.9279   9.2493  14.0273  14.4017  14.4017  17.0371  21.8289  26.2377
    26.2377  33.2779

          k =-0.2000 0.4000 0.0000 (   316 PWs)   bands (ev):

     8.1682  10.6124  11.6441  12.1574  12.4683  13.5089  29.3308  30.8195
    34.3735  34.7570

          k =-0.3000 0.5000-0.1000 (   318 PWs)   bands (ev):

     9.1274  10.6954  11.2821  12.1754  13.0450  14.4101  25.7390  29.7375
    32.5150  35.4451

          k = 0.6000-0.4000 0.8000 (   318 PWs)   bands (ev):

     9.3864  10.9669  11.5585  12.0205  13.7462  15.8788  21.8862  29.4700
    31.0723  34.1981

          k = 0.5000-0.3000 0.7000 (   312 PWs)   bands (ev):

     9.3813  10.8462  11.8783  12.1631  13.9709  17.8007  19.0873  29.7897
    30.1616  33.5713

          k =-0.2000 0.6000 0.0000 (   317 PWs)   bands (ev):

     9.3610  10.0722  11.5370  13.0457  13.1313  14.4068  26.9966  28.4894
    30.5787  35.5782

          k = 0.7000-0.3000 0.9000 (   322 PWs)   bands (ev):

     9.7163  10.3077  11.3268  12.8502  13.8278  16.1200  23.5492  27.5039
    28.9661  35.0430

          k = 0.6000-0.2000 0.8000 (   319 PWs)   bands (ev):

     9.8597  10.5287  11.4404  12.5616  13.9921  18.6368  20.2450  26.7475
    28.6630  34.7248

          k = 0.5000-0.1000 0.7000 (   321 PWs)   bands (ev):

    10.0985  10.5739  11.2269  12.4999  13.6707  17.6404  21.7843  25.8367
    29.7985  35.0193

          k = 0.4000 0.0000 0.6000 (   318 PWs)   bands (ev):

    10.0645  10.5633  10.8694  12.6251  13.0762  15.8253  24.6778  26.3498
    31.2266  36.0633

          k = 0.8000-0.2000 1.0000 (   320 PWs)   bands (ev):

     9.3849   9.6613  12.4901  13.6759  13.9712  16.3462  24.0883  26.3636
    27.0861  35.0299

          k = 0.7000-0.1000 0.9000 (   317 PWs)   bands (ev):

     9.5892   9.9778  12.1017  13.2376  14.2120  18.9009  21.6750  24.6403
    26.9597  35.5227

          k = 0.6000 0.0000 0.8000 (   313 PWs)   bands (ev):

     9.9178  10.4780  11.4636  12.8231  13.9728  19.3581  21.9820  23.1888
    28.2041  35.3593

          k =-0.2000-1.0000 0.0000 (   320 PWs)   bands (ev):

     9.2300   9.5106  13.1701  13.6647  14.4024  18.5851  21.4354  25.4913
    25.8858  35.1742

          k = 0.6000-0.2000 1.0000 (   317 PWs)   bands (ev):

    10.1178  10.3678  11.0689  12.9853  13.9619  18.0466  23.1475  24.3967
    27.4203  38.1878

          k = 0.5000-0.1000 0.9000 (   318 PWs)   bands (ev):

    10.1524  10.6066  10.9984  12.7303  14.1880  19.8919  21.3357  24.1052
    26.5855  37.4301

          k =-0.4000-1.0000 0.0000 (   318 PWs)   bands (ev):

     9.8857  10.2845  11.5395  12.8870  14.4035  20.8991  21.0981  23.5770
    25.5407  38.2168

     the Fermi energy is    16.0112 ev

!    total energy              =     -85.38237986 Ry
     Harris-Foulkes estimate   =     -85.38237986 Ry
     estimated scf accuracy    <          3.3E-09 Ry

     The total energy is the sum of the following terms:

     one-electron contribution =      11.08136118 Ry
     hartree contribution      =       7.60175429 Ry
     xc contribution           =     -32.11073447 Ry
     ewald contribution        =     -71.95438537 Ry
     smearing contrib. (-TS)   =      -0.00037548 Ry

     convergence has been achieved in   9 iterations

     Forces acting on atoms (cartesian axes, Ry/au):

     atom    1 type  1   force =     0.00000000    0.00000000    0.00000000

     Total force =     0.000000     Total SCF correction =     0.000000


     Computing stress (Cartesian axis) and pressure

          total   stress  (Ry/bohr**3)                   (kbar)     P=   95.03
   0.00064597   0.00000000  -0.00000000         95.03      0.00     -0.00
   0.00000000   0.00064597   0.00000000          0.00     95.03      0.00
  -0.00000000   0.00000000   0.00064597         -0.00      0.00     95.03


     Writing output data file Au.save/

     init_run     :      0.26s CPU      0.27s WALL (       1 calls)
     electrons    :      2.44s CPU      2.67s WALL (       1 calls)
     forces       :      0.03s CPU      0.03s WALL (       1 calls)
     stress       :      0.07s CPU      0.07s WALL (       1 calls)

     Called by init_run:
     wfcinit      :      0.13s CPU      0.14s WALL (       1 calls)
     potinit      :      0.00s CPU      0.00s WALL (       1 calls)
     hinit0       :      0.13s CPU      0.13s WALL (       1 calls)

     Called by electrons:
     c_bands      :      2.08s CPU      2.28s WALL (      10 calls)
     sum_band     :      0.32s CPU      0.34s WALL (      10 calls)
     v_of_rho     :      0.02s CPU      0.02s WALL (      10 calls)
     newd         :      0.02s CPU      0.03s WALL (      10 calls)
     mix_rho      :      0.00s CPU      0.00s WALL (      10 calls)

     Called by c_bands:
     init_us_2    :      0.05s CPU      0.06s WALL (    1081 calls)
     cegterg      :      2.00s CPU      2.20s WALL (     470 calls)

     Called by sum_band:
     sum_band:bec :      0.00s CPU      0.01s WALL (     470 calls)
     addusdens    :      0.03s CPU      0.03s WALL (      10 calls)

     Called by *egterg:
     h_psi        :      1.44s CPU      1.58s WALL (    1688 calls)
     s_psi        :      0.04s CPU      0.05s WALL (    1688 calls)
     g_psi        :      0.01s CPU      0.01s WALL (    1171 calls)
     cdiaghg      :      0.37s CPU      0.40s WALL (    1594 calls)

     Called by h_psi:
     h_psi:pot    :      1.43s CPU      1.57s WALL (    1688 calls)
     h_psi:calbec :      0.07s CPU      0.08s WALL (    1688 calls)
     vloc_psi     :      1.30s CPU      1.43s WALL (    1688 calls)
     add_vuspsi   :      0.04s CPU      0.05s WALL (    1688 calls)

     General routines
     calbec       :      0.11s CPU      0.12s WALL (    2393 calls)
     fft          :      0.01s CPU      0.01s WALL (     137 calls)
     ffts         :      0.00s CPU      0.00s WALL (      10 calls)
     fftw         :      1.42s CPU      1.55s WALL (   29742 calls)

     Parallel routines
     fft_scatt_xy :      0.12s CPU      0.13s WALL (   29889 calls)
     fft_scatt_yz :      0.51s CPU      0.55s WALL (   29889 calls)

     PWSCF        :     3.68s CPU         4.00s WALL


   This run was terminated on:  11:23:28  26Mar2024            

=------------------------------------------------------------------------------=
   JOB DONE.
=------------------------------------------------------------------------------=
