
     Program PWSCF v.6.3MaX starts on 26Mar2024 at 11:25: 6 

     This program is part of the open-source Quantum ESPRESSO suite
     for quantum simulation of materials; please cite
         "P. Giannozzi et al., J. Phys.:Condens. Matter 21 395502 (2009);
         "P. Giannozzi et al., J. Phys.:Condens. Matter 29 465901 (2017);
          URL http://www.quantum-espresso.org", 
     in publications or presentations arising from this work. More details at
     http://www.quantum-espresso.org/quote

     Parallel version (MPI), running on     5 processors

     MPI processes distributed on     1 nodes
     R & G space division:  proc/nbgrp/npool/nimage =       5
     Waiting for input...
     Reading input from standard input

     Current dimensions of program PWSCF are:
     Max number of different atomic species (ntypx) = 10
     Max number of k-points (npk) =  40000
     Max angular momentum in pseudopotentials (lmaxx) =  3
               file Au.pbe-n-kjpaw_psl.1.0.0.UPF: wavefunction(s)  6S 5D renormalized

     Subspace diagonalization in iterative solution of the eigenvalue problem:
     a serial algorithm will be used


     Parallelization info
     --------------------
     sticks:   dense  smooth     PW     G-vecs:    dense   smooth      PW
     Min          50      50     16                  527      527      91
     Max          51      51     18                  528      528      92
     Sum         253     253     85                 2637     2637     459



     bravais-lattice index     =            2
     lattice parameter (alat)  =       7.7100  a.u.
     unit-cell volume          =     114.5785 (a.u.)^3
     number of atoms/cell      =            1
     number of atomic types    =            1
     number of electrons       =        11.00
     number of Kohn-Sham states=           10
     kinetic-energy cutoff     =      30.0000  Ry
     charge density cutoff     =     120.0000  Ry
     convergence threshold     =      1.0E-08
     mixing beta               =       0.7000
     number of iterations used =            8  plain     mixing
     Exchange-correlation      = SLA PW PBX PBC ( 1  4  3  4 0 0)

     celldm(1)=   7.710000  celldm(2)=   0.000000  celldm(3)=   0.000000
     celldm(4)=   0.000000  celldm(5)=   0.000000  celldm(6)=   0.000000

     crystal axes: (cart. coord. in units of alat)
               a(1) = (  -0.500000   0.000000   0.500000 )  
               a(2) = (   0.000000   0.500000   0.500000 )  
               a(3) = (  -0.500000   0.500000   0.000000 )  

     reciprocal axes: (cart. coord. in units 2 pi/alat)
               b(1) = ( -1.000000 -1.000000  1.000000 )  
               b(2) = (  1.000000  1.000000  1.000000 )  
               b(3) = ( -1.000000  1.000000 -1.000000 )  


     PseudoPot. # 1 for Au read from file:
     /home/lorenzo/pseudos/Au/Au.pbe-n-kjpaw_psl.1.0.0.UPF
     MD5 check sum: 4db85c736373c707a97ce4c36c2a9d23
     Pseudo is Projector augmented-wave + core cor, Zval = 11.0
     Generated using "atomic" code by A. Dal Corso v.6.3
     Shape of augmentation charge: PSQ
     Using radial grid of 1279 points,  6 beta functions with: 
                l(1) =   0
                l(2) =   0
                l(3) =   1
                l(4) =   1
                l(5) =   2
                l(6) =   2
     Q(r) pseudized with 0 coefficients 


     atomic species   valence    mass     pseudopotential
        Au            11.00   196.96600     Au( 1.00)

     48 Sym. Ops., with inversion, found



   Cartesian axes

     site n.     atom                  positions (alat units)
         1           Au  tau(   1) = (   0.0000000   0.0000000   0.0000000  )

     number of k points=     4  gaussian smearing, width (Ry)=  0.0100
                       cart. coord. in units 2pi/alat
        k(    1) = (   0.0000000   0.0000000   0.0000000), wk =   0.0740741
        k(    2) = (  -0.3333333   0.3333333  -0.3333333), wk =   0.5925926
        k(    3) = (   0.0000000   0.6666667   0.0000000), wk =   0.4444444
        k(    4) = (   0.6666667  -0.0000000   0.6666667), wk =   0.8888889

     Dense  grid:     2637 G-vectors     FFT dimensions: (  20,  20,  20)

     Estimated max dynamical RAM per process >       3.09 MB

     Estimated total dynamical RAM >      15.47 MB

     Initial potential from superposition of free atoms

     starting charge   10.99989, renormalised to   11.00000
     Starting wfcs are    9 randomized atomic wfcs +    1 random wfcs
     Checking if some PAW data can be deallocated... 

     total cpu time spent up to now is        1.3 secs

     Self-consistent Calculation

     iteration #  1     ecut=    30.00 Ry     beta= 0.70
     Davidson diagonalization with overlap
     ethr =  1.00E-02,  avg # of iterations =  6.5

     Threshold (ethr) on eigenvalues was too large:
     Diagonalizing with lowered threshold

     Davidson diagonalization with overlap
     ethr =  5.09E-04,  avg # of iterations =  1.5

     total cpu time spent up to now is        1.6 secs

     total energy              =    -775.14350747 Ry
     Harris-Foulkes estimate   =    -775.18073160 Ry
     estimated scf accuracy    <       0.05539151 Ry

     iteration #  2     ecut=    30.00 Ry     beta= 0.70
     Davidson diagonalization with overlap
     ethr =  5.04E-04,  avg # of iterations =  2.8

     total cpu time spent up to now is        1.8 secs

     total energy              =    -775.15968580 Ry
     Harris-Foulkes estimate   =    -775.16766992 Ry
     estimated scf accuracy    <       0.01272826 Ry

     iteration #  3     ecut=    30.00 Ry     beta= 0.70
     Davidson diagonalization with overlap
     ethr =  1.16E-04,  avg # of iterations =  2.0

     total cpu time spent up to now is        2.0 secs

     total energy              =    -775.16277405 Ry
     Harris-Foulkes estimate   =    -775.16277761 Ry
     estimated scf accuracy    <       0.00021980 Ry

     iteration #  4     ecut=    30.00 Ry     beta= 0.70
     Davidson diagonalization with overlap
     ethr =  2.00E-06,  avg # of iterations =  3.5

     total cpu time spent up to now is        2.2 secs

     total energy              =    -775.16289850 Ry
     Harris-Foulkes estimate   =    -775.16292824 Ry
     estimated scf accuracy    <       0.00006277 Ry

     iteration #  5     ecut=    30.00 Ry     beta= 0.70
     Davidson diagonalization with overlap
     ethr =  5.71E-07,  avg # of iterations =  1.0

     total cpu time spent up to now is        2.3 secs

     total energy              =    -775.16289987 Ry
     Harris-Foulkes estimate   =    -775.16290407 Ry
     estimated scf accuracy    <       0.00000596 Ry

     iteration #  6     ecut=    30.00 Ry     beta= 0.70
     Davidson diagonalization with overlap
     ethr =  5.42E-08,  avg # of iterations =  3.0

     total cpu time spent up to now is        2.5 secs

     total energy              =    -775.16290320 Ry
     Harris-Foulkes estimate   =    -775.16290401 Ry
     estimated scf accuracy    <       0.00000161 Ry

     iteration #  7     ecut=    30.00 Ry     beta= 0.70
     Davidson diagonalization with overlap
     ethr =  1.46E-08,  avg # of iterations =  1.5

     total cpu time spent up to now is        2.7 secs

     total energy              =    -775.16290334 Ry
     Harris-Foulkes estimate   =    -775.16290340 Ry
     estimated scf accuracy    <       0.00000010 Ry

     iteration #  8     ecut=    30.00 Ry     beta= 0.70
     Davidson diagonalization with overlap
     ethr =  8.66E-10,  avg # of iterations =  3.8

     total cpu time spent up to now is        2.9 secs

     total energy              =    -775.16290341 Ry
     Harris-Foulkes estimate   =    -775.16290343 Ry
     estimated scf accuracy    <       0.00000003 Ry

     iteration #  9     ecut=    30.00 Ry     beta= 0.70
     Davidson diagonalization with overlap
     ethr =  2.52E-10,  avg # of iterations =  1.0

     total cpu time spent up to now is        3.0 secs

     End of self-consistent calculation

          k = 0.0000 0.0000 0.0000 (   331 PWs)   bands (ev):

     6.0676  11.2229  11.2229  11.2229  12.7289  12.7289  31.3944  35.2348
    35.2348  35.2348

          k =-0.3333 0.3333-0.3333 (   308 PWs)   bands (ev):

     8.4600  11.3717  11.3717  11.9757  13.3513  13.3513  23.8904  31.5668
    35.1323  35.1323

          k = 0.0000 0.6667 0.0000 (   323 PWs)   bands (ev):

     9.0646   9.6148  12.9316  13.2563  13.2563  13.5781  28.1906  28.5914
    28.5914  32.6733

          k = 0.6667-0.0000 0.6667 (   323 PWs)   bands (ev):

     9.7537  10.5632  11.4311  12.6220  13.5047  18.4314  22.4288  23.1512
    30.4518  33.3270

     the Fermi energy is    13.6715 ev

!    total energy              =    -775.16290341 Ry
     Harris-Foulkes estimate   =    -775.16290342 Ry
     estimated scf accuracy    <          2.3E-09 Ry

     total all-electron energy =    -38024.008994 Ry

     The total energy is the sum of the following terms:

     one-electron contribution =      13.83412219 Ry
     hartree contribution      =       7.59491152 Ry
     xc contribution           =     -32.10980733 Ry
     ewald contribution        =     -71.95438537 Ry
     one-center paw contrib.   =    -692.52639062 Ry
     smearing contrib. (-TS)   =      -0.00135382 Ry

     convergence has been achieved in   9 iterations

     Forces acting on atoms (cartesian axes, Ry/au):

     atom    1 type  1   force =     0.00000000    0.00000000    0.00000000

     Total force =     0.000000     Total SCF correction =     0.000000


     Computing stress (Cartesian axis) and pressure

          total   stress  (Ry/bohr**3)                   (kbar)     P=   30.81
   0.00020945  -0.00000000  -0.00000000         30.81     -0.00     -0.00
  -0.00000000   0.00020945  -0.00000000         -0.00     30.81     -0.00
   0.00000000  -0.00000000   0.00020945          0.00     -0.00     30.81


     Writing output data file Au.save/

     init_run     :      0.29s CPU      0.32s WALL (       1 calls)
     electrons    :      1.56s CPU      1.73s WALL (       1 calls)
     forces       :      0.01s CPU      0.01s WALL (       1 calls)
     stress       :      0.03s CPU      0.04s WALL (       1 calls)

     Called by init_run:
     wfcinit      :      0.01s CPU      0.01s WALL (       1 calls)
     potinit      :      0.12s CPU      0.15s WALL (       1 calls)
     hinit0       :      0.14s CPU      0.14s WALL (       1 calls)

     Called by electrons:
     c_bands      :      0.31s CPU      0.33s WALL (      10 calls)
     sum_band     :      0.08s CPU      0.08s WALL (      10 calls)
     v_of_rho     :      0.02s CPU      0.02s WALL (      10 calls)
     newd         :      0.04s CPU      0.04s WALL (      10 calls)
     PAW_pot      :      1.22s CPU      1.39s WALL (      10 calls)
     mix_rho      :      0.00s CPU      0.01s WALL (      10 calls)

     Called by c_bands:
     init_us_2    :      0.01s CPU      0.01s WALL (      92 calls)
     cegterg      :      0.30s CPU      0.31s WALL (      40 calls)

     Called by sum_band:
     sum_band:bec :      0.00s CPU      0.00s WALL (      40 calls)
     addusdens    :      0.03s CPU      0.03s WALL (      10 calls)

     Called by *egterg:
     h_psi        :      0.22s CPU      0.23s WALL (     150 calls)
     s_psi        :      0.00s CPU      0.00s WALL (     150 calls)
     g_psi        :      0.00s CPU      0.00s WALL (     106 calls)
     cdiaghg      :      0.04s CPU      0.04s WALL (     142 calls)

     Called by h_psi:
     h_psi:pot    :      0.22s CPU      0.23s WALL (     150 calls)
     h_psi:calbec :      0.02s CPU      0.02s WALL (     150 calls)
     vloc_psi     :      0.20s CPU      0.21s WALL (     150 calls)
     add_vuspsi   :      0.00s CPU      0.00s WALL (     150 calls)

     General routines
     calbec       :      0.02s CPU      0.02s WALL (     210 calls)
     fft          :      0.02s CPU      0.02s WALL (     137 calls)
     ffts         :      0.00s CPU      0.00s WALL (      10 calls)
     fftw         :      0.21s CPU      0.23s WALL (    2584 calls)

     Parallel routines
     fft_scatt_xy :      0.01s CPU      0.02s WALL (    2731 calls)
     fft_scatt_yz :      0.14s CPU      0.15s WALL (    2731 calls)

     PWSCF        :     2.90s CPU         3.14s WALL


   This run was terminated on:  11:25:10  26Mar2024            

=------------------------------------------------------------------------------=
   JOB DONE.
=------------------------------------------------------------------------------=
