
     Program PWSCF v.6.3MaX starts on 26Mar2024 at 12:21:25 

     This program is part of the open-source Quantum ESPRESSO suite
     for quantum simulation of materials; please cite
         "P. Giannozzi et al., J. Phys.:Condens. Matter 21 395502 (2009);
         "P. Giannozzi et al., J. Phys.:Condens. Matter 29 465901 (2017);
          URL http://www.quantum-espresso.org", 
     in publications or presentations arising from this work. More details at
     http://www.quantum-espresso.org/quote

     Parallel version (MPI), running on     5 processors

     MPI processes distributed on     1 nodes
     R & G space division:  proc/nbgrp/npool/nimage =       5
     Waiting for input...
     Reading input from standard input

     Current dimensions of program PWSCF are:
     Max number of different atomic species (ntypx) = 10
     Max number of k-points (npk) =  40000
     Max angular momentum in pseudopotentials (lmaxx) =  3

     Subspace diagonalization in iterative solution of the eigenvalue problem:
     a serial algorithm will be used


     Parallelization info
     --------------------
     sticks:   dense  smooth     PW     G-vecs:    dense   smooth      PW
     Min         129     129     39                 2201     2201     376
     Max         130     130     40                 2204     2204     380
     Sum         649     649    199                11017    11017    1893



     bravais-lattice index     =            2
     lattice parameter (alat)  =       7.7100  a.u.
     unit-cell volume          =     114.5785 (a.u.)^3
     number of atoms/cell      =            1
     number of atomic types    =            1
     number of electrons       =        11.00
     number of Kohn-Sham states=           10
     kinetic-energy cutoff     =      80.0000  Ry
     charge density cutoff     =     320.0000  Ry
     convergence threshold     =      1.0E-08
     mixing beta               =       0.7000
     number of iterations used =            8  plain     mixing
     Exchange-correlation      = PBESOL ( 1  4 10  8 0 0)

     celldm(1)=   7.710000  celldm(2)=   0.000000  celldm(3)=   0.000000
     celldm(4)=   0.000000  celldm(5)=   0.000000  celldm(6)=   0.000000

     crystal axes: (cart. coord. in units of alat)
               a(1) = (  -0.500000   0.000000   0.500000 )  
               a(2) = (   0.000000   0.500000   0.500000 )  
               a(3) = (  -0.500000   0.500000   0.000000 )  

     reciprocal axes: (cart. coord. in units 2 pi/alat)
               b(1) = ( -1.000000 -1.000000  1.000000 )  
               b(2) = (  1.000000  1.000000  1.000000 )  
               b(3) = ( -1.000000  1.000000 -1.000000 )  


     PseudoPot. # 1 for Au read from file:
     /home/lorenzo/pseudos/Au/Au.pbesol-n-rrkjus_psl.1.0.0.UPF
     MD5 check sum: 09626e9411213730b9a56fcc59c03ca8
     Pseudo is Ultrasoft + core correction, Zval = 11.0
     Generated using "atomic" code by A. Dal Corso v.6.3
     Using radial grid of 1279 points,  6 beta functions with: 
                l(1) =   0
                l(2) =   0
                l(3) =   1
                l(4) =   1
                l(5) =   2
                l(6) =   2
     Q(r) pseudized with 0 coefficients 


     atomic species   valence    mass     pseudopotential
        Au            11.00   196.96600     Au( 1.00)

     48 Sym. Ops., with inversion, found



   Cartesian axes

     site n.     atom                  positions (alat units)
         1           Au  tau(   1) = (   0.0000000   0.0000000   0.0000000  )

     number of k points=    10  gaussian smearing, width (Ry)=  0.0100
                       cart. coord. in units 2pi/alat
        k(    1) = (   0.0000000   0.0000000   0.0000000), wk =   0.0160000
        k(    2) = (  -0.2000000   0.2000000  -0.2000000), wk =   0.1280000
        k(    3) = (  -0.4000000   0.4000000  -0.4000000), wk =   0.1280000
        k(    4) = (   0.0000000   0.4000000   0.0000000), wk =   0.0960000
        k(    5) = (  -0.2000000   0.6000000  -0.2000000), wk =   0.3840000
        k(    6) = (   0.6000000  -0.2000000   0.6000000), wk =   0.3840000
        k(    7) = (   0.4000000   0.0000000   0.4000000), wk =   0.1920000
        k(    8) = (   0.0000000   0.8000000   0.0000000), wk =   0.0960000
        k(    9) = (   0.8000000   0.0000000   0.8000000), wk =   0.1920000
        k(   10) = (   0.6000000  -0.2000000   1.0000000), wk =   0.3840000

     Dense  grid:    11017 G-vectors     FFT dimensions: (  32,  32,  32)

     Estimated max dynamical RAM per process >      10.46 MB

     Estimated total dynamical RAM >      52.29 MB

     Initial potential from superposition of free atoms

     starting charge   10.99990, renormalised to   11.00000
     Starting wfcs are    9 randomized atomic wfcs +    1 random wfcs

     total cpu time spent up to now is        1.1 secs

     Self-consistent Calculation

     iteration #  1     ecut=    80.00 Ry     beta= 0.70
     Davidson diagonalization with overlap
     ethr =  1.00E-02,  avg # of iterations =  5.7

     Threshold (ethr) on eigenvalues was too large:
     Diagonalizing with lowered threshold

     Davidson diagonalization with overlap
     ethr =  5.55E-04,  avg # of iterations =  2.2

     total cpu time spent up to now is        1.6 secs

     total energy              =     -85.19657256 Ry
     Harris-Foulkes estimate   =     -85.23700087 Ry
     estimated scf accuracy    <       0.06361492 Ry

     iteration #  2     ecut=    80.00 Ry     beta= 0.70
     Davidson diagonalization with overlap
     ethr =  5.78E-04,  avg # of iterations =  3.9

     negative rho (up, down):  1.459E-02 0.000E+00

     total cpu time spent up to now is        1.9 secs

     total energy              =     -85.34892626 Ry
     Harris-Foulkes estimate   =     -85.23549946 Ry
     estimated scf accuracy    <       0.40355895 Ry

     iteration #  3     ecut=    80.00 Ry     beta= 0.70
     Davidson diagonalization with overlap
     ethr =  5.78E-04,  avg # of iterations =  4.1

     total cpu time spent up to now is        2.1 secs

     total energy              =     -50.13998064 Ry
     Harris-Foulkes estimate   =    -146.75348661 Ry
     estimated scf accuracy    <  197908.86492999 Ry

     iteration #  4     ecut=    80.00 Ry     beta= 0.70
     Davidson diagonalization with overlap
     ethr =  5.78E-04,  avg # of iterations =  6.2

     total cpu time spent up to now is        2.3 secs

     total energy              =     -85.22151590 Ry
     Harris-Foulkes estimate   =     -85.22120769 Ry
     estimated scf accuracy    <       0.09197770 Ry

     iteration #  5     ecut=    80.00 Ry     beta= 0.70
     Davidson diagonalization with overlap
     ethr =  5.78E-04,  avg # of iterations =  1.0

     total cpu time spent up to now is        2.5 secs

     total energy              =     -85.22151842 Ry
     Harris-Foulkes estimate   =     -85.22159780 Ry
     estimated scf accuracy    <       0.09540950 Ry

     iteration #  6     ecut=    80.00 Ry     beta= 0.70
     Davidson diagonalization with overlap
     ethr =  5.78E-04,  avg # of iterations =  1.0

     total cpu time spent up to now is        2.6 secs

     total energy              =     -85.22149758 Ry
     Harris-Foulkes estimate   =     -85.22152812 Ry
     estimated scf accuracy    <       0.09613082 Ry

     iteration #  7     ecut=    80.00 Ry     beta= 0.70
     Davidson diagonalization with overlap
     ethr =  5.78E-04,  avg # of iterations =  1.0

     total cpu time spent up to now is        2.7 secs

     total energy              =     -85.22145531 Ry
     Harris-Foulkes estimate   =     -85.22150033 Ry
     estimated scf accuracy    <       0.09667064 Ry

     iteration #  8     ecut=    80.00 Ry     beta= 0.70
     Davidson diagonalization with overlap
     ethr =  5.78E-04,  avg # of iterations =  1.0

     total cpu time spent up to now is        2.8 secs

     total energy              =     -85.22136796 Ry
     Harris-Foulkes estimate   =     -85.22145630 Ry
     estimated scf accuracy    <       0.09661872 Ry

     iteration #  9     ecut=    80.00 Ry     beta= 0.70
     Davidson diagonalization with overlap
     ethr =  5.78E-04,  avg # of iterations =  1.0

     total cpu time spent up to now is        3.0 secs

     total energy              =     -85.22135172 Ry
     Harris-Foulkes estimate   =     -85.22136864 Ry
     estimated scf accuracy    <       0.09537737 Ry

     iteration # 10     ecut=    80.00 Ry     beta= 0.70
     Davidson diagonalization with overlap
     ethr =  5.78E-04,  avg # of iterations =  1.0

     total cpu time spent up to now is        3.1 secs

     total energy              =     -85.22132274 Ry
     Harris-Foulkes estimate   =     -85.22135195 Ry
     estimated scf accuracy    <       0.09506260 Ry

     iteration # 11     ecut=    80.00 Ry     beta= 0.70
     Davidson diagonalization with overlap
     ethr =  5.78E-04,  avg # of iterations =  1.0

     total cpu time spent up to now is        3.2 secs

     total energy              =     -85.22138597 Ry
     Harris-Foulkes estimate   =     -85.22132298 Ry
     estimated scf accuracy    <       0.09417121 Ry

     iteration # 12     ecut=    80.00 Ry     beta= 0.70
     Davidson diagonalization with overlap
     ethr =  5.78E-04,  avg # of iterations =  1.0

     total cpu time spent up to now is        3.4 secs

     total energy              =     -85.21405343 Ry
     Harris-Foulkes estimate   =     -85.22138615 Ry
     estimated scf accuracy    <       0.09480041 Ry

     iteration # 13     ecut=    80.00 Ry     beta= 0.70
     Davidson diagonalization with overlap
     ethr =  5.78E-04,  avg # of iterations =  2.8

     total cpu time spent up to now is        3.5 secs

     total energy              =     -85.21657345 Ry
     Harris-Foulkes estimate   =     -85.21700908 Ry
     estimated scf accuracy    <       0.00717285 Ry

     iteration # 14     ecut=    80.00 Ry     beta= 0.70
     Davidson diagonalization with overlap
     ethr =  6.52E-05,  avg # of iterations =  3.7

     total cpu time spent up to now is        3.7 secs

     total energy              =     -85.21671257 Ry
     Harris-Foulkes estimate   =     -85.21668386 Ry
     estimated scf accuracy    <       0.00319512 Ry

     iteration # 15     ecut=    80.00 Ry     beta= 0.70
     Davidson diagonalization with overlap
     ethr =  2.90E-05,  avg # of iterations =  1.2

     total cpu time spent up to now is        3.8 secs

     total energy              =     -85.21655142 Ry
     Harris-Foulkes estimate   =     -85.21673039 Ry
     estimated scf accuracy    <       0.00286894 Ry

     iteration # 16     ecut=    80.00 Ry     beta= 0.70
     Davidson diagonalization with overlap
     ethr =  2.61E-05,  avg # of iterations =  2.2

     total cpu time spent up to now is        4.0 secs

     total energy              =     -85.21652875 Ry
     Harris-Foulkes estimate   =     -85.21662464 Ry
     estimated scf accuracy    <       0.00054536 Ry

     iteration # 17     ecut=    80.00 Ry     beta= 0.70
     Davidson diagonalization with overlap
     ethr =  4.96E-06,  avg # of iterations =  3.4

     total cpu time spent up to now is        4.1 secs

     total energy              =     -85.21668093 Ry
     Harris-Foulkes estimate   =     -85.21663656 Ry
     estimated scf accuracy    <       0.00033099 Ry

     iteration # 18     ecut=    80.00 Ry     beta= 0.70
     Davidson diagonalization with overlap
     ethr =  3.01E-06,  avg # of iterations =  2.8

     total cpu time spent up to now is        4.3 secs

     total energy              =     -85.21656160 Ry
     Harris-Foulkes estimate   =     -85.21671521 Ry
     estimated scf accuracy    <       0.00187532 Ry

     iteration # 19     ecut=    80.00 Ry     beta= 0.70
     Davidson diagonalization with overlap
     ethr =  3.01E-06,  avg # of iterations =  2.9

     total cpu time spent up to now is        4.5 secs

     total energy              =     -85.21666092 Ry
     Harris-Foulkes estimate   =     -85.21662453 Ry
     estimated scf accuracy    <       0.00009692 Ry

     iteration # 20     ecut=    80.00 Ry     beta= 0.70
     Davidson diagonalization with overlap
     ethr =  8.81E-07,  avg # of iterations =  4.0

     total cpu time spent up to now is        4.7 secs

     total energy              =     -85.21653662 Ry
     Harris-Foulkes estimate   =     -85.21676167 Ry
     estimated scf accuracy    <       0.00288327 Ry

     iteration # 21     ecut=    80.00 Ry     beta= 0.70
     Davidson diagonalization with overlap
     ethr =  8.81E-07,  avg # of iterations =  3.6

     total cpu time spent up to now is        4.9 secs

     total energy              =     -85.21662819 Ry
     Harris-Foulkes estimate   =     -85.21662710 Ry
     estimated scf accuracy    <       0.00015833 Ry

     iteration # 22     ecut=    80.00 Ry     beta= 0.70
     Davidson diagonalization with overlap
     ethr =  8.81E-07,  avg # of iterations =  1.0

     total cpu time spent up to now is        5.0 secs

     total energy              =     -85.21662530 Ry
     Harris-Foulkes estimate   =     -85.21662830 Ry
     estimated scf accuracy    <       0.00016782 Ry

     iteration # 23     ecut=    80.00 Ry     beta= 0.70
     Davidson diagonalization with overlap
     ethr =  8.81E-07,  avg # of iterations =  1.0

     total cpu time spent up to now is        5.2 secs

     total energy              =     -85.21660258 Ry
     Harris-Foulkes estimate   =     -85.21662544 Ry
     estimated scf accuracy    <       0.00014030 Ry

     iteration # 24     ecut=    80.00 Ry     beta= 0.70
     Davidson diagonalization with overlap
     ethr =  8.81E-07,  avg # of iterations =  2.4

     total cpu time spent up to now is        5.5 secs

     total energy              =     -85.21661834 Ry
     Harris-Foulkes estimate   =     -85.21662060 Ry
     estimated scf accuracy    <       0.00003410 Ry

     iteration # 25     ecut=    80.00 Ry     beta= 0.70
     Davidson diagonalization with overlap
     ethr =  3.10E-07,  avg # of iterations =  1.0

     total cpu time spent up to now is        5.7 secs

     total energy              =     -85.21661618 Ry
     Harris-Foulkes estimate   =     -85.21661893 Ry
     estimated scf accuracy    <       0.00001136 Ry

     iteration # 26     ecut=    80.00 Ry     beta= 0.70
     Davidson diagonalization with overlap
     ethr =  1.03E-07,  avg # of iterations =  2.7

     total cpu time spent up to now is        5.9 secs

     total energy              =     -85.21661804 Ry
     Harris-Foulkes estimate   =     -85.21661990 Ry
     estimated scf accuracy    <       0.00002086 Ry

     iteration # 27     ecut=    80.00 Ry     beta= 0.70
     Davidson diagonalization with overlap
     ethr =  1.03E-07,  avg # of iterations =  1.7

     total cpu time spent up to now is        6.1 secs

     total energy              =     -85.21661864 Ry
     Harris-Foulkes estimate   =     -85.21661877 Ry
     estimated scf accuracy    <       0.00000162 Ry

     iteration # 28     ecut=    80.00 Ry     beta= 0.70
     Davidson diagonalization with overlap
     ethr =  1.47E-08,  avg # of iterations =  1.6

     total cpu time spent up to now is        6.2 secs

     total energy              =     -85.21661868 Ry
     Harris-Foulkes estimate   =     -85.21661872 Ry
     estimated scf accuracy    <       0.00000046 Ry

     iteration # 29     ecut=    80.00 Ry     beta= 0.70
     Davidson diagonalization with overlap
     ethr =  4.21E-09,  avg # of iterations =  2.7

     total cpu time spent up to now is        6.3 secs

     total energy              =     -85.21661876 Ry
     Harris-Foulkes estimate   =     -85.21661877 Ry
     estimated scf accuracy    <       0.00000010 Ry

     iteration # 30     ecut=    80.00 Ry     beta= 0.70
     Davidson diagonalization with overlap
     ethr =  9.09E-10,  avg # of iterations =  1.7

     total cpu time spent up to now is        6.5 secs

     total energy              =     -85.21661876 Ry
     Harris-Foulkes estimate   =     -85.21661877 Ry
     estimated scf accuracy    <       0.00000009 Ry

     iteration # 31     ecut=    80.00 Ry     beta= 0.70
     Davidson diagonalization with overlap
     ethr =  8.23E-10,  avg # of iterations =  1.0

     total cpu time spent up to now is        6.6 secs

     total energy              =     -85.21661876 Ry
     Harris-Foulkes estimate   =     -85.21661876 Ry
     estimated scf accuracy    <       0.00000004 Ry

     iteration # 32     ecut=    80.00 Ry     beta= 0.70
     Davidson diagonalization with overlap
     ethr =  3.71E-10,  avg # of iterations =  1.4

     total cpu time spent up to now is        6.7 secs

     total energy              =     -85.21661876 Ry
     Harris-Foulkes estimate   =     -85.21661876 Ry
     estimated scf accuracy    <       0.00000001 Ry

     iteration # 33     ecut=    80.00 Ry     beta= 0.70
     Davidson diagonalization with overlap
     ethr =  9.59E-11,  avg # of iterations =  2.2

     total cpu time spent up to now is        6.9 secs

     End of self-consistent calculation

          k = 0.0000 0.0000 0.0000 (  1411 PWs)   bands (ev):

     5.8366  11.1417  11.1417  11.1417  12.6856  12.6856  31.1406  35.0008
    35.0008  35.0008

          k =-0.2000 0.2000-0.2000 (  1387 PWs)   bands (ev):

     7.1087  10.8913  11.4318  11.4318  12.6839  12.6839  29.0779  32.2568
    35.9767  35.9767

          k =-0.4000 0.4000-0.4000 (  1389 PWs)   bands (ev):

     8.4321  11.1807  11.1807  13.1241  13.6624  13.6624  21.2126  30.7633
    33.9923  33.9923

          k = 0.0000 0.4000 0.0000 (  1375 PWs)   bands (ev):

     7.5526  10.3307  11.9152  11.9650  11.9650  13.0684  32.2596  32.2596
    32.3639  32.9775

          k =-0.2000 0.6000-0.2000 (  1395 PWs)   bands (ev):

     9.0903  10.3236  11.1761  12.1106  13.8188  14.3884  24.2047  30.2635
    30.3525  33.0332

          k = 0.6000-0.2000 0.6000 (  1382 PWs)   bands (ev):

     9.3428  10.6230  11.7240  11.8288  13.6036  17.3878  19.7843  27.6036
    31.8208  32.2106

          k = 0.4000 0.0000 0.4000 (  1384 PWs)   bands (ev):

     8.8205  10.4982  11.2358  12.0405  12.1971  14.2831  26.4242  28.4747
    33.5153  36.3812

          k = 0.0000 0.8000 0.0000 (  1383 PWs)   bands (ev):

     8.8402   9.2206  13.7351  13.8050  13.8050  14.5312  24.6025  26.9144
    26.9144  32.5786

          k = 0.8000 0.0000 0.8000 (  1374 PWs)   bands (ev):

     9.1612   9.6471  12.4657  13.2320  13.9412  19.4875  20.4262  23.6388
    27.6609  33.7875

          k = 0.6000-0.2000 1.0000 (  1382 PWs)   bands (ev):

     9.9066  10.1651  10.8620  12.8059  13.7912  17.8237  22.8748  24.1765
    27.0727  37.2148

     the Fermi energy is    14.5774 ev

!    total energy              =     -85.21661876 Ry
     Harris-Foulkes estimate   =     -85.21661876 Ry
     estimated scf accuracy    <          3.6E-10 Ry

     The total energy is the sum of the following terms:

     one-electron contribution =      11.00081455 Ry
     hartree contribution      =       7.54628471 Ry
     xc contribution           =     -31.80892896 Ry
     ewald contribution        =     -71.95438534 Ry
     smearing contrib. (-TS)   =      -0.00040372 Ry

     convergence has been achieved in  33 iterations

     Forces acting on atoms (cartesian axes, Ry/au):

     atom    1 type  1   force =     0.00000000    0.00000000    0.00000000

     Total force =     0.000000     Total SCF correction =     0.000000


     Computing stress (Cartesian axis) and pressure

          total   stress  (Ry/bohr**3)                   (kbar)     P=    6.19
   0.00004205   0.00000000   0.00000000          6.19      0.00      0.00
   0.00000000   0.00004205  -0.00000000          0.00      6.19     -0.00
   0.00000000  -0.00000000   0.00004205          0.00     -0.00      6.19


     Writing output data file Au.save/

     init_run     :      0.27s CPU      0.28s WALL (       1 calls)
     electrons    :      5.38s CPU      5.78s WALL (       1 calls)
     forces       :      0.06s CPU      0.06s WALL (       1 calls)
     stress       :      0.13s CPU      0.13s WALL (       1 calls)

     Called by init_run:
     wfcinit      :      0.04s CPU      0.05s WALL (       1 calls)
     potinit      :      0.01s CPU      0.01s WALL (       1 calls)
     hinit0       :      0.19s CPU      0.20s WALL (       1 calls)

     Called by electrons:
     c_bands      :      3.62s CPU      3.92s WALL (      34 calls)
     sum_band     :      1.03s CPU      1.10s WALL (      34 calls)
     v_of_rho     :      0.30s CPU      0.31s WALL (      34 calls)
     newd         :      0.39s CPU      0.40s WALL (      34 calls)
     mix_rho      :      0.04s CPU      0.04s WALL (      34 calls)

     Called by c_bands:
     init_us_2    :      0.12s CPU      0.12s WALL (     710 calls)
     cegterg      :      3.44s CPU      3.73s WALL (     340 calls)

     Called by sum_band:
     sum_band:bec :      0.00s CPU      0.00s WALL (     340 calls)
     addusdens    :      0.37s CPU      0.38s WALL (      34 calls)

     Called by *egterg:
     h_psi        :      2.60s CPU      2.85s WALL (    1121 calls)
     s_psi        :      0.09s CPU      0.10s WALL (    1121 calls)
     g_psi        :      0.01s CPU      0.01s WALL (     771 calls)
     cdiaghg      :      0.28s CPU      0.29s WALL (    1101 calls)

     Called by h_psi:
     h_psi:pot    :      2.58s CPU      2.83s WALL (    1121 calls)
     h_psi:calbec :      0.15s CPU      0.16s WALL (    1121 calls)
     vloc_psi     :      2.34s CPU      2.56s WALL (    1121 calls)
     add_vuspsi   :      0.09s CPU      0.10s WALL (    1121 calls)

     General routines
     calbec       :      0.21s CPU      0.23s WALL (    1511 calls)
     fft          :      0.17s CPU      0.18s WALL (     401 calls)
     ffts         :      0.01s CPU      0.01s WALL (      34 calls)
     fftw         :      2.60s CPU      2.86s WALL (   20088 calls)

     Parallel routines
     fft_scatt_xy :      0.25s CPU      0.28s WALL (   20523 calls)
     fft_scatt_yz :      0.99s CPU      1.08s WALL (   20523 calls)

     PWSCF        :     6.67s CPU         7.13s WALL


   This run was terminated on:  12:21:32  26Mar2024            

=------------------------------------------------------------------------------=
   JOB DONE.
=------------------------------------------------------------------------------=
