
     Program PWSCF v.6.3MaX starts on 26Mar2024 at 12:13:18 

     This program is part of the open-source Quantum ESPRESSO suite
     for quantum simulation of materials; please cite
         "P. Giannozzi et al., J. Phys.:Condens. Matter 21 395502 (2009);
         "P. Giannozzi et al., J. Phys.:Condens. Matter 29 465901 (2017);
          URL http://www.quantum-espresso.org", 
     in publications or presentations arising from this work. More details at
     http://www.quantum-espresso.org/quote

     Parallel version (MPI), running on     5 processors

     MPI processes distributed on     1 nodes
     R & G space division:  proc/nbgrp/npool/nimage =       5
     Waiting for input...
     Reading input from standard input

     Current dimensions of program PWSCF are:
     Max number of different atomic species (ntypx) = 10
     Max number of k-points (npk) =  40000
     Max angular momentum in pseudopotentials (lmaxx) =  3
               file Au.pbe-n-kjpaw_psl.1.0.0.UPF: wavefunction(s)  6S 5D renormalized

     Subspace diagonalization in iterative solution of the eigenvalue problem:
     a serial algorithm will be used


     Parallelization info
     --------------------
     sticks:   dense  smooth     PW     G-vecs:    dense   smooth      PW
     Min         122     122     37                 1997     1997     327
     Max         123     123     38                 1997     1997     329
     Sum         613     613    187                 9985     9985    1639



     bravais-lattice index     =            2
     lattice parameter (alat)  =       7.7100  a.u.
     unit-cell volume          =     114.5785 (a.u.)^3
     number of atoms/cell      =            1
     number of atomic types    =            1
     number of electrons       =        11.00
     number of Kohn-Sham states=           10
     kinetic-energy cutoff     =      75.0000  Ry
     charge density cutoff     =     300.0000  Ry
     convergence threshold     =      1.0E-08
     mixing beta               =       0.7000
     number of iterations used =            8  plain     mixing
     Exchange-correlation      = SLA PW PBX PBC ( 1  4  3  4 0 0)

     celldm(1)=   7.710000  celldm(2)=   0.000000  celldm(3)=   0.000000
     celldm(4)=   0.000000  celldm(5)=   0.000000  celldm(6)=   0.000000

     crystal axes: (cart. coord. in units of alat)
               a(1) = (  -0.500000   0.000000   0.500000 )  
               a(2) = (   0.000000   0.500000   0.500000 )  
               a(3) = (  -0.500000   0.500000   0.000000 )  

     reciprocal axes: (cart. coord. in units 2 pi/alat)
               b(1) = ( -1.000000 -1.000000  1.000000 )  
               b(2) = (  1.000000  1.000000  1.000000 )  
               b(3) = ( -1.000000  1.000000 -1.000000 )  


     PseudoPot. # 1 for Au read from file:
     /home/lorenzo/pseudos/Au/Au.pbe-n-kjpaw_psl.1.0.0.UPF
     MD5 check sum: 4db85c736373c707a97ce4c36c2a9d23
     Pseudo is Projector augmented-wave + core cor, Zval = 11.0
     Generated using "atomic" code by A. Dal Corso v.6.3
     Shape of augmentation charge: PSQ
     Using radial grid of 1279 points,  6 beta functions with: 
                l(1) =   0
                l(2) =   0
                l(3) =   1
                l(4) =   1
                l(5) =   2
                l(6) =   2
     Q(r) pseudized with 0 coefficients 


     atomic species   valence    mass     pseudopotential
        Au            11.00   196.96600     Au( 1.00)

     48 Sym. Ops., with inversion, found



   Cartesian axes

     site n.     atom                  positions (alat units)
         1           Au  tau(   1) = (   0.0000000   0.0000000   0.0000000  )

     number of k points=     3  gaussian smearing, width (Ry)=  0.0100
                       cart. coord. in units 2pi/alat
        k(    1) = (   0.0000000   0.0000000   0.0000000), wk =   0.2500000
        k(    2) = (   0.5000000  -0.5000000   0.5000000), wk =   1.0000000
        k(    3) = (   0.0000000  -1.0000000   0.0000000), wk =   0.7500000

     Dense  grid:     9985 G-vectors     FFT dimensions: (  32,  32,  32)

     Estimated max dynamical RAM per process >       9.38 MB

     Estimated total dynamical RAM >      46.88 MB

     Initial potential from superposition of free atoms

     starting charge   10.99989, renormalised to   11.00000
     Starting wfcs are    9 randomized atomic wfcs +    1 random wfcs
     Checking if some PAW data can be deallocated... 

     total cpu time spent up to now is        1.2 secs

     Self-consistent Calculation

     iteration #  1     ecut=    75.00 Ry     beta= 0.70
     Davidson diagonalization with overlap
     ethr =  1.00E-02,  avg # of iterations =  7.3

     Threshold (ethr) on eigenvalues was too large:
     Diagonalizing with lowered threshold

     Davidson diagonalization with overlap
     ethr =  3.66E-04,  avg # of iterations =  3.7

     total cpu time spent up to now is        1.5 secs

     total energy              =    -774.87337571 Ry
     Harris-Foulkes estimate   =    -774.89536897 Ry
     estimated scf accuracy    <       0.03898539 Ry

     iteration #  2     ecut=    75.00 Ry     beta= 0.70
     Davidson diagonalization with overlap
     ethr =  3.54E-04,  avg # of iterations =  2.3

     total cpu time spent up to now is        1.6 secs

     total energy              =    -774.88748641 Ry
     Harris-Foulkes estimate   =    -774.90147276 Ry
     estimated scf accuracy    <       0.02608471 Ry

     iteration #  3     ecut=    75.00 Ry     beta= 0.70
     Davidson diagonalization with overlap
     ethr =  2.37E-04,  avg # of iterations =  1.7

     total cpu time spent up to now is        1.8 secs

     total energy              =    -774.88818025 Ry
     Harris-Foulkes estimate   =    -774.89025164 Ry
     estimated scf accuracy    <       0.00282797 Ry

     iteration #  4     ecut=    75.00 Ry     beta= 0.70
     Davidson diagonalization with overlap
     ethr =  2.57E-05,  avg # of iterations =  3.7

     total cpu time spent up to now is        2.0 secs

     total energy              =    -774.88794002 Ry
     Harris-Foulkes estimate   =    -774.89108258 Ry
     estimated scf accuracy    <       0.00768846 Ry

     iteration #  5     ecut=    75.00 Ry     beta= 0.70
     Davidson diagonalization with overlap
     ethr =  2.57E-05,  avg # of iterations =  2.0

     total cpu time spent up to now is        2.2 secs

     total energy              =    -774.89009955 Ry
     Harris-Foulkes estimate   =    -774.89014797 Ry
     estimated scf accuracy    <       0.00060089 Ry

     iteration #  6     ecut=    75.00 Ry     beta= 0.70
     Davidson diagonalization with overlap
     ethr =  5.46E-06,  avg # of iterations =  2.0

     total cpu time spent up to now is        2.3 secs

     total energy              =    -774.89001623 Ry
     Harris-Foulkes estimate   =    -774.89014770 Ry
     estimated scf accuracy    <       0.00049096 Ry

     iteration #  7     ecut=    75.00 Ry     beta= 0.70
     Davidson diagonalization with overlap
     ethr =  4.46E-06,  avg # of iterations =  1.0

     total cpu time spent up to now is        2.5 secs

     total energy              =    -774.88997882 Ry
     Harris-Foulkes estimate   =    -774.89003369 Ry
     estimated scf accuracy    <       0.00014467 Ry

     iteration #  8     ecut=    75.00 Ry     beta= 0.70
     Davidson diagonalization with overlap
     ethr =  1.32E-06,  avg # of iterations =  1.3

     total cpu time spent up to now is        2.7 secs

     total energy              =    -774.89000047 Ry
     Harris-Foulkes estimate   =    -774.89000087 Ry
     estimated scf accuracy    <       0.00000411 Ry

     iteration #  9     ecut=    75.00 Ry     beta= 0.70
     Davidson diagonalization with overlap
     ethr =  3.74E-08,  avg # of iterations =  3.7

     total cpu time spent up to now is        2.9 secs

     total energy              =    -774.89000386 Ry
     Harris-Foulkes estimate   =    -774.89000380 Ry
     estimated scf accuracy    <       0.00000362 Ry

     iteration # 10     ecut=    75.00 Ry     beta= 0.70
     Davidson diagonalization with overlap
     ethr =  3.29E-08,  avg # of iterations =  1.0

     total cpu time spent up to now is        3.0 secs

     total energy              =    -774.89000354 Ry
     Harris-Foulkes estimate   =    -774.89000388 Ry
     estimated scf accuracy    <       0.00000400 Ry

     iteration # 11     ecut=    75.00 Ry     beta= 0.70
     Davidson diagonalization with overlap
     ethr =  3.29E-08,  avg # of iterations =  1.0

     total cpu time spent up to now is        3.2 secs

     total energy              =    -774.89000332 Ry
     Harris-Foulkes estimate   =    -774.89000442 Ry
     estimated scf accuracy    <       0.00000569 Ry

     iteration # 12     ecut=    75.00 Ry     beta= 0.70
     Davidson diagonalization with overlap
     ethr =  3.29E-08,  avg # of iterations =  1.0

     total cpu time spent up to now is        3.3 secs

     total energy              =    -774.89000319 Ry
     Harris-Foulkes estimate   =    -774.89000347 Ry
     estimated scf accuracy    <       0.00000230 Ry

     iteration # 13     ecut=    75.00 Ry     beta= 0.70
     Davidson diagonalization with overlap
     ethr =  2.09E-08,  avg # of iterations =  1.0

     total cpu time spent up to now is        3.5 secs

     total energy              =    -774.89000259 Ry
     Harris-Foulkes estimate   =    -774.89000321 Ry
     estimated scf accuracy    <       0.00000144 Ry

     iteration # 14     ecut=    75.00 Ry     beta= 0.70
     Davidson diagonalization with overlap
     ethr =  1.31E-08,  avg # of iterations =  1.0

     total cpu time spent up to now is        3.7 secs

     End of self-consistent calculation

          k = 0.0000 0.0000 0.0000 (  1243 PWs)   bands (ev):

     6.1043  11.6941  11.6941  11.6941  13.3091  13.3091  31.3213  35.2685
    35.2685  35.2685

          k = 0.5000-0.5000 0.5000 (  1260 PWs)   bands (ev):

     8.8675  11.6648  11.6648  14.5409  14.5409  15.0098  19.4022  30.5974
    33.6850  33.6850

          k = 0.0000-1.0000 0.0000 (  1234 PWs)   bands (ev):

     9.1724   9.5303  14.5148  14.8644  14.8644  17.0387  22.0543  26.2686
    26.2686  33.3151

     the Fermi energy is    15.0804 ev

!    total energy              =    -774.89000283 Ry
     Harris-Foulkes estimate   =    -774.89000283 Ry
     estimated scf accuracy    <          2.7E-09 Ry

     total all-electron energy =    -38023.736094 Ry

     The total energy is the sum of the following terms:

     one-electron contribution =      13.93493946 Ry
     hartree contribution      =       7.94773837 Ry
     xc contribution           =     -32.25269441 Ry
     ewald contribution        =     -71.95438534 Ry
     one-center paw contrib.   =    -692.56310618 Ry
     smearing contrib. (-TS)   =      -0.00249474 Ry

     convergence has been achieved in  14 iterations

     Forces acting on atoms (cartesian axes, Ry/au):

     atom    1 type  1   force =     0.00000000    0.00000000    0.00000000

     Total force =     0.000000     Total SCF correction =     0.000000


     Computing stress (Cartesian axis) and pressure

          total   stress  (Ry/bohr**3)                   (kbar)     P=  591.71
   0.00402239  -0.00000000  -0.00000000        591.71     -0.00     -0.00
  -0.00000000   0.00402239   0.00000000         -0.00    591.71      0.00
  -0.00000000   0.00000000   0.00402239         -0.00      0.00    591.71


     Writing output data file Au.save/

     init_run     :      0.33s CPU      0.35s WALL (       1 calls)
     electrons    :      2.20s CPU      2.49s WALL (       1 calls)
     forces       :      0.03s CPU      0.03s WALL (       1 calls)
     stress       :      0.10s CPU      0.10s WALL (       1 calls)

     Called by init_run:
     wfcinit      :      0.01s CPU      0.01s WALL (       1 calls)
     potinit      :      0.11s CPU      0.13s WALL (       1 calls)
     hinit0       :      0.17s CPU      0.18s WALL (       1 calls)

     Called by electrons:
     c_bands      :      0.41s CPU      0.45s WALL (      15 calls)
     sum_band     :      0.24s CPU      0.25s WALL (      15 calls)
     v_of_rho     :      0.09s CPU      0.09s WALL (      15 calls)
     newd         :      0.15s CPU      0.17s WALL (      15 calls)
     PAW_pot      :      1.41s CPU      1.62s WALL (      15 calls)
     mix_rho      :      0.01s CPU      0.01s WALL (      15 calls)

     Called by c_bands:
     init_us_2    :      0.02s CPU      0.02s WALL (      99 calls)
     cegterg      :      0.39s CPU      0.43s WALL (      45 calls)

     Called by sum_band:
     sum_band:bec :      0.00s CPU      0.00s WALL (      45 calls)
     addusdens    :      0.14s CPU      0.14s WALL (      15 calls)

     Called by *egterg:
     h_psi        :      0.30s CPU      0.34s WALL (     149 calls)
     s_psi        :      0.01s CPU      0.01s WALL (     149 calls)
     g_psi        :      0.00s CPU      0.00s WALL (     101 calls)
     cdiaghg      :      0.03s CPU      0.03s WALL (     143 calls)

     Called by h_psi:
     h_psi:pot    :      0.30s CPU      0.33s WALL (     149 calls)
     h_psi:calbec :      0.02s CPU      0.02s WALL (     149 calls)
     vloc_psi     :      0.27s CPU      0.30s WALL (     149 calls)
     add_vuspsi   :      0.01s CPU      0.01s WALL (     149 calls)

     General routines
     calbec       :      0.02s CPU      0.03s WALL (     209 calls)
     fft          :      0.04s CPU      0.05s WALL (     192 calls)
     ffts         :      0.00s CPU      0.00s WALL (      15 calls)
     fftw         :      0.30s CPU      0.34s WALL (    2632 calls)

     Parallel routines
     fft_scatt_xy :      0.03s CPU      0.04s WALL (    2839 calls)
     fft_scatt_yz :      0.11s CPU      0.12s WALL (    2839 calls)

     PWSCF        :     3.54s CPU         3.88s WALL


   This run was terminated on:  12:13:22  26Mar2024            

=------------------------------------------------------------------------------=
   JOB DONE.
=------------------------------------------------------------------------------=
