
     Program PWSCF v.6.3MaX starts on 26Mar2024 at 12:28:56 

     This program is part of the open-source Quantum ESPRESSO suite
     for quantum simulation of materials; please cite
         "P. Giannozzi et al., J. Phys.:Condens. Matter 21 395502 (2009);
         "P. Giannozzi et al., J. Phys.:Condens. Matter 29 465901 (2017);
          URL http://www.quantum-espresso.org", 
     in publications or presentations arising from this work. More details at
     http://www.quantum-espresso.org/quote

     Parallel version (MPI), running on     5 processors

     MPI processes distributed on     1 nodes
     R & G space division:  proc/nbgrp/npool/nimage =       5
     Waiting for input...
     Reading input from standard input

     Current dimensions of program PWSCF are:
     Max number of different atomic species (ntypx) = 10
     Max number of k-points (npk) =  40000
     Max angular momentum in pseudopotentials (lmaxx) =  3
               file Au.pbesol-n-kjpaw_psl.1.0.0.UPF: wavefunction(s)  6S 5D renormalized

     Subspace diagonalization in iterative solution of the eigenvalue problem:
     a serial algorithm will be used


     Parallelization info
     --------------------
     sticks:   dense  smooth     PW     G-vecs:    dense   smooth      PW
     Min         137     137     42                 2407     2407     397
     Max         137     137     43                 2409     2409     398
     Sum         685     685    211                12039    12039    1989



     bravais-lattice index     =            2
     lattice parameter (alat)  =       7.7100  a.u.
     unit-cell volume          =     114.5785 (a.u.)^3
     number of atoms/cell      =            1
     number of atomic types    =            1
     number of electrons       =        11.00
     number of Kohn-Sham states=           10
     kinetic-energy cutoff     =      85.0000  Ry
     charge density cutoff     =     340.0000  Ry
     convergence threshold     =      1.0E-08
     mixing beta               =       0.7000
     number of iterations used =            8  plain     mixing
     Exchange-correlation      = SLA PW PSX PSC ( 1  4 10  8 0 0)

     celldm(1)=   7.710000  celldm(2)=   0.000000  celldm(3)=   0.000000
     celldm(4)=   0.000000  celldm(5)=   0.000000  celldm(6)=   0.000000

     crystal axes: (cart. coord. in units of alat)
               a(1) = (  -0.500000   0.000000   0.500000 )  
               a(2) = (   0.000000   0.500000   0.500000 )  
               a(3) = (  -0.500000   0.500000   0.000000 )  

     reciprocal axes: (cart. coord. in units 2 pi/alat)
               b(1) = ( -1.000000 -1.000000  1.000000 )  
               b(2) = (  1.000000  1.000000  1.000000 )  
               b(3) = ( -1.000000  1.000000 -1.000000 )  


     PseudoPot. # 1 for Au read from file:
     /home/lorenzo/pseudos/Au/Au.pbesol-n-kjpaw_psl.1.0.0.UPF
     MD5 check sum: abc371be705c47a6b6a6b4088b452d3e
     Pseudo is Projector augmented-wave + core cor, Zval = 11.0
     Generated using "atomic" code by A. Dal Corso v.6.3
     Shape of augmentation charge: PSQ
     Using radial grid of 1279 points,  6 beta functions with: 
                l(1) =   0
                l(2) =   0
                l(3) =   1
                l(4) =   1
                l(5) =   2
                l(6) =   2
     Q(r) pseudized with 0 coefficients 


     atomic species   valence    mass     pseudopotential
        Au            11.00   196.96600     Au( 1.00)

     48 Sym. Ops., with inversion, found



   Cartesian axes

     site n.     atom                  positions (alat units)
         1           Au  tau(   1) = (   0.0000000   0.0000000   0.0000000  )

     number of k points=     8  gaussian smearing, width (Ry)=  0.0100
                       cart. coord. in units 2pi/alat
        k(    1) = (   0.0000000   0.0000000   0.0000000), wk =   0.0312500
        k(    2) = (  -0.2500000   0.2500000  -0.2500000), wk =   0.2500000
        k(    3) = (   0.5000000  -0.5000000   0.5000000), wk =   0.1250000
        k(    4) = (   0.0000000   0.5000000   0.0000000), wk =   0.1875000
        k(    5) = (   0.7500000  -0.2500000   0.7500000), wk =   0.7500000
        k(    6) = (   0.5000000   0.0000000   0.5000000), wk =   0.3750000
        k(    7) = (   0.0000000  -1.0000000   0.0000000), wk =   0.0937500
        k(    8) = (  -0.5000000  -1.0000000   0.0000000), wk =   0.1875000

     Dense  grid:    12039 G-vectors     FFT dimensions: (  32,  32,  32)

     Estimated max dynamical RAM per process >      11.20 MB

     Estimated total dynamical RAM >      55.98 MB

     Initial potential from superposition of free atoms

     starting charge   10.99990, renormalised to   11.00000
     Starting wfcs are    9 randomized atomic wfcs +    1 random wfcs
     Checking if some PAW data can be deallocated... 

     total cpu time spent up to now is        1.3 secs

     Self-consistent Calculation

     iteration #  1     ecut=    85.00 Ry     beta= 0.70
     Davidson diagonalization with overlap
     ethr =  1.00E-02,  avg # of iterations =  6.8

     Threshold (ethr) on eigenvalues was too large:
     Diagonalizing with lowered threshold

     Davidson diagonalization with overlap
     ethr =  5.42E-04,  avg # of iterations =  1.8

     total cpu time spent up to now is        1.7 secs

     total energy              =    -764.64438751 Ry
     Harris-Foulkes estimate   =    -764.68707135 Ry
     estimated scf accuracy    <       0.06181035 Ry

     iteration #  2     ecut=    85.00 Ry     beta= 0.70
     Davidson diagonalization with overlap
     ethr =  5.62E-04,  avg # of iterations =  2.9

     negative rho (up, down):  4.167E-03 0.000E+00

     total cpu time spent up to now is        2.0 secs

     total energy              =    -764.66319308 Ry
     Harris-Foulkes estimate   =    -764.67398027 Ry
     estimated scf accuracy    <       0.02044776 Ry

     iteration #  3     ecut=    85.00 Ry     beta= 0.70
     Davidson diagonalization with overlap
     ethr =  1.86E-04,  avg # of iterations =  2.0

     negative rho (up, down):  1.168E-02 0.000E+00

     total cpu time spent up to now is        2.2 secs

     total energy              =    -764.66718549 Ry
     Harris-Foulkes estimate   =    -764.66699519 Ry
     estimated scf accuracy    <       0.00305880 Ry

     iteration #  4     ecut=    85.00 Ry     beta= 0.70
     Davidson diagonalization with overlap
     ethr =  2.78E-05,  avg # of iterations =  3.1

     negative rho (up, down):  5.707E-03 0.000E+00

     total cpu time spent up to now is        2.4 secs

     total energy              =    -764.66759539 Ry
     Harris-Foulkes estimate   =    -764.66784553 Ry
     estimated scf accuracy    <       0.00875546 Ry

     iteration #  5     ecut=    85.00 Ry     beta= 0.70
     Davidson diagonalization with overlap
     ethr =  2.78E-05,  avg # of iterations =  2.2

     total cpu time spent up to now is        2.7 secs

     total energy              =    -764.66665825 Ry
     Harris-Foulkes estimate   =    -764.66803938 Ry
     estimated scf accuracy    <       0.00570961 Ry

     iteration #  6     ecut=    85.00 Ry     beta= 0.70
     Davidson diagonalization with overlap
     ethr =  2.78E-05,  avg # of iterations =  2.5

     negative rho (up, down):  1.122E-02 0.000E+00

     total cpu time spent up to now is        3.0 secs

     total energy              =    -764.66631210 Ry
     Harris-Foulkes estimate   =    -764.66705195 Ry
     estimated scf accuracy    <       0.00293651 Ry

     iteration #  7     ecut=    85.00 Ry     beta= 0.70
     Davidson diagonalization with overlap
     ethr =  2.67E-05,  avg # of iterations =  2.5

     negative rho (up, down):  3.216E-02 0.000E+00

     total cpu time spent up to now is        3.2 secs

     total energy              =    -764.66651305 Ry
     Harris-Foulkes estimate   =    -764.66670810 Ry
     estimated scf accuracy    <       0.00060262 Ry

     iteration #  8     ecut=    85.00 Ry     beta= 0.70
     Davidson diagonalization with overlap
     ethr =  5.48E-06,  avg # of iterations =  3.5

     negative rho (up, down):  1.319E-01 0.000E+00

     total cpu time spent up to now is        3.5 secs

     total energy              =    -764.66653307 Ry
     Harris-Foulkes estimate   =    -764.66668587 Ry
     estimated scf accuracy    <       0.00033832 Ry

     iteration #  9     ecut=    85.00 Ry     beta= 0.70
     Davidson diagonalization with overlap
     ethr =  3.08E-06,  avg # of iterations =  3.9

     negative rho (up, down):  1.278E-02 0.000E+00

     total cpu time spent up to now is        3.8 secs

     total energy              =    -764.66515309 Ry
     Harris-Foulkes estimate   =    -764.66715786 Ry
     estimated scf accuracy    <       0.00615649 Ry

     iteration # 10     ecut=    85.00 Ry     beta= 0.70
     Davidson diagonalization with overlap
     ethr =  3.08E-06,  avg # of iterations =  4.4

     negative rho (up, down):  2.671E-02 0.000E+00

     total cpu time spent up to now is        4.1 secs

     total energy              =    -764.66658765 Ry
     Harris-Foulkes estimate   =    -764.66667965 Ry
     estimated scf accuracy    <       0.00031017 Ry

     iteration # 11     ecut=    85.00 Ry     beta= 0.70
     Davidson diagonalization with overlap
     ethr =  2.82E-06,  avg # of iterations =  3.2

     negative rho (up, down):  1.004E-02 0.000E+00

     total cpu time spent up to now is        4.3 secs

     total energy              =    -764.66657928 Ry
     Harris-Foulkes estimate   =    -764.66666388 Ry
     estimated scf accuracy    <       0.00009348 Ry

     iteration # 12     ecut=    85.00 Ry     beta= 0.70
     Davidson diagonalization with overlap
     ethr =  8.50E-07,  avg # of iterations =  4.0

     negative rho (up, down):  1.425E-02 0.000E+00

     total cpu time spent up to now is        4.6 secs

     total energy              =    -764.66666372 Ry
     Harris-Foulkes estimate   =    -764.66669505 Ry
     estimated scf accuracy    <       0.00050628 Ry

     iteration # 13     ecut=    85.00 Ry     beta= 0.70
     Davidson diagonalization with overlap
     ethr =  8.50E-07,  avg # of iterations =  2.0

     negative rho (up, down):  1.509E-02 0.000E+00

     total cpu time spent up to now is        4.9 secs

     total energy              =    -764.66666814 Ry
     Harris-Foulkes estimate   =    -764.66667211 Ry
     estimated scf accuracy    <       0.00022009 Ry

     iteration # 14     ecut=    85.00 Ry     beta= 0.70
     Davidson diagonalization with overlap
     ethr =  8.50E-07,  avg # of iterations =  1.0

     negative rho (up, down):  1.866E-02 0.000E+00

     total cpu time spent up to now is        5.1 secs

     total energy              =    -764.66665032 Ry
     Harris-Foulkes estimate   =    -764.66666863 Ry
     estimated scf accuracy    <       0.00019703 Ry

     iteration # 15     ecut=    85.00 Ry     beta= 0.70
     Davidson diagonalization with overlap
     ethr =  8.50E-07,  avg # of iterations =  2.5

     negative rho (up, down):  2.287E-02 0.000E+00

     total cpu time spent up to now is        5.3 secs

     total energy              =    -764.66665224 Ry
     Harris-Foulkes estimate   =    -764.66665930 Ry
     estimated scf accuracy    <       0.00002198 Ry

     iteration # 16     ecut=    85.00 Ry     beta= 0.70
     Davidson diagonalization with overlap
     ethr =  2.00E-07,  avg # of iterations =  3.1

     negative rho (up, down):  2.130E-02 0.000E+00

     total cpu time spent up to now is        5.5 secs

     total energy              =    -764.66665778 Ry
     Harris-Foulkes estimate   =    -764.66665906 Ry
     estimated scf accuracy    <       0.00001192 Ry

     iteration # 17     ecut=    85.00 Ry     beta= 0.70
     Davidson diagonalization with overlap
     ethr =  1.08E-07,  avg # of iterations =  1.5

     negative rho (up, down):  2.057E-02 0.000E+00

     total cpu time spent up to now is        5.8 secs

     total energy              =    -764.66665807 Ry
     Harris-Foulkes estimate   =    -764.66665837 Ry
     estimated scf accuracy    <       0.00000313 Ry

     iteration # 18     ecut=    85.00 Ry     beta= 0.70
     Davidson diagonalization with overlap
     ethr =  2.85E-08,  avg # of iterations =  2.0

     negative rho (up, down):  2.034E-02 0.000E+00

     total cpu time spent up to now is        6.0 secs

     total energy              =    -764.66665830 Ry
     Harris-Foulkes estimate   =    -764.66665833 Ry
     estimated scf accuracy    <       0.00000038 Ry

     iteration # 19     ecut=    85.00 Ry     beta= 0.70
     Davidson diagonalization with overlap
     ethr =  3.45E-09,  avg # of iterations =  3.2

     negative rho (up, down):  2.043E-02 0.000E+00

     total cpu time spent up to now is        6.2 secs

     total energy              =    -764.66665840 Ry
     Harris-Foulkes estimate   =    -764.66665840 Ry
     estimated scf accuracy    <       0.00000002 Ry

     iteration # 20     ecut=    85.00 Ry     beta= 0.70
     Davidson diagonalization with overlap
     ethr =  2.22E-10,  avg # of iterations =  2.9

     negative rho (up, down):  2.067E-02 0.000E+00

     total cpu time spent up to now is        6.5 secs

     total energy              =    -764.66665839 Ry
     Harris-Foulkes estimate   =    -764.66665840 Ry
     estimated scf accuracy    <       0.00000002 Ry

     iteration # 21     ecut=    85.00 Ry     beta= 0.70
     Davidson diagonalization with overlap
     ethr =  1.89E-10,  avg # of iterations =  2.9

     negative rho (up, down):  2.068E-02 0.000E+00

     total cpu time spent up to now is        6.7 secs

     total energy              =    -764.66665840 Ry
     Harris-Foulkes estimate   =    -764.66665840 Ry
     estimated scf accuracy    <       0.00000007 Ry

     iteration # 22     ecut=    85.00 Ry     beta= 0.70
     Davidson diagonalization with overlap
     ethr =  1.89E-10,  avg # of iterations =  1.0

     negative rho (up, down):  2.053E-02 0.000E+00

     total cpu time spent up to now is        6.9 secs

     total energy              =    -764.66665839 Ry
     Harris-Foulkes estimate   =    -764.66665840 Ry
     estimated scf accuracy    <       0.00000007 Ry

     iteration # 23     ecut=    85.00 Ry     beta= 0.70
     Davidson diagonalization with overlap
     ethr =  1.89E-10,  avg # of iterations =  2.1

     negative rho (up, down):  2.059E-02 0.000E+00

     total cpu time spent up to now is        7.1 secs

     End of self-consistent calculation

          k = 0.0000 0.0000 0.0000 (  1459 PWs)   bands (ev):

     5.8128  11.0790  11.0790  11.0790  12.6205  12.6205  31.1272  34.9891
    34.9891  34.9891

          k =-0.2500 0.2500-0.2500 (  1507 PWs)   bands (ev):

     7.6261  10.9316  11.3648  11.3648  12.7881  12.7881  27.1220  32.1111
    35.9703  35.9703

          k = 0.5000-0.5000 0.5000 (  1502 PWs)   bands (ev):

     8.4158  11.0451  11.0451  13.8308  13.8308  14.7377  18.8944  30.4165
    33.3299  33.3299

          k = 0.0000 0.5000 0.0000 (  1491 PWs)   bands (ev):

     8.2498   9.9474  11.7748  12.3264  12.3264  13.1761  30.7934  30.7934
    31.6952  32.8576

          k = 0.7500-0.2500 0.7500 (  1515 PWs)   bands (ev):

     9.2857  10.2063  11.4132  12.2803  13.9217  16.7997  21.2326  27.1918
    29.3629  32.9955

          k = 0.5000 0.0000 0.5000 (  1522 PWs)   bands (ev):

     9.6287  10.5304  10.8741  12.0167  12.6086  15.4991  24.3087  26.1533
    32.7400  33.8524

          k = 0.0000-1.0000 0.0000 (  1524 PWs)   bands (ev):

     8.6558   9.0012  13.7774  14.1662  14.1662  16.7408  21.4368  25.9423
    25.9423  32.4876

          k =-0.5000-1.0000 0.0000 (  1540 PWs)   bands (ev):

     9.7807  10.5973  10.5973  12.4694  14.1682  20.4970  22.1298  22.1298
    24.9189  39.4547

     the Fermi energy is    16.6175 ev

!    total energy              =    -764.66665840 Ry
     Harris-Foulkes estimate   =    -764.66665840 Ry
     estimated scf accuracy    <          2.9E-09 Ry

     total all-electron energy =    -38013.501121 Ry

     The total energy is the sum of the following terms:

     one-electron contribution =      13.88331372 Ry
     hartree contribution      =       7.57742904 Ry
     xc contribution           =     -31.82947848 Ry
     ewald contribution        =     -71.95438534 Ry
     one-center paw contrib.   =    -682.34306853 Ry
     smearing contrib. (-TS)   =      -0.00046881 Ry

     convergence has been achieved in  23 iterations

     negative rho (up, down):  2.059E-02 0.000E+00

     Forces acting on atoms (cartesian axes, Ry/au):

     atom    1 type  1   force =     0.00000000    0.00000000    0.00000000

     Total force =     0.000000     Total SCF correction =     0.000000


     Computing stress (Cartesian axis) and pressure


     negative rho (up, down):  2.059E-02 0.000E+00
          total   stress  (Ry/bohr**3)                   (kbar)     P=   41.67
   0.00028326   0.00000000   0.00000000         41.67      0.00      0.00
   0.00000000   0.00028326   0.00000000          0.00     41.67      0.00
   0.00000000   0.00000000   0.00028326          0.00      0.00     41.67


     Writing output data file Au.save/

     init_run     :      0.38s CPU      0.40s WALL (       1 calls)
     electrons    :      5.55s CPU      5.78s WALL (       1 calls)
     forces       :      0.05s CPU      0.06s WALL (       1 calls)
     stress       :      0.13s CPU      0.13s WALL (       1 calls)

     Called by init_run:
     wfcinit      :      0.03s CPU      0.03s WALL (       1 calls)
     potinit      :      0.12s CPU      0.13s WALL (       1 calls)
     hinit0       :      0.20s CPU      0.20s WALL (       1 calls)

     Called by electrons:
     c_bands      :      2.08s CPU      2.21s WALL (      24 calls)
     sum_band     :      0.66s CPU      0.70s WALL (      24 calls)
     v_of_rho     :      0.16s CPU      0.17s WALL (      24 calls)
     newd         :      0.28s CPU      0.29s WALL (      24 calls)
     PAW_pot      :      2.44s CPU      2.50s WALL (      24 calls)
     mix_rho      :      0.03s CPU      0.03s WALL (      24 calls)

     Called by c_bands:
     init_us_2    :      0.07s CPU      0.08s WALL (     408 calls)
     cegterg      :      1.97s CPU      2.10s WALL (     192 calls)

     Called by sum_band:
     sum_band:bec :      0.00s CPU      0.00s WALL (     192 calls)
     addusdens    :      0.27s CPU      0.28s WALL (      24 calls)

     Called by *egterg:
     h_psi        :      1.46s CPU      1.58s WALL (     736 calls)
     s_psi        :      0.06s CPU      0.06s WALL (     736 calls)
     g_psi        :      0.01s CPU      0.01s WALL (     536 calls)
     cdiaghg      :      0.16s CPU      0.16s WALL (     720 calls)

     Called by h_psi:
     h_psi:pot    :      1.45s CPU      1.57s WALL (     736 calls)
     h_psi:calbec :      0.09s CPU      0.09s WALL (     736 calls)
     vloc_psi     :      1.30s CPU      1.41s WALL (     736 calls)
     add_vuspsi   :      0.06s CPU      0.06s WALL (     736 calls)

     General routines
     calbec       :      0.12s CPU      0.13s WALL (     968 calls)
     fft          :      0.08s CPU      0.08s WALL (     291 calls)
     ffts         :      0.00s CPU      0.00s WALL (      24 calls)
     fftw         :      1.44s CPU      1.56s WALL (   12104 calls)

     Parallel routines
     fft_scatt_xy :      0.14s CPU      0.16s WALL (   12419 calls)
     fft_scatt_yz :      0.50s CPU      0.54s WALL (   12419 calls)

     PWSCF        :     7.05s CPU         7.35s WALL


   This run was terminated on:  12:29: 4  26Mar2024            

=------------------------------------------------------------------------------=
   JOB DONE.
=------------------------------------------------------------------------------=
