
     Program PWSCF v.6.3MaX starts on 26Mar2024 at 11:37:51 

     This program is part of the open-source Quantum ESPRESSO suite
     for quantum simulation of materials; please cite
         "P. Giannozzi et al., J. Phys.:Condens. Matter 21 395502 (2009);
         "P. Giannozzi et al., J. Phys.:Condens. Matter 29 465901 (2017);
          URL http://www.quantum-espresso.org", 
     in publications or presentations arising from this work. More details at
     http://www.quantum-espresso.org/quote

     Parallel version (MPI), running on     5 processors

     MPI processes distributed on     1 nodes
     R & G space division:  proc/nbgrp/npool/nimage =       5
     Waiting for input...
     Reading input from standard input

     Current dimensions of program PWSCF are:
     Max number of different atomic species (ntypx) = 10
     Max number of k-points (npk) =  40000
     Max angular momentum in pseudopotentials (lmaxx) =  3
               file Au.pbe-n-kjpaw_psl.1.0.0.UPF: wavefunction(s)  6S 5D renormalized

     Subspace diagonalization in iterative solution of the eigenvalue problem:
     a serial algorithm will be used


     Parallelization info
     --------------------
     sticks:   dense  smooth     PW     G-vecs:    dense   smooth      PW
     Min          73      73     24                  928      928     173
     Max          74      74     25                  930      930     174
     Sum         367     367    121                 4645     4645     869



     bravais-lattice index     =            2
     lattice parameter (alat)  =       7.7100  a.u.
     unit-cell volume          =     114.5785 (a.u.)^3
     number of atoms/cell      =            1
     number of atomic types    =            1
     number of electrons       =        11.00
     number of Kohn-Sham states=           10
     kinetic-energy cutoff     =      45.0000  Ry
     charge density cutoff     =     180.0000  Ry
     convergence threshold     =      1.0E-08
     mixing beta               =       0.7000
     number of iterations used =            8  plain     mixing
     Exchange-correlation      = SLA PW PBX PBC ( 1  4  3  4 0 0)

     celldm(1)=   7.710000  celldm(2)=   0.000000  celldm(3)=   0.000000
     celldm(4)=   0.000000  celldm(5)=   0.000000  celldm(6)=   0.000000

     crystal axes: (cart. coord. in units of alat)
               a(1) = (  -0.500000   0.000000   0.500000 )  
               a(2) = (   0.000000   0.500000   0.500000 )  
               a(3) = (  -0.500000   0.500000   0.000000 )  

     reciprocal axes: (cart. coord. in units 2 pi/alat)
               b(1) = ( -1.000000 -1.000000  1.000000 )  
               b(2) = (  1.000000  1.000000  1.000000 )  
               b(3) = ( -1.000000  1.000000 -1.000000 )  


     PseudoPot. # 1 for Au read from file:
     /home/lorenzo/pseudos/Au/Au.pbe-n-kjpaw_psl.1.0.0.UPF
     MD5 check sum: 4db85c736373c707a97ce4c36c2a9d23
     Pseudo is Projector augmented-wave + core cor, Zval = 11.0
     Generated using "atomic" code by A. Dal Corso v.6.3
     Shape of augmentation charge: PSQ
     Using radial grid of 1279 points,  6 beta functions with: 
                l(1) =   0
                l(2) =   0
                l(3) =   1
                l(4) =   1
                l(5) =   2
                l(6) =   2
     Q(r) pseudized with 0 coefficients 


     atomic species   valence    mass     pseudopotential
        Au            11.00   196.96600     Au( 1.00)

     48 Sym. Ops., with inversion, found



   Cartesian axes

     site n.     atom                  positions (alat units)
         1           Au  tau(   1) = (   0.0000000   0.0000000   0.0000000  )

     number of k points=     8  gaussian smearing, width (Ry)=  0.0100
                       cart. coord. in units 2pi/alat
        k(    1) = (   0.0000000   0.0000000   0.0000000), wk =   0.0312500
        k(    2) = (  -0.2500000   0.2500000  -0.2500000), wk =   0.2500000
        k(    3) = (   0.5000000  -0.5000000   0.5000000), wk =   0.1250000
        k(    4) = (   0.0000000   0.5000000   0.0000000), wk =   0.1875000
        k(    5) = (   0.7500000  -0.2500000   0.7500000), wk =   0.7500000
        k(    6) = (   0.5000000   0.0000000   0.5000000), wk =   0.3750000
        k(    7) = (   0.0000000  -1.0000000   0.0000000), wk =   0.0937500
        k(    8) = (  -0.5000000  -1.0000000   0.0000000), wk =   0.1875000

     Dense  grid:     4645 G-vectors     FFT dimensions: (  24,  24,  24)

     Estimated max dynamical RAM per process >       4.95 MB

     Estimated total dynamical RAM >      24.75 MB

     Initial potential from superposition of free atoms

     starting charge   10.99989, renormalised to   11.00000
     Starting wfcs are    9 randomized atomic wfcs +    1 random wfcs
     Checking if some PAW data can be deallocated... 

     total cpu time spent up to now is        1.2 secs

     Self-consistent Calculation

     iteration #  1     ecut=    45.00 Ry     beta= 0.70
     Davidson diagonalization with overlap
     ethr =  1.00E-02,  avg # of iterations =  6.4

     Threshold (ethr) on eigenvalues was too large:
     Diagonalizing with lowered threshold

     Davidson diagonalization with overlap
     ethr =  4.66E-04,  avg # of iterations =  2.0

     total cpu time spent up to now is        1.5 secs

     total energy              =    -775.10242706 Ry
     Harris-Foulkes estimate   =    -775.13755908 Ry
     estimated scf accuracy    <       0.05186915 Ry

     iteration #  2     ecut=    45.00 Ry     beta= 0.70
     Davidson diagonalization with overlap
     ethr =  4.72E-04,  avg # of iterations =  2.9

     total cpu time spent up to now is        1.7 secs

     total energy              =    -775.11792111 Ry
     Harris-Foulkes estimate   =    -775.12674650 Ry
     estimated scf accuracy    <       0.01438230 Ry

     iteration #  3     ecut=    45.00 Ry     beta= 0.70
     Davidson diagonalization with overlap
     ethr =  1.31E-04,  avg # of iterations =  2.2

     total cpu time spent up to now is        1.9 secs

     total energy              =    -775.12109059 Ry
     Harris-Foulkes estimate   =    -775.12111191 Ry
     estimated scf accuracy    <       0.00021741 Ry

     iteration #  4     ecut=    45.00 Ry     beta= 0.70
     Davidson diagonalization with overlap
     ethr =  1.98E-06,  avg # of iterations =  3.5

     total cpu time spent up to now is        2.1 secs

     total energy              =    -775.12129163 Ry
     Harris-Foulkes estimate   =    -775.12136538 Ry
     estimated scf accuracy    <       0.00015464 Ry

     iteration #  5     ecut=    45.00 Ry     beta= 0.70
     Davidson diagonalization with overlap
     ethr =  1.41E-06,  avg # of iterations =  1.0

     total cpu time spent up to now is        2.2 secs

     total energy              =    -775.12129879 Ry
     Harris-Foulkes estimate   =    -775.12130612 Ry
     estimated scf accuracy    <       0.00001595 Ry

     iteration #  6     ecut=    45.00 Ry     beta= 0.70
     Davidson diagonalization with overlap
     ethr =  1.45E-07,  avg # of iterations =  3.0

     total cpu time spent up to now is        2.4 secs

     total energy              =    -775.12130368 Ry
     Harris-Foulkes estimate   =    -775.12130405 Ry
     estimated scf accuracy    <       0.00000044 Ry

     iteration #  7     ecut=    45.00 Ry     beta= 0.70
     Davidson diagonalization with overlap
     ethr =  4.03E-09,  avg # of iterations =  3.6

     total cpu time spent up to now is        2.6 secs

     total energy              =    -775.12130399 Ry
     Harris-Foulkes estimate   =    -775.12130402 Ry
     estimated scf accuracy    <       0.00000007 Ry

     iteration #  8     ecut=    45.00 Ry     beta= 0.70
     Davidson diagonalization with overlap
     ethr =  6.13E-10,  avg # of iterations =  1.9

     total cpu time spent up to now is        2.8 secs

     End of self-consistent calculation

          k = 0.0000 0.0000 0.0000 (   561 PWs)   bands (ev):

     6.0712  11.2662  11.2662  11.2662  12.7947  12.7947  31.3842  35.2443
    35.2443  35.2443

          k =-0.2500 0.2500-0.2500 (   580 PWs)   bands (ev):

     7.8751  11.1332  11.5493  11.5493  12.9637  12.9637  27.2750  32.3099
    36.1434  36.1434

          k = 0.5000-0.5000 0.5000 (   580 PWs)   bands (ev):

     8.6260  11.2299  11.2299  14.0014  14.0014  14.9985  19.0634  30.6697
    33.5938  33.5938

          k = 0.0000 0.5000 0.0000 (   576 PWs)   bands (ev):

     8.5025  10.1387  11.9673  12.5086  12.5086  13.3522  30.9544  30.9544
    32.3169  33.1192

          k = 0.7500-0.2500 0.7500 (   584 PWs)   bands (ev):

     9.4922  10.4067  11.6166  12.4590  14.0911  17.0116  21.4548  27.5955
    29.6792  33.1706

          k = 0.5000 0.0000 0.5000 (   590 PWs)   bands (ev):

     9.8536  10.7271  11.0711  12.1941  12.7867  15.6942  24.6135  26.2600
    33.0608  34.4431

          k = 0.0000-1.0000 0.0000 (   588 PWs)   bands (ev):

     8.8775   9.1926  13.9583  14.3246  14.3246  17.0051  21.7740  26.2056
    26.2056  33.2063

          k =-0.5000-1.0000 0.0000 (   604 PWs)   bands (ev):

     9.9856  10.7953  10.7953  12.6501  14.3266  20.7762  22.3231  22.3231
    25.4363  39.4467

     the Fermi energy is    16.8390 ev

!    total energy              =    -775.12130400 Ry
     Harris-Foulkes estimate   =    -775.12130400 Ry
     estimated scf accuracy    <          2.3E-09 Ry

     total all-electron energy =    -38023.967395 Ry

     The total energy is the sum of the following terms:

     one-electron contribution =      13.85059994 Ry
     hartree contribution      =       7.63047116 Ry
     xc contribution           =     -32.12189103 Ry
     ewald contribution        =     -71.95438543 Ry
     one-center paw contrib.   =    -692.52561589 Ry
     smearing contrib. (-TS)   =      -0.00048276 Ry

     convergence has been achieved in   8 iterations

     Forces acting on atoms (cartesian axes, Ry/au):

     atom    1 type  1   force =     0.00000000    0.00000000    0.00000000

     Total force =     0.000000     Total SCF correction =     0.000000


     Computing stress (Cartesian axis) and pressure

          total   stress  (Ry/bohr**3)                   (kbar)     P=  127.53
   0.00086696  -0.00000000  -0.00000000        127.53     -0.00     -0.00
  -0.00000000   0.00086696   0.00000000         -0.00    127.53      0.00
  -0.00000000   0.00000000   0.00086696         -0.00      0.00    127.53


     Writing output data file Au.save/

     init_run     :      0.26s CPU      0.29s WALL (       1 calls)
     electrons    :      1.45s CPU      1.61s WALL (       1 calls)
     forces       :      0.02s CPU      0.02s WALL (       1 calls)
     stress       :      0.06s CPU      0.06s WALL (       1 calls)

     Called by init_run:
     wfcinit      :      0.01s CPU      0.02s WALL (       1 calls)
     potinit      :      0.10s CPU      0.11s WALL (       1 calls)
     hinit0       :      0.14s CPU      0.14s WALL (       1 calls)

     Called by electrons:
     c_bands      :      0.45s CPU      0.49s WALL (       9 calls)
     sum_band     :      0.12s CPU      0.13s WALL (       9 calls)
     v_of_rho     :      0.03s CPU      0.03s WALL (       9 calls)
     newd         :      0.04s CPU      0.04s WALL (       9 calls)
     PAW_pot      :      0.90s CPU      1.02s WALL (       9 calls)
     mix_rho      :      0.00s CPU      0.00s WALL (       9 calls)

     Called by c_bands:
     init_us_2    :      0.01s CPU      0.02s WALL (     168 calls)
     cegterg      :      0.43s CPU      0.47s WALL (      72 calls)

     Called by sum_band:
     sum_band:bec :      0.00s CPU      0.00s WALL (      72 calls)
     addusdens    :      0.04s CPU      0.04s WALL (       9 calls)

     Called by *egterg:
     h_psi        :      0.31s CPU      0.34s WALL (     292 calls)
     s_psi        :      0.01s CPU      0.01s WALL (     292 calls)
     g_psi        :      0.00s CPU      0.00s WALL (     212 calls)
     cdiaghg      :      0.07s CPU      0.07s WALL (     276 calls)

     Called by h_psi:
     h_psi:pot    :      0.31s CPU      0.33s WALL (     292 calls)
     h_psi:calbec :      0.02s CPU      0.02s WALL (     292 calls)
     vloc_psi     :      0.28s CPU      0.30s WALL (     292 calls)
     add_vuspsi   :      0.01s CPU      0.01s WALL (     292 calls)

     General routines
     calbec       :      0.02s CPU      0.03s WALL (     404 calls)
     fft          :      0.02s CPU      0.02s WALL (     126 calls)
     ffts         :      0.00s CPU      0.00s WALL (       9 calls)
     fftw         :      0.31s CPU      0.33s WALL (    4734 calls)

     Parallel routines
     fft_scatt_xy :      0.03s CPU      0.03s WALL (    4869 calls)
     fft_scatt_yz :      0.09s CPU      0.10s WALL (    4869 calls)

     PWSCF        :     2.68s CPU         2.91s WALL


   This run was terminated on:  11:37:54  26Mar2024            

=------------------------------------------------------------------------------=
   JOB DONE.
=------------------------------------------------------------------------------=
