
     Program PWSCF v.6.3MaX starts on 26Mar2024 at 12: 8:17 

     This program is part of the open-source Quantum ESPRESSO suite
     for quantum simulation of materials; please cite
         "P. Giannozzi et al., J. Phys.:Condens. Matter 21 395502 (2009);
         "P. Giannozzi et al., J. Phys.:Condens. Matter 29 465901 (2017);
          URL http://www.quantum-espresso.org", 
     in publications or presentations arising from this work. More details at
     http://www.quantum-espresso.org/quote

     Parallel version (MPI), running on     5 processors

     MPI processes distributed on     1 nodes
     R & G space division:  proc/nbgrp/npool/nimage =       5
     Waiting for input...
     Reading input from standard input

     Current dimensions of program PWSCF are:
     Max number of different atomic species (ntypx) = 10
     Max number of k-points (npk) =  40000
     Max angular momentum in pseudopotentials (lmaxx) =  3
               file Au.pbe-n-kjpaw_psl.1.0.0.UPF: wavefunction(s)  6S 5D renormalized

     Subspace diagonalization in iterative solution of the eigenvalue problem:
     a serial algorithm will be used


     Parallelization info
     --------------------
     sticks:   dense  smooth     PW     G-vecs:    dense   smooth      PW
     Min         116     116     37                 1836     1836     327
     Max         117     117     38                 1838     1838     329
     Sum         583     583    187                 9185     9185    1639



     bravais-lattice index     =            2
     lattice parameter (alat)  =       7.7100  a.u.
     unit-cell volume          =     114.5785 (a.u.)^3
     number of atoms/cell      =            1
     number of atomic types    =            1
     number of electrons       =        11.00
     number of Kohn-Sham states=           10
     kinetic-energy cutoff     =      70.0000  Ry
     charge density cutoff     =     280.0000  Ry
     convergence threshold     =      1.0E-08
     mixing beta               =       0.7000
     number of iterations used =            8  plain     mixing
     Exchange-correlation      = SLA PW PBX PBC ( 1  4  3  4 0 0)

     celldm(1)=   7.710000  celldm(2)=   0.000000  celldm(3)=   0.000000
     celldm(4)=   0.000000  celldm(5)=   0.000000  celldm(6)=   0.000000

     crystal axes: (cart. coord. in units of alat)
               a(1) = (  -0.500000   0.000000   0.500000 )  
               a(2) = (   0.000000   0.500000   0.500000 )  
               a(3) = (  -0.500000   0.500000   0.000000 )  

     reciprocal axes: (cart. coord. in units 2 pi/alat)
               b(1) = ( -1.000000 -1.000000  1.000000 )  
               b(2) = (  1.000000  1.000000  1.000000 )  
               b(3) = ( -1.000000  1.000000 -1.000000 )  


     PseudoPot. # 1 for Au read from file:
     /home/lorenzo/pseudos/Au/Au.pbe-n-kjpaw_psl.1.0.0.UPF
     MD5 check sum: 4db85c736373c707a97ce4c36c2a9d23
     Pseudo is Projector augmented-wave + core cor, Zval = 11.0
     Generated using "atomic" code by A. Dal Corso v.6.3
     Shape of augmentation charge: PSQ
     Using radial grid of 1279 points,  6 beta functions with: 
                l(1) =   0
                l(2) =   0
                l(3) =   1
                l(4) =   1
                l(5) =   2
                l(6) =   2
     Q(r) pseudized with 0 coefficients 


     atomic species   valence    mass     pseudopotential
        Au            11.00   196.96600     Au( 1.00)

     48 Sym. Ops., with inversion, found



   Cartesian axes

     site n.     atom                  positions (alat units)
         1           Au  tau(   1) = (   0.0000000   0.0000000   0.0000000  )

     number of k points=    20  gaussian smearing, width (Ry)=  0.0100
                       cart. coord. in units 2pi/alat
        k(    1) = (   0.0000000   0.0000000   0.0000000), wk =   0.0058309
        k(    2) = (  -0.1428571   0.1428571  -0.1428571), wk =   0.0466472
        k(    3) = (  -0.2857143   0.2857143  -0.2857143), wk =   0.0466472
        k(    4) = (  -0.4285714   0.4285714  -0.4285714), wk =   0.0466472
        k(    5) = (   0.0000000   0.2857143   0.0000000), wk =   0.0349854
        k(    6) = (  -0.1428571   0.4285714  -0.1428571), wk =   0.1399417
        k(    7) = (  -0.2857143   0.5714286  -0.2857143), wk =   0.1399417
        k(    8) = (   0.5714286  -0.2857143   0.5714286), wk =   0.1399417
        k(    9) = (   0.4285714  -0.1428571   0.4285714), wk =   0.1399417
        k(   10) = (   0.2857143  -0.0000000   0.2857143), wk =   0.0699708
        k(   11) = (   0.0000000   0.5714286   0.0000000), wk =   0.0349854
        k(   12) = (  -0.1428571   0.7142857  -0.1428571), wk =   0.1399417
        k(   13) = (   0.7142857  -0.1428571   0.7142857), wk =   0.1399417
        k(   14) = (   0.5714286   0.0000000   0.5714286), wk =   0.0699708
        k(   15) = (   0.0000000   0.8571429   0.0000000), wk =   0.0349854
        k(   16) = (   0.8571429  -0.0000000   0.8571429), wk =   0.0699708
        k(   17) = (  -0.2857143   0.5714286   0.0000000), wk =   0.1399417
        k(   18) = (   0.5714286  -0.2857143   0.8571429), wk =   0.2798834
        k(   19) = (   0.7142857  -0.1428571   1.0000000), wk =   0.1399417
        k(   20) = (   0.5714286   0.0000000   0.8571429), wk =   0.1399417

     Dense  grid:     9185 G-vectors     FFT dimensions: (  30,  30,  30)

     Estimated max dynamical RAM per process >       9.21 MB

     Estimated total dynamical RAM >      46.03 MB

     Initial potential from superposition of free atoms

     starting charge   10.99989, renormalised to   11.00000
     Starting wfcs are    9 randomized atomic wfcs +    1 random wfcs
     Checking if some PAW data can be deallocated... 

     total cpu time spent up to now is        1.3 secs

     Self-consistent Calculation

     iteration #  1     ecut=    70.00 Ry     beta= 0.70
     Davidson diagonalization with overlap
     ethr =  1.00E-02,  avg # of iterations =  5.3

     Threshold (ethr) on eigenvalues was too large:
     Diagonalizing with lowered threshold

     Davidson diagonalization with overlap
     ethr =  4.67E-04,  avg # of iterations =  1.6

     total cpu time spent up to now is        2.0 secs

     total energy              =    -775.12139707 Ry
     Harris-Foulkes estimate   =    -775.15660344 Ry
     estimated scf accuracy    <       0.05197195 Ry

     iteration #  2     ecut=    70.00 Ry     beta= 0.70
     Davidson diagonalization with overlap
     ethr =  4.72E-04,  avg # of iterations =  2.9

     total cpu time spent up to now is        2.4 secs

     total energy              =    -775.13734731 Ry
     Harris-Foulkes estimate   =    -775.14651932 Ry
     estimated scf accuracy    <       0.01508441 Ry

     iteration #  3     ecut=    70.00 Ry     beta= 0.70
     Davidson diagonalization with overlap
     ethr =  1.37E-04,  avg # of iterations =  1.9

     total cpu time spent up to now is        2.7 secs

     total energy              =    -775.14066443 Ry
     Harris-Foulkes estimate   =    -775.14069580 Ry
     estimated scf accuracy    <       0.00024313 Ry

     iteration #  4     ecut=    70.00 Ry     beta= 0.70
     Davidson diagonalization with overlap
     ethr =  2.21E-06,  avg # of iterations =  3.5

     total cpu time spent up to now is        3.2 secs

     total energy              =    -775.14091955 Ry
     Harris-Foulkes estimate   =    -775.14103830 Ry
     estimated scf accuracy    <       0.00025886 Ry

     iteration #  5     ecut=    70.00 Ry     beta= 0.70
     Davidson diagonalization with overlap
     ethr =  2.21E-06,  avg # of iterations =  1.4

     total cpu time spent up to now is        3.6 secs

     total energy              =    -775.14092346 Ry
     Harris-Foulkes estimate   =    -775.14094209 Ry
     estimated scf accuracy    <       0.00002905 Ry

     iteration #  6     ecut=    70.00 Ry     beta= 0.70
     Davidson diagonalization with overlap
     ethr =  2.64E-07,  avg # of iterations =  2.4

     total cpu time spent up to now is        3.9 secs

     total energy              =    -775.14093792 Ry
     Harris-Foulkes estimate   =    -775.14093845 Ry
     estimated scf accuracy    <       0.00000222 Ry

     iteration #  7     ecut=    70.00 Ry     beta= 0.70
     Davidson diagonalization with overlap
     ethr =  2.02E-08,  avg # of iterations =  1.9

     total cpu time spent up to now is        4.3 secs

     total energy              =    -775.14093777 Ry
     Harris-Foulkes estimate   =    -775.14093814 Ry
     estimated scf accuracy    <       0.00000090 Ry

     iteration #  8     ecut=    70.00 Ry     beta= 0.70
     Davidson diagonalization with overlap
     ethr =  8.16E-09,  avg # of iterations =  1.2

     total cpu time spent up to now is        4.6 secs

     total energy              =    -775.14093777 Ry
     Harris-Foulkes estimate   =    -775.14093785 Ry
     estimated scf accuracy    <       0.00000014 Ry

     iteration #  9     ecut=    70.00 Ry     beta= 0.70
     Davidson diagonalization with overlap
     ethr =  1.23E-09,  avg # of iterations =  3.1

     total cpu time spent up to now is        5.1 secs

     total energy              =    -775.14093784 Ry
     Harris-Foulkes estimate   =    -775.14093785 Ry
     estimated scf accuracy    <       0.00000002 Ry

     iteration # 10     ecut=    70.00 Ry     beta= 0.70
     Davidson diagonalization with overlap
     ethr =  2.02E-10,  avg # of iterations =  1.8

     total cpu time spent up to now is        5.4 secs

     End of self-consistent calculation

          k = 0.0000 0.0000 0.0000 (  1139 PWs)   bands (ev):

     6.0742  11.2747  11.2747  11.2747  12.7989  12.7989  31.3898  35.2421
    35.2421  35.2421

          k =-0.1429 0.1429-0.1429 (  1143 PWs)   bands (ev):

     6.7612  11.0909  11.4784  11.4784  12.7388  12.7388  31.2532  32.3882
    35.8558  35.8558

          k =-0.2857 0.2857-0.2857 (  1128 PWs)   bands (ev):

     8.2012  11.3853  11.5114  11.5114  13.1480  13.1480  25.8304  32.0235
    35.8120  35.8120

          k =-0.4286 0.4286-0.4286 (  1143 PWs)   bands (ev):

     8.6289  11.2754  11.2754  13.8828  13.8828  13.9778  20.4163  30.8477
    33.9179  33.9179

          k = 0.0000 0.2857 0.0000 (  1154 PWs)   bands (ev):

     6.9968  10.8231  11.7011  11.7011  12.3320  13.0037  32.3639  33.2365
    33.8908  33.8908

          k =-0.1429 0.4286-0.1429 (  1136 PWs)   bands (ev):

     8.3033  10.5509  11.5639  11.9717  12.8470  13.3725  28.1220  32.5434
    32.6618  34.7029

          k =-0.2857 0.5714-0.2857 (  1125 PWs)   bands (ev):

     9.0812  11.0504  11.5637  11.7749  13.9794  14.9191  22.3122  31.0986
    31.7788  32.9173

          k = 0.5714-0.2857 0.5714 (  1138 PWs)   bands (ev):

     9.1313  10.9479  11.6212  12.4489  13.8436  16.9241  19.3536  29.7898
    32.0022  32.7679

          k = 0.4286-0.1429 0.4286 (  1124 PWs)   bands (ev):

     9.0592  11.0914  11.4136  11.7696  12.9188  14.6565  24.2752  29.7221
    32.9034  35.9297

          k = 0.2857-0.0000 0.2857 (  1141 PWs)   bands (ev):

     7.7984  10.7840  11.6121  11.8415  12.3220  13.3472  29.4257  30.9677
    34.9409  35.7941

          k = 0.0000 0.5714 0.0000 (  1126 PWs)   bands (ev):

     8.8879   9.9229  12.1845  12.8534  12.8534  13.4868  29.9031  29.9031
    30.7957  32.5937

          k =-0.1429 0.7143-0.1429 (  1129 PWs)   bands (ev):

     9.3410   9.8378  12.1004  12.9251  14.0414  15.2194  24.6206  27.9861
    28.7004  33.5964

          k = 0.7143-0.1429 0.7143 (  1136 PWs)   bands (ev):

     9.6091  10.4121  11.7247  12.6326  13.9290  19.1472  19.9552  25.5114
    29.7101  33.3148

          k = 0.5714 0.0000 0.5714 (  1135 PWs)   bands (ev):

    10.0201  10.9155  10.9566  12.3443  13.1395  16.8062  23.6642  24.5990
    32.6612  33.0044

          k = 0.0000 0.8571 0.0000 (  1138 PWs)   bands (ev):

     8.9572   9.2876  13.9002  14.1085  14.1085  15.6092  23.5869  26.6931
    26.6931  33.0700

          k = 0.8571-0.0000 0.8571 (  1136 PWs)   bands (ev):

     9.1431   9.4991  13.2075  13.6164  14.1839  18.6150  21.2435  24.6480
    27.1128  34.0843

          k =-0.2857 0.5714 0.0000 (  1131 PWs)   bands (ev):

     9.5202  10.2605  11.1220  12.7780  12.8500  14.7458  26.1509  27.9125
    31.2873  36.3217

          k = 0.5714-0.2857 0.8571 (  1134 PWs)   bands (ev):

     9.8833  10.5437  11.1936  12.4373  13.7572  17.3330  21.4546  27.0697
    29.1690  35.1218

          k = 0.7143-0.1429 1.0000 (  1130 PWs)   bands (ev):

     9.5565   9.7961  12.0318  13.3462  14.1034  17.8816  22.7927  25.1771
    26.3885  36.5620

          k = 0.5714 0.0000 0.8571 (  1133 PWs)   bands (ev):

     9.9504  10.4242  11.2605  12.7390  14.0959  19.8101  21.8780  23.0731
    26.9917  36.5533

     the Fermi energy is    15.5891 ev

!    total energy              =    -775.14093784 Ry
     Harris-Foulkes estimate   =    -775.14093784 Ry
     estimated scf accuracy    <          4.7E-11 Ry

     total all-electron energy =    -38023.987029 Ry

     The total energy is the sum of the following terms:

     one-electron contribution =      13.82355754 Ry
     hartree contribution      =       7.63671971 Ry
     xc contribution           =     -32.12266597 Ry
     ewald contribution        =     -71.95438534 Ry
     one-center paw contrib.   =    -692.52406699 Ry
     smearing contrib. (-TS)   =      -0.00009679 Ry

     convergence has been achieved in  10 iterations

     Forces acting on atoms (cartesian axes, Ry/au):

     atom    1 type  1   force =     0.00000000    0.00000000    0.00000000

     Total force =     0.000000     Total SCF correction =     0.000000


     Computing stress (Cartesian axis) and pressure

          total   stress  (Ry/bohr**3)                   (kbar)     P=   99.33
   0.00067524  -0.00000000  -0.00000000         99.33     -0.00     -0.00
  -0.00000000   0.00067524   0.00000000         -0.00     99.33      0.00
  -0.00000000   0.00000000   0.00067524         -0.00      0.00     99.33


     Writing output data file Au.save/

     init_run     :      0.38s CPU      0.40s WALL (       1 calls)
     electrons    :      3.84s CPU      4.08s WALL (       1 calls)
     forces       :      0.05s CPU      0.05s WALL (       1 calls)
     stress       :      0.13s CPU      0.13s WALL (       1 calls)

     Called by init_run:
     wfcinit      :      0.06s CPU      0.07s WALL (       1 calls)
     potinit      :      0.11s CPU      0.13s WALL (       1 calls)
     hinit0       :      0.17s CPU      0.18s WALL (       1 calls)

     Called by electrons:
     c_bands      :      2.22s CPU      2.30s WALL (      11 calls)
     sum_band     :      0.47s CPU      0.49s WALL (      11 calls)
     v_of_rho     :      0.06s CPU      0.06s WALL (      11 calls)
     newd         :      0.10s CPU      0.12s WALL (      11 calls)
     PAW_pot      :      1.09s CPU      1.23s WALL (      11 calls)
     mix_rho      :      0.01s CPU      0.01s WALL (      11 calls)

     Called by c_bands:
     init_us_2    :      0.07s CPU      0.08s WALL (     500 calls)
     cegterg      :      2.11s CPU      2.19s WALL (     220 calls)

     Called by sum_band:
     sum_band:bec :      0.00s CPU      0.00s WALL (     220 calls)
     addusdens    :      0.10s CPU      0.10s WALL (      11 calls)

     Called by *egterg:
     h_psi        :      1.64s CPU      1.71s WALL (     778 calls)
     s_psi        :      0.05s CPU      0.05s WALL (     778 calls)
     g_psi        :      0.01s CPU      0.01s WALL (     538 calls)
     cdiaghg      :      0.18s CPU      0.18s WALL (     738 calls)

     Called by h_psi:
     h_psi:pot    :      1.63s CPU      1.70s WALL (     778 calls)
     h_psi:calbec :      0.08s CPU      0.08s WALL (     778 calls)
     vloc_psi     :      1.50s CPU      1.56s WALL (     778 calls)
     add_vuspsi   :      0.05s CPU      0.05s WALL (     778 calls)

     General routines
     calbec       :      0.12s CPU      0.13s WALL (    1098 calls)
     fft          :      0.04s CPU      0.04s WALL (     148 calls)
     ffts         :      0.00s CPU      0.00s WALL (      11 calls)
     fftw         :      1.67s CPU      1.74s WALL (   13758 calls)

     Parallel routines
     fft_scatt_xy :      0.14s CPU      0.15s WALL (   13917 calls)
     fft_scatt_yz :      0.45s CPU      0.47s WALL (   13917 calls)

     PWSCF        :     5.33s CPU         5.65s WALL


   This run was terminated on:  12: 8:23  26Mar2024            

=------------------------------------------------------------------------------=
   JOB DONE.
=------------------------------------------------------------------------------=
