
     Program PWSCF v.6.3MaX starts on 26Mar2024 at 11:34:39 

     This program is part of the open-source Quantum ESPRESSO suite
     for quantum simulation of materials; please cite
         "P. Giannozzi et al., J. Phys.:Condens. Matter 21 395502 (2009);
         "P. Giannozzi et al., J. Phys.:Condens. Matter 29 465901 (2017);
          URL http://www.quantum-espresso.org", 
     in publications or presentations arising from this work. More details at
     http://www.quantum-espresso.org/quote

     Parallel version (MPI), running on     5 processors

     MPI processes distributed on     1 nodes
     R & G space division:  proc/nbgrp/npool/nimage =       5
     Waiting for input...
     Reading input from standard input

     Current dimensions of program PWSCF are:
     Max number of different atomic species (ntypx) = 10
     Max number of k-points (npk) =  40000
     Max angular momentum in pseudopotentials (lmaxx) =  3

     Subspace diagonalization in iterative solution of the eigenvalue problem:
     a serial algorithm will be used


     Parallelization info
     --------------------
     sticks:   dense  smooth     PW     G-vecs:    dense   smooth      PW
     Min          62      62     21                  765      765     148
     Max          63      63     22                  770      770     151
     Sum         313     313    109                 3839     3839     749



     bravais-lattice index     =            2
     lattice parameter (alat)  =       7.7100  a.u.
     unit-cell volume          =     114.5785 (a.u.)^3
     number of atoms/cell      =            1
     number of atomic types    =            1
     number of electrons       =        11.00
     number of Kohn-Sham states=           10
     kinetic-energy cutoff     =      40.0000  Ry
     charge density cutoff     =     160.0000  Ry
     convergence threshold     =      1.0E-08
     mixing beta               =       0.7000
     number of iterations used =            8  plain     mixing
     Exchange-correlation      = PBESOL ( 1  4 10  8 0 0)

     celldm(1)=   7.710000  celldm(2)=   0.000000  celldm(3)=   0.000000
     celldm(4)=   0.000000  celldm(5)=   0.000000  celldm(6)=   0.000000

     crystal axes: (cart. coord. in units of alat)
               a(1) = (  -0.500000   0.000000   0.500000 )  
               a(2) = (   0.000000   0.500000   0.500000 )  
               a(3) = (  -0.500000   0.500000   0.000000 )  

     reciprocal axes: (cart. coord. in units 2 pi/alat)
               b(1) = ( -1.000000 -1.000000  1.000000 )  
               b(2) = (  1.000000  1.000000  1.000000 )  
               b(3) = ( -1.000000  1.000000 -1.000000 )  


     PseudoPot. # 1 for Au read from file:
     /home/lorenzo/pseudos/Au/Au.pbesol-n-rrkjus_psl.1.0.0.UPF
     MD5 check sum: 09626e9411213730b9a56fcc59c03ca8
     Pseudo is Ultrasoft + core correction, Zval = 11.0
     Generated using "atomic" code by A. Dal Corso v.6.3
     Using radial grid of 1279 points,  6 beta functions with: 
                l(1) =   0
                l(2) =   0
                l(3) =   1
                l(4) =   1
                l(5) =   2
                l(6) =   2
     Q(r) pseudized with 0 coefficients 


     atomic species   valence    mass     pseudopotential
        Au            11.00   196.96600     Au( 1.00)

     48 Sym. Ops., with inversion, found



   Cartesian axes

     site n.     atom                  positions (alat units)
         1           Au  tau(   1) = (   0.0000000   0.0000000   0.0000000  )

     number of k points=    20  gaussian smearing, width (Ry)=  0.0100
                       cart. coord. in units 2pi/alat
        k(    1) = (   0.0000000   0.0000000   0.0000000), wk =   0.0058309
        k(    2) = (  -0.1428571   0.1428571  -0.1428571), wk =   0.0466472
        k(    3) = (  -0.2857143   0.2857143  -0.2857143), wk =   0.0466472
        k(    4) = (  -0.4285714   0.4285714  -0.4285714), wk =   0.0466472
        k(    5) = (   0.0000000   0.2857143   0.0000000), wk =   0.0349854
        k(    6) = (  -0.1428571   0.4285714  -0.1428571), wk =   0.1399417
        k(    7) = (  -0.2857143   0.5714286  -0.2857143), wk =   0.1399417
        k(    8) = (   0.5714286  -0.2857143   0.5714286), wk =   0.1399417
        k(    9) = (   0.4285714  -0.1428571   0.4285714), wk =   0.1399417
        k(   10) = (   0.2857143  -0.0000000   0.2857143), wk =   0.0699708
        k(   11) = (   0.0000000   0.5714286   0.0000000), wk =   0.0349854
        k(   12) = (  -0.1428571   0.7142857  -0.1428571), wk =   0.1399417
        k(   13) = (   0.7142857  -0.1428571   0.7142857), wk =   0.1399417
        k(   14) = (   0.5714286   0.0000000   0.5714286), wk =   0.0699708
        k(   15) = (   0.0000000   0.8571429   0.0000000), wk =   0.0349854
        k(   16) = (   0.8571429  -0.0000000   0.8571429), wk =   0.0699708
        k(   17) = (  -0.2857143   0.5714286   0.0000000), wk =   0.1399417
        k(   18) = (   0.5714286  -0.2857143   0.8571429), wk =   0.2798834
        k(   19) = (   0.7142857  -0.1428571   1.0000000), wk =   0.1399417
        k(   20) = (   0.5714286   0.0000000   0.8571429), wk =   0.1399417

     Dense  grid:     3839 G-vectors     FFT dimensions: (  24,  24,  24)

     Estimated max dynamical RAM per process >       4.46 MB

     Estimated total dynamical RAM >      22.32 MB

     Initial potential from superposition of free atoms

     starting charge   10.99990, renormalised to   11.00000
     Starting wfcs are    9 randomized atomic wfcs +    1 random wfcs

     total cpu time spent up to now is        1.4 secs

     Self-consistent Calculation

     iteration #  1     ecut=    40.00 Ry     beta= 0.70
     Davidson diagonalization with overlap
     ethr =  1.00E-02,  avg # of iterations =  5.5

     Threshold (ethr) on eigenvalues was too large:
     Diagonalizing with lowered threshold

     Davidson diagonalization with overlap
     ethr =  5.56E-04,  avg # of iterations =  1.6

     total cpu time spent up to now is        1.7 secs

     total energy              =     -85.19674807 Ry
     Harris-Foulkes estimate   =     -85.23186029 Ry
     estimated scf accuracy    <       0.06250328 Ry

     iteration #  2     ecut=    40.00 Ry     beta= 0.70
     Davidson diagonalization with overlap
     ethr =  5.68E-04,  avg # of iterations =  4.3

     total cpu time spent up to now is        1.9 secs

     total energy              =     -39.04620314 Ry
     Harris-Foulkes estimate   =    -179.16716680 Ry
     estimated scf accuracy    <  126104.60671517 Ry

     iteration #  3     ecut=    40.00 Ry     beta= 0.70
     Davidson diagonalization with overlap
     ethr =  5.68E-04,  avg # of iterations =  7.1

     total cpu time spent up to now is        2.2 secs

     total energy              =     -85.20834041 Ry
     Harris-Foulkes estimate   =     -85.21905741 Ry
     estimated scf accuracy    <       0.02331007 Ry

     iteration #  4     ecut=    40.00 Ry     beta= 0.70
     Davidson diagonalization with overlap
     ethr =  2.12E-04,  avg # of iterations =  2.4

     total cpu time spent up to now is        2.3 secs

     total energy              =     -85.21155190 Ry
     Harris-Foulkes estimate   =     -85.21174915 Ry
     estimated scf accuracy    <       0.00526524 Ry

     iteration #  5     ecut=    40.00 Ry     beta= 0.70
     Davidson diagonalization with overlap
     ethr =  4.79E-05,  avg # of iterations =  2.4

     total cpu time spent up to now is        2.4 secs

     total energy              =     -85.21205111 Ry
     Harris-Foulkes estimate   =     -85.21207397 Ry
     estimated scf accuracy    <       0.00273658 Ry

     iteration #  6     ecut=    40.00 Ry     beta= 0.70
     Davidson diagonalization with overlap
     ethr =  2.49E-05,  avg # of iterations =  1.5

     total cpu time spent up to now is        2.5 secs

     total energy              =     -85.21210750 Ry
     Harris-Foulkes estimate   =     -85.21211497 Ry
     estimated scf accuracy    <       0.00271487 Ry

     iteration #  7     ecut=    40.00 Ry     beta= 0.70
     Davidson diagonalization with overlap
     ethr =  2.47E-05,  avg # of iterations =  1.0

     total cpu time spent up to now is        2.6 secs

     total energy              =     -85.21213511 Ry
     Harris-Foulkes estimate   =     -85.21212856 Ry
     estimated scf accuracy    <       0.00277742 Ry

     iteration #  8     ecut=    40.00 Ry     beta= 0.70
     Davidson diagonalization with overlap
     ethr =  2.47E-05,  avg # of iterations =  1.0

     total cpu time spent up to now is        2.8 secs

     total energy              =     -85.21213845 Ry
     Harris-Foulkes estimate   =     -85.21214227 Ry
     estimated scf accuracy    <       0.00282523 Ry

     iteration #  9     ecut=    40.00 Ry     beta= 0.70
     Davidson diagonalization with overlap
     ethr =  2.47E-05,  avg # of iterations =  1.2

     total cpu time spent up to now is        2.9 secs

     total energy              =     -85.21213929 Ry
     Harris-Foulkes estimate   =     -85.21214136 Ry
     estimated scf accuracy    <       0.00283653 Ry

     iteration # 10     ecut=    40.00 Ry     beta= 0.70
     Davidson diagonalization with overlap
     ethr =  2.47E-05,  avg # of iterations =  1.0

     total cpu time spent up to now is        3.0 secs

     total energy              =     -85.21214011 Ry
     Harris-Foulkes estimate   =     -85.21214090 Ry
     estimated scf accuracy    <       0.00283758 Ry

     iteration # 11     ecut=    40.00 Ry     beta= 0.70
     Davidson diagonalization with overlap
     ethr =  2.47E-05,  avg # of iterations =  1.0

     total cpu time spent up to now is        3.1 secs

     total energy              =     -85.21253443 Ry
     Harris-Foulkes estimate   =     -85.21214099 Ry
     estimated scf accuracy    <       0.00283897 Ry

     iteration # 12     ecut=    40.00 Ry     beta= 0.70
     Davidson diagonalization with overlap
     ethr =  2.47E-05,  avg # of iterations =  2.1

     total cpu time spent up to now is        3.2 secs

     total energy              =     -85.21254821 Ry
     Harris-Foulkes estimate   =     -85.21267327 Ry
     estimated scf accuracy    <       0.00831465 Ry

     iteration # 13     ecut=    40.00 Ry     beta= 0.70
     Davidson diagonalization with overlap
     ethr =  2.47E-05,  avg # of iterations =  2.8

     total cpu time spent up to now is        3.3 secs

     total energy              =     -85.21180297 Ry
     Harris-Foulkes estimate   =     -85.21315093 Ry
     estimated scf accuracy    <       0.00524338 Ry

     iteration # 14     ecut=    40.00 Ry     beta= 0.70
     Davidson diagonalization with overlap
     ethr =  2.47E-05,  avg # of iterations =  1.8

     total cpu time spent up to now is        3.5 secs

     total energy              =     -85.21194992 Ry
     Harris-Foulkes estimate   =     -85.21203712 Ry
     estimated scf accuracy    <       0.00161621 Ry

     iteration # 15     ecut=    40.00 Ry     beta= 0.70
     Davidson diagonalization with overlap
     ethr =  1.47E-05,  avg # of iterations =  1.0

     total cpu time spent up to now is        3.6 secs

     total energy              =     -85.21184826 Ry
     Harris-Foulkes estimate   =     -85.21198135 Ry
     estimated scf accuracy    <       0.00109081 Ry

     iteration # 16     ecut=    40.00 Ry     beta= 0.70
     Davidson diagonalization with overlap
     ethr =  9.92E-06,  avg # of iterations =  2.8

     total cpu time spent up to now is        3.7 secs

     total energy              =     -85.21188553 Ry
     Harris-Foulkes estimate   =     -85.21189960 Ry
     estimated scf accuracy    <       0.00036144 Ry

     iteration # 17     ecut=    40.00 Ry     beta= 0.70
     Davidson diagonalization with overlap
     ethr =  3.29E-06,  avg # of iterations =  2.2

     total cpu time spent up to now is        3.8 secs

     total energy              =     -85.21188175 Ry
     Harris-Foulkes estimate   =     -85.21190180 Ry
     estimated scf accuracy    <       0.00019317 Ry

     iteration # 18     ecut=    40.00 Ry     beta= 0.70
     Davidson diagonalization with overlap
     ethr =  1.76E-06,  avg # of iterations =  2.6

     total cpu time spent up to now is        4.0 secs

     total energy              =     -85.21187279 Ry
     Harris-Foulkes estimate   =     -85.21189510 Ry
     estimated scf accuracy    <       0.00003222 Ry

     iteration # 19     ecut=    40.00 Ry     beta= 0.70
     Davidson diagonalization with overlap
     ethr =  2.93E-07,  avg # of iterations =  3.2

     total cpu time spent up to now is        4.2 secs

     total energy              =     -85.21187576 Ry
     Harris-Foulkes estimate   =     -85.21191519 Ry
     estimated scf accuracy    <       0.00022094 Ry

     iteration # 20     ecut=    40.00 Ry     beta= 0.70
     Davidson diagonalization with overlap
     ethr =  2.93E-07,  avg # of iterations =  2.4

     total cpu time spent up to now is        4.3 secs

     total energy              =     -85.21189113 Ry
     Harris-Foulkes estimate   =     -85.21189206 Ry
     estimated scf accuracy    <       0.00000342 Ry

     iteration # 21     ecut=    40.00 Ry     beta= 0.70
     Davidson diagonalization with overlap
     ethr =  3.11E-08,  avg # of iterations =  2.0

     total cpu time spent up to now is        4.5 secs

     total energy              =     -85.21189129 Ry
     Harris-Foulkes estimate   =     -85.21189147 Ry
     estimated scf accuracy    <       0.00000173 Ry

     iteration # 22     ecut=    40.00 Ry     beta= 0.70
     Davidson diagonalization with overlap
     ethr =  1.57E-08,  avg # of iterations =  3.1

     total cpu time spent up to now is        4.7 secs

     total energy              =     -85.21189300 Ry
     Harris-Foulkes estimate   =     -85.21189529 Ry
     estimated scf accuracy    <       0.00005065 Ry

     iteration # 23     ecut=    40.00 Ry     beta= 0.70
     Davidson diagonalization with overlap
     ethr =  1.57E-08,  avg # of iterations =  2.0

     total cpu time spent up to now is        4.9 secs

     total energy              =     -85.21189312 Ry
     Harris-Foulkes estimate   =     -85.21189332 Ry
     estimated scf accuracy    <       0.00002782 Ry

     iteration # 24     ecut=    40.00 Ry     beta= 0.70
     Davidson diagonalization with overlap
     ethr =  1.57E-08,  avg # of iterations =  1.0

     total cpu time spent up to now is        5.0 secs

     total energy              =     -85.21189230 Ry
     Harris-Foulkes estimate   =     -85.21189313 Ry
     estimated scf accuracy    <       0.00002612 Ry

     iteration # 25     ecut=    40.00 Ry     beta= 0.70
     Davidson diagonalization with overlap
     ethr =  1.57E-08,  avg # of iterations =  1.5

     total cpu time spent up to now is        5.1 secs

     total energy              =     -85.21188962 Ry
     Harris-Foulkes estimate   =     -85.21189241 Ry
     estimated scf accuracy    <       0.00001667 Ry

     iteration # 26     ecut=    40.00 Ry     beta= 0.70
     Davidson diagonalization with overlap
     ethr =  1.57E-08,  avg # of iterations =  2.8

     total cpu time spent up to now is        5.2 secs

     total energy              =     -85.21189126 Ry
     Harris-Foulkes estimate   =     -85.21189127 Ry
     estimated scf accuracy    <       0.00000013 Ry

     iteration # 27     ecut=    40.00 Ry     beta= 0.70
     Davidson diagonalization with overlap
     ethr =  1.16E-09,  avg # of iterations =  2.0

     total cpu time spent up to now is        5.3 secs

     total energy              =     -85.21189126 Ry
     Harris-Foulkes estimate   =     -85.21189127 Ry
     estimated scf accuracy    <       0.00000011 Ry

     iteration # 28     ecut=    40.00 Ry     beta= 0.70
     Davidson diagonalization with overlap
     ethr =  9.65E-10,  avg # of iterations =  1.1

     total cpu time spent up to now is        5.4 secs

     total energy              =     -85.21189126 Ry
     Harris-Foulkes estimate   =     -85.21189126 Ry
     estimated scf accuracy    <       0.00000004 Ry

     iteration # 29     ecut=    40.00 Ry     beta= 0.70
     Davidson diagonalization with overlap
     ethr =  3.44E-10,  avg # of iterations =  2.4

     total cpu time spent up to now is        5.5 secs

     End of self-consistent calculation

          k = 0.0000 0.0000 0.0000 (   531 PWs)   bands (ev):

     5.8364  11.1388  11.1388  11.1388  12.6822  12.6822  31.1409  35.0010
    35.0010  35.0010

          k =-0.1429 0.1429-0.1429 (   507 PWs)   bands (ev):

     6.5241  10.9503  11.3439  11.3439  12.6209  12.6209  31.0730  32.1440
    35.6244  35.6244

          k =-0.2857 0.2857-0.2857 (   489 PWs)   bands (ev):

     7.9843  11.2161  11.3787  11.3787  13.0310  13.0310  25.6646  31.7987
    35.6423  35.6423

          k =-0.4286 0.4286-0.4286 (   489 PWs)   bands (ev):

     8.4476  11.1411  11.1411  13.7552  13.7731  13.7731  20.2575  30.5979
    33.6912  33.6912

          k = 0.0000 0.2857 0.0000 (   504 PWs)   bands (ev):

     6.7594  10.6825  11.5673  11.5673  12.2089  12.8883  32.1676  32.9587
    33.7120  33.7120

          k =-0.1429 0.4286-0.1429 (   492 PWs)   bands (ev):

     8.0749  10.4023  11.4302  11.8411  12.7157  13.2583  27.9445  32.3685
    32.4313  34.4479

          k =-0.2857 0.5714-0.2857 (   491 PWs)   bands (ev):

     8.8970  10.9088  11.3971  11.6441  13.8707  14.7653  22.1346  30.8084
    31.5562  32.7425

          k = 0.5714-0.2857 0.5714 (   487 PWs)   bands (ev):

     8.9563  10.8069  11.4897  12.2911  13.7336  16.7364  19.1935  29.5522
    31.7757  32.4953

          k = 0.4286-0.1429 0.4286 (   495 PWs)   bands (ev):

     8.8595  10.9421  11.2556  11.6399  12.7986  14.5275  24.0926  29.5513
    32.6476  35.6091

          k = 0.2857-0.0000 0.2857 (   491 PWs)   bands (ev):

     7.5645  10.6397  11.4766  11.7099  12.1997  13.2290  29.2145  30.8503
    34.6976  35.5463

          k = 0.0000 0.5714 0.0000 (   488 PWs)   bands (ev):

     8.6745   9.7750  12.0202  12.7290  12.7290  13.3740  29.7180  29.7180
    30.4924  32.3042

          k =-0.1429 0.7143-0.1429 (   488 PWs)   bands (ev):

     9.1635   9.6824  11.9400  12.8040  13.9331  15.0606  24.4124  27.7112
    28.4801  33.3960

          k = 0.7143-0.1429 0.7143 (   483 PWs)   bands (ev):

     9.4482  10.2528  11.5706  12.5096  13.8204  18.9731  19.7501  25.2732
    29.4446  33.1221

          k = 0.5714 0.0000 0.5714 (   492 PWs)   bands (ev):

     9.8523  10.7509  10.8039  12.2198  13.0211  16.6448  23.4200  24.4550
    32.3471  32.7630

          k = 0.0000 0.8571 0.0000 (   480 PWs)   bands (ev):

     8.7808   9.1360  13.7892  14.0022  14.0022  15.3828  23.3472  26.4631
    26.4631  32.6869

          k = 0.8571-0.0000 0.8571 (   478 PWs)   bands (ev):

     8.9744   9.3439  13.0687  13.5024  14.0798  18.4172  21.0241  24.4018
    26.8665  33.8231

          k =-0.2857 0.5714 0.0000 (   494 PWs)   bands (ev):

     9.3109  10.1110  10.9794  12.6487  12.7265  14.6145  25.9287  27.7727
    30.9668  36.1781

          k = 0.5714-0.2857 0.8571 (   489 PWs)   bands (ev):

     9.7143  10.3933  11.0346  12.3099  13.6450  17.1645  21.2573  26.8695
    28.8819  34.9038

          k = 0.7143-0.1429 1.0000 (   484 PWs)   bands (ev):

     9.3877   9.6435  11.8804  13.2266  13.9971  17.7012  22.5650  24.9861
    26.1013  36.2467

          k = 0.5714 0.0000 0.8571 (   491 PWs)   bands (ev):

     9.7922  10.2655  11.1084  12.6144  13.9897  19.6080  21.7030  22.8429
    26.7178  36.3669

     the Fermi energy is    15.3634 ev

!    total energy              =     -85.21189128 Ry
     Harris-Foulkes estimate   =     -85.21189126 Ry
     estimated scf accuracy    <          2.5E-09 Ry

     The total energy is the sum of the following terms:

     one-electron contribution =      11.00718193 Ry
     hartree contribution      =       7.54357877 Ry
     xc contribution           =     -31.80816710 Ry
     ewald contribution        =     -71.95438540 Ry
     smearing contrib. (-TS)   =      -0.00009949 Ry

     convergence has been achieved in  29 iterations

     Forces acting on atoms (cartesian axes, Ry/au):

     atom    1 type  1   force =     0.00000000    0.00000000    0.00000000

     Total force =     0.000000     Total SCF correction =     0.000000


     Computing stress (Cartesian axis) and pressure

          total   stress  (Ry/bohr**3)                   (kbar)     P=   11.67
   0.00007935   0.00000000   0.00000000         11.67      0.00      0.00
   0.00000000   0.00007935   0.00000000          0.00     11.67      0.00
   0.00000000  -0.00000000   0.00007935          0.00     -0.00     11.67


     Writing output data file Au.save/

     init_run     :      0.18s CPU      0.18s WALL (       1 calls)
     electrons    :      3.92s CPU      4.19s WALL (       1 calls)
     forces       :      0.02s CPU      0.02s WALL (       1 calls)
     stress       :      0.06s CPU      0.06s WALL (       1 calls)

     Called by init_run:
     wfcinit      :      0.04s CPU      0.04s WALL (       1 calls)
     potinit      :      0.01s CPU      0.01s WALL (       1 calls)
     hinit0       :      0.13s CPU      0.13s WALL (       1 calls)

     Called by electrons:
     c_bands      :      3.06s CPU      3.27s WALL (      30 calls)
     sum_band     :      0.65s CPU      0.70s WALL (      30 calls)
     v_of_rho     :      0.08s CPU      0.08s WALL (      30 calls)
     newd         :      0.11s CPU      0.11s WALL (      30 calls)
     mix_rho      :      0.01s CPU      0.01s WALL (      30 calls)

     Called by c_bands:
     init_us_2    :      0.08s CPU      0.09s WALL (    1260 calls)
     cegterg      :      2.92s CPU      3.13s WALL (     600 calls)

     Called by sum_band:
     sum_band:bec :      0.01s CPU      0.01s WALL (     600 calls)
     addusdens    :      0.11s CPU      0.12s WALL (      30 calls)

     Called by *egterg:
     h_psi        :      2.11s CPU      2.27s WALL (    1997 calls)
     s_psi        :      0.07s CPU      0.07s WALL (    1997 calls)
     g_psi        :      0.01s CPU      0.01s WALL (    1377 calls)
     cdiaghg      :      0.41s CPU      0.44s WALL (    1957 calls)

     Called by h_psi:
     h_psi:pot    :      2.10s CPU      2.25s WALL (    1997 calls)
     h_psi:calbec :      0.10s CPU      0.11s WALL (    1997 calls)
     vloc_psi     :      1.92s CPU      2.06s WALL (    1997 calls)
     add_vuspsi   :      0.07s CPU      0.07s WALL (    1997 calls)

     General routines
     calbec       :      0.14s CPU      0.15s WALL (    2697 calls)
     fft          :      0.04s CPU      0.04s WALL (     357 calls)
     ffts         :      0.00s CPU      0.00s WALL (      30 calls)
     fftw         :      2.16s CPU      2.32s WALL (   35594 calls)

     Parallel routines
     fft_scatt_xy :      0.21s CPU      0.22s WALL (   35981 calls)
     fft_scatt_yz :      0.58s CPU      0.63s WALL (   35981 calls)

     PWSCF        :     5.38s CPU         5.69s WALL


   This run was terminated on:  11:34:45  26Mar2024            

=------------------------------------------------------------------------------=
   JOB DONE.
=------------------------------------------------------------------------------=
