
     Program PWSCF v.6.3MaX starts on 26Mar2024 at 11:32:54 

     This program is part of the open-source Quantum ESPRESSO suite
     for quantum simulation of materials; please cite
         "P. Giannozzi et al., J. Phys.:Condens. Matter 21 395502 (2009);
         "P. Giannozzi et al., J. Phys.:Condens. Matter 29 465901 (2017);
          URL http://www.quantum-espresso.org", 
     in publications or presentations arising from this work. More details at
     http://www.quantum-espresso.org/quote

     Parallel version (MPI), running on     5 processors

     MPI processes distributed on     1 nodes
     R & G space division:  proc/nbgrp/npool/nimage =       5
     Waiting for input...
     Reading input from standard input

     Current dimensions of program PWSCF are:
     Max number of different atomic species (ntypx) = 10
     Max number of k-points (npk) =  40000
     Max angular momentum in pseudopotentials (lmaxx) =  3

     Subspace diagonalization in iterative solution of the eigenvalue problem:
     a serial algorithm will be used


     Parallelization info
     --------------------
     sticks:   dense  smooth     PW     G-vecs:    dense   smooth      PW
     Min          62      62     17                  765      765     106
     Max          63      63     17                  770      770     107
     Sum         313     313     85                 3839     3839     531



     bravais-lattice index     =            2
     lattice parameter (alat)  =       7.7100  a.u.
     unit-cell volume          =     114.5785 (a.u.)^3
     number of atoms/cell      =            1
     number of atomic types    =            1
     number of electrons       =        11.00
     number of Kohn-Sham states=           10
     kinetic-energy cutoff     =      40.0000  Ry
     charge density cutoff     =     160.0000  Ry
     convergence threshold     =      1.0E-08
     mixing beta               =       0.7000
     number of iterations used =            8  plain     mixing
     Exchange-correlation      = PBESOL ( 1  4 10  8 0 0)

     celldm(1)=   7.710000  celldm(2)=   0.000000  celldm(3)=   0.000000
     celldm(4)=   0.000000  celldm(5)=   0.000000  celldm(6)=   0.000000

     crystal axes: (cart. coord. in units of alat)
               a(1) = (  -0.500000   0.000000   0.500000 )  
               a(2) = (   0.000000   0.500000   0.500000 )  
               a(3) = (  -0.500000   0.500000   0.000000 )  

     reciprocal axes: (cart. coord. in units 2 pi/alat)
               b(1) = ( -1.000000 -1.000000  1.000000 )  
               b(2) = (  1.000000  1.000000  1.000000 )  
               b(3) = ( -1.000000  1.000000 -1.000000 )  


     PseudoPot. # 1 for Au read from file:
     /home/lorenzo/pseudos/Au/Au.pbesol-n-rrkjus_psl.1.0.0.UPF
     MD5 check sum: 09626e9411213730b9a56fcc59c03ca8
     Pseudo is Ultrasoft + core correction, Zval = 11.0
     Generated using "atomic" code by A. Dal Corso v.6.3
     Using radial grid of 1279 points,  6 beta functions with: 
                l(1) =   0
                l(2) =   0
                l(3) =   1
                l(4) =   1
                l(5) =   2
                l(6) =   2
     Q(r) pseudized with 0 coefficients 


     atomic species   valence    mass     pseudopotential
        Au            11.00   196.96600     Au( 1.00)

     48 Sym. Ops., with inversion, found



   Cartesian axes

     site n.     atom                  positions (alat units)
         1           Au  tau(   1) = (   0.0000000   0.0000000   0.0000000  )

     number of k points=     1  gaussian smearing, width (Ry)=  0.0100
                       cart. coord. in units 2pi/alat
        k(    1) = (   0.0000000   0.0000000   0.0000000), wk =   2.0000000

     Dense  grid:     3839 G-vectors     FFT dimensions: (  24,  24,  24)

     Estimated max dynamical RAM per process >       4.17 MB

     Estimated total dynamical RAM >      20.84 MB

     Initial potential from superposition of free atoms

     starting charge   10.99990, renormalised to   11.00000
     Starting wfcs are    9 randomized atomic wfcs +    1 random wfcs

     total cpu time spent up to now is        1.0 secs

     Self-consistent Calculation

     iteration #  1     ecut=    40.00 Ry     beta= 0.70
     Davidson diagonalization with overlap
     ethr =  1.00E-02,  avg # of iterations = 11.0

     Threshold (ethr) on eigenvalues was too large:
     Diagonalizing with lowered threshold

     Davidson diagonalization with overlap
     ethr =  9.26E-04,  avg # of iterations =  1.0

     negative rho (up, down):  4.404E-05 0.000E+00

     total cpu time spent up to now is        1.0 secs

     total energy              =     -86.04908004 Ry
     Harris-Foulkes estimate   =     -86.04414915 Ry
     estimated scf accuracy    <       0.10184971 Ry

     iteration #  2     ecut=    40.00 Ry     beta= 0.70
     Davidson diagonalization with overlap
     ethr =  9.26E-04,  avg # of iterations =  5.0

     total cpu time spent up to now is        1.1 secs

     total energy              =     -41.60734194 Ry
     Harris-Foulkes estimate   =    -567.26551654 Ry
     estimated scf accuracy    <  134616.25828754 Ry

     iteration #  3     ecut=    40.00 Ry     beta= 0.70
     Davidson diagonalization with overlap
     ethr =  9.26E-04,  avg # of iterations =  4.0

     total cpu time spent up to now is        1.1 secs

     total energy              =     -86.00396298 Ry
     Harris-Foulkes estimate   =     -86.00729265 Ry
     estimated scf accuracy    <       0.00749944 Ry

     iteration #  4     ecut=    40.00 Ry     beta= 0.70
     Davidson diagonalization with overlap
     ethr =  6.82E-05,  avg # of iterations =  3.0

     total cpu time spent up to now is        1.1 secs

     total energy              =     -86.00493142 Ry
     Harris-Foulkes estimate   =     -86.00517283 Ry
     estimated scf accuracy    <       0.00129463 Ry

     iteration #  5     ecut=    40.00 Ry     beta= 0.70
     Davidson diagonalization with overlap
     ethr =  1.18E-05,  avg # of iterations =  3.0

     total cpu time spent up to now is        1.1 secs

     total energy              =     -86.00498141 Ry
     Harris-Foulkes estimate   =     -86.00500571 Ry
     estimated scf accuracy    <       0.00091884 Ry

     iteration #  6     ecut=    40.00 Ry     beta= 0.70
     Davidson diagonalization with overlap
     ethr =  8.35E-06,  avg # of iterations =  9.0

     total cpu time spent up to now is        1.1 secs

     total energy              =     -86.00497553 Ry
     Harris-Foulkes estimate   =     -86.00498789 Ry
     estimated scf accuracy    <       0.00082984 Ry

     iteration #  7     ecut=    40.00 Ry     beta= 0.70
     Davidson diagonalization with overlap
     ethr =  7.54E-06,  avg # of iterations =  1.0

     total cpu time spent up to now is        1.2 secs

     total energy              =     -86.00497297 Ry
     Harris-Foulkes estimate   =     -86.00497724 Ry
     estimated scf accuracy    <       0.00081438 Ry

     iteration #  8     ecut=    40.00 Ry     beta= 0.70
     Davidson diagonalization with overlap
     ethr =  7.40E-06,  avg # of iterations =  1.0

     total cpu time spent up to now is        1.2 secs

     total energy              =     -86.00496710 Ry
     Harris-Foulkes estimate   =     -86.00497330 Ry
     estimated scf accuracy    <       0.00080267 Ry

     iteration #  9     ecut=    40.00 Ry     beta= 0.70
     Davidson diagonalization with overlap
     ethr =  7.30E-06,  avg # of iterations =  1.0

     total cpu time spent up to now is        1.2 secs

     total energy              =     -86.00496492 Ry
     Harris-Foulkes estimate   =     -86.00496731 Ry
     estimated scf accuracy    <       0.00079412 Ry

     iteration # 10     ecut=    40.00 Ry     beta= 0.70
     Davidson diagonalization with overlap
     ethr =  7.22E-06,  avg # of iterations =  1.0

     total cpu time spent up to now is        1.2 secs

     total energy              =     -86.00495532 Ry
     Harris-Foulkes estimate   =     -86.00496505 Ry
     estimated scf accuracy    <       0.00078791 Ry

     iteration # 11     ecut=    40.00 Ry     beta= 0.70
     Davidson diagonalization with overlap
     ethr =  7.16E-06,  avg # of iterations =  7.0

     total cpu time spent up to now is        1.2 secs

     total energy              =     -86.00427571 Ry
     Harris-Foulkes estimate   =     -86.00495549 Ry
     estimated scf accuracy    <       0.00077563 Ry

     iteration # 12     ecut=    40.00 Ry     beta= 0.70
     Davidson diagonalization with overlap
     ethr =  7.05E-06,  avg # of iterations =  3.0

     total cpu time spent up to now is        1.2 secs

     total energy              =     -86.00441673 Ry
     Harris-Foulkes estimate   =     -86.00440048 Ry
     estimated scf accuracy    <       0.00038328 Ry

     iteration # 13     ecut=    40.00 Ry     beta= 0.70
     Davidson diagonalization with overlap
     ethr =  3.48E-06,  avg # of iterations =  2.0

     total cpu time spent up to now is        1.2 secs

     total energy              =     -86.00441159 Ry
     Harris-Foulkes estimate   =     -86.00441931 Ry
     estimated scf accuracy    <       0.00036370 Ry

     iteration # 14     ecut=    40.00 Ry     beta= 0.70
     Davidson diagonalization with overlap
     ethr =  3.31E-06,  avg # of iterations =  2.0

     total cpu time spent up to now is        1.3 secs

     total energy              =     -86.00437227 Ry
     Harris-Foulkes estimate   =     -86.00441287 Ry
     estimated scf accuracy    <       0.00036295 Ry

     iteration # 15     ecut=    40.00 Ry     beta= 0.70
     Davidson diagonalization with overlap
     ethr =  3.30E-06,  avg # of iterations =  2.0

     total cpu time spent up to now is        1.3 secs

     total energy              =     -86.00431167 Ry
     Harris-Foulkes estimate   =     -86.00437530 Ry
     estimated scf accuracy    <       0.00030882 Ry

     iteration # 16     ecut=    40.00 Ry     beta= 0.70
     Davidson diagonalization with overlap
     ethr =  2.81E-06,  avg # of iterations =  3.0

     total cpu time spent up to now is        1.3 secs

     total energy              =     -86.00403323 Ry
     Harris-Foulkes estimate   =     -86.00431610 Ry
     estimated scf accuracy    <       0.00026206 Ry

     iteration # 17     ecut=    40.00 Ry     beta= 0.70
     Davidson diagonalization with overlap
     ethr =  2.38E-06,  avg # of iterations =  6.0

     total cpu time spent up to now is        1.3 secs

     total energy              =     -86.00412463 Ry
     Harris-Foulkes estimate   =     -86.00420173 Ry
     estimated scf accuracy    <       0.00020785 Ry

     iteration # 18     ecut=    40.00 Ry     beta= 0.70
     Davidson diagonalization with overlap
     ethr =  1.89E-06,  avg # of iterations =  3.0

     total cpu time spent up to now is        1.3 secs

     total energy              =     -86.00422931 Ry
     Harris-Foulkes estimate   =     -86.00433091 Ry
     estimated scf accuracy    <       0.00020384 Ry

     iteration # 19     ecut=    40.00 Ry     beta= 0.70
     Davidson diagonalization with overlap
     ethr =  1.85E-06,  avg # of iterations =  4.0

     total cpu time spent up to now is        1.4 secs

     total energy              =     -86.00397282 Ry
     Harris-Foulkes estimate   =     -86.00424489 Ry
     estimated scf accuracy    <       0.00009541 Ry

     iteration # 20     ecut=    40.00 Ry     beta= 0.70
     Davidson diagonalization with overlap
     ethr =  8.67E-07,  avg # of iterations =  3.0

     total cpu time spent up to now is        1.4 secs

     total energy              =     -86.00765313 Ry
     Harris-Foulkes estimate   =     -86.00495905 Ry
     estimated scf accuracy    <       0.03676313 Ry

     iteration # 21     ecut=    40.00 Ry     beta= 0.70
     Davidson diagonalization with overlap
     ethr =  8.67E-07,  avg # of iterations =  4.0

     total cpu time spent up to now is        1.4 secs

     total energy              =     -86.69315085 Ry
     Harris-Foulkes estimate   =     -88.52132654 Ry
     estimated scf accuracy    <   67739.69821977 Ry

     iteration # 22     ecut=    40.00 Ry     beta= 0.70
     Davidson diagonalization with overlap
     ethr =  8.67E-07,  avg # of iterations =  3.0

     total cpu time spent up to now is        1.4 secs

     total energy              =     -83.83836358 Ry
     Harris-Foulkes estimate   =     -86.73559090 Ry
     estimated scf accuracy    <   60932.71841431 Ry

     iteration # 23     ecut=    40.00 Ry     beta= 0.70
     Davidson diagonalization with overlap
     ethr =  8.67E-07,  avg # of iterations =  3.0

     total cpu time spent up to now is        1.4 secs

     total energy              =     -86.00637467 Ry
     Harris-Foulkes estimate   =     -86.00463640 Ry
     estimated scf accuracy    <       0.01478548 Ry

     iteration # 24     ecut=    40.00 Ry     beta= 0.70
     Davidson diagonalization with overlap
     ethr =  8.67E-07,  avg # of iterations =  4.0

     negative rho (up, down):  5.680E-02 0.000E+00

     total cpu time spent up to now is        1.4 secs

     total energy              =     516.39917847 Ry
     Harris-Foulkes estimate   =     -88.53362739 Ry
     estimated scf accuracy    <   67793.44197527 Ry

     iteration # 25     ecut=    40.00 Ry     beta= 0.70
     Davidson diagonalization with overlap
     ethr =  8.67E-07,  avg # of iterations =  7.0

     negative rho (up, down):  5.812E-03 0.000E+00

     total cpu time spent up to now is        1.5 secs

     total energy              =     683.77261962 Ry
     Harris-Foulkes estimate   =    -852.54339108 Ry
     estimated scf accuracy    <  134750.16504115 Ry

     iteration # 26     ecut=    40.00 Ry     beta= 0.70
     Davidson diagonalization with overlap
     ethr =  8.67E-07,  avg # of iterations =  7.0

     negative rho (up, down):  2.432E-02 0.000E+00

     total cpu time spent up to now is        1.5 secs

     total energy              =    -846.87473017 Ry
     Harris-Foulkes estimate   =    -759.79093149 Ry
     estimated scf accuracy    <  134955.78444387 Ry

     iteration # 27     ecut=    40.00 Ry     beta= 0.70
     Davidson diagonalization with overlap
     ethr =  8.67E-07,  avg # of iterations =  4.0

     total cpu time spent up to now is        1.5 secs

     total energy              =    -166.93170405 Ry
     Harris-Foulkes estimate   =    -846.89033650 Ry
     estimated scf accuracy    <  135011.80952984 Ry

     iteration # 28     ecut=    40.00 Ry     beta= 0.70
     Davidson diagonalization with overlap
     ethr =  8.67E-07,  avg # of iterations =  3.0

     total cpu time spent up to now is        1.5 secs

     total energy              =      11.64803380 Ry
     Harris-Foulkes estimate   =    -170.70394546 Ry
     estimated scf accuracy    <  125811.87737320 Ry

     iteration # 29     ecut=    40.00 Ry     beta= 0.70
     Davidson diagonalization with overlap
     ethr =  8.67E-07,  avg # of iterations = 17.0

     total cpu time spent up to now is        1.6 secs

     total energy              =       4.73911997 Ry
     Harris-Foulkes estimate   =    -102.86161321 Ry
     estimated scf accuracy    <  107078.34539661 Ry

     iteration # 30     ecut=    40.00 Ry     beta= 0.70
     Davidson diagonalization with overlap
     ethr =  8.67E-07,  avg # of iterations =  6.0

     total cpu time spent up to now is        1.6 secs

     total energy              =     -98.09422340 Ry
     Harris-Foulkes estimate   =    -107.16160187 Ry
     estimated scf accuracy    <  102035.20241379 Ry

     iteration # 31     ecut=    40.00 Ry     beta= 0.70
     Davidson diagonalization with overlap
     ethr =  8.67E-07,  avg # of iterations =  3.0

     negative rho (up, down):  3.654E-04 0.000E+00

     total cpu time spent up to now is        1.6 secs

     total energy              =    -569.15216739 Ry
     Harris-Foulkes estimate   =     -98.33671484 Ry
     estimated scf accuracy    <   90497.64237889 Ry

     iteration # 32     ecut=    40.00 Ry     beta= 0.70
     Davidson diagonalization with overlap
     ethr =  8.67E-07,  avg # of iterations =  4.0

     negative rho (up, down):  1.519E+01 0.000E+00

     total cpu time spent up to now is        1.6 secs

     total energy              =    -368.90296114 Ry
     Harris-Foulkes estimate   =    -663.72831071 Ry
     estimated scf accuracy    <  134831.43552628 Ry

     iteration # 33     ecut=    40.00 Ry     beta= 0.70
     Davidson diagonalization with overlap
     ethr =  8.67E-07,  avg # of iterations =  8.0

     negative rho (up, down):  1.087E+00 0.000E+00

     total cpu time spent up to now is        1.6 secs

     total energy              =    1262.39097120 Ry
     Harris-Foulkes estimate   =    -374.43176375 Ry
     estimated scf accuracy    <  134450.12327272 Ry

     iteration # 34     ecut=    40.00 Ry     beta= 0.70
     Davidson diagonalization with overlap
     ethr =  8.67E-07,  avg # of iterations =  6.0

     negative rho (up, down):  1.226E+00 0.000E+00

     total cpu time spent up to now is        1.7 secs

     total energy              =   -1365.60136547 Ry
     Harris-Foulkes estimate   =   -1348.83186863 Ry
     estimated scf accuracy    <  134632.11921105 Ry

     iteration # 35     ecut=    40.00 Ry     beta= 0.70
     Davidson diagonalization with overlap
     ethr =  8.67E-07,  avg # of iterations = 10.0

     negative rho (up, down):  5.645E-01 0.000E+00

     total cpu time spent up to now is        1.7 secs

     total energy              =    -740.68404718 Ry
     Harris-Foulkes estimate   =   -1365.60952753 Ry
     estimated scf accuracy    <  134646.65972154 Ry

     iteration # 36     ecut=    40.00 Ry     beta= 0.70
     Davidson diagonalization with overlap
     ethr =  8.67E-07,  avg # of iterations =  4.0

     negative rho (up, down):  1.480E+00 0.000E+00

     total cpu time spent up to now is        1.7 secs

     total energy              =    1327.27904046 Ry
     Harris-Foulkes estimate   =    -740.82650748 Ry
     estimated scf accuracy    <  134698.60038386 Ry

     iteration # 37     ecut=    40.00 Ry     beta= 0.70
     Davidson diagonalization with overlap
     ethr =  8.67E-07,  avg # of iterations =  6.0

     negative rho (up, down):  2.649E+00 0.000E+00

     total cpu time spent up to now is        1.7 secs

     total energy              =   -1582.98257072 Ry
     Harris-Foulkes estimate   =   -1401.89090715 Ry
     estimated scf accuracy    <  134978.31099211 Ry

     iteration # 38     ecut=    40.00 Ry     beta= 0.70
     Davidson diagonalization with overlap
     ethr =  8.67E-07,  avg # of iterations =  4.0

     negative rho (up, down):  3.009E+00 0.000E+00

     total cpu time spent up to now is        1.8 secs

     total energy              =   -1467.40636060 Ry
     Harris-Foulkes estimate   =   -1583.00100003 Ry
     estimated scf accuracy    <  134752.86647576 Ry

     iteration # 39     ecut=    40.00 Ry     beta= 0.70
     Davidson diagonalization with overlap
     ethr =  8.67E-07,  avg # of iterations =  4.0

     negative rho (up, down):  1.314E+01 0.000E+00

     total cpu time spent up to now is        1.8 secs

     total energy              =    -128.47007364 Ry
     Harris-Foulkes estimate   =   -1467.47797068 Ry
     estimated scf accuracy    <  134664.42755310 Ry

     iteration # 40     ecut=    40.00 Ry     beta= 0.70
     Davidson diagonalization with overlap
     ethr =  8.67E-07,  avg # of iterations =  5.0

     negative rho (up, down):  8.986E+00 0.000E+00

     total cpu time spent up to now is        1.8 secs

     total energy              =     839.24256275 Ry
     Harris-Foulkes estimate   =    -136.03579351 Ry
     estimated scf accuracy    <  118753.67755477 Ry

     iteration # 41     ecut=    40.00 Ry     beta= 0.70
     Davidson diagonalization with overlap
     ethr =  8.67E-07,  avg # of iterations =  7.0

     negative rho (up, down):  2.988E+01 0.000E+00

     total cpu time spent up to now is        1.8 secs

     total energy              =    2006.50150214 Ry
     Harris-Foulkes estimate   =    -983.39172746 Ry
     estimated scf accuracy    <  134068.55584118 Ry

     iteration # 42     ecut=    40.00 Ry     beta= 0.70
     Davidson diagonalization with overlap
     ethr =  8.67E-07,  avg # of iterations =  6.0

     negative rho (up, down):  5.011E+01 0.000E+00

     total cpu time spent up to now is        1.9 secs

     total energy              =    3549.33325262 Ry
     Harris-Foulkes estimate   =   -2097.54570969 Ry
     estimated scf accuracy    <  139293.94634557 Ry

     iteration # 43     ecut=    40.00 Ry     beta= 0.70
     Davidson diagonalization with overlap
     ethr =  8.67E-07,  avg # of iterations = 10.0

     negative rho (up, down):  4.365E+00 0.000E+00

     total cpu time spent up to now is        1.9 secs

     total energy              =     709.96041184 Ry
     Harris-Foulkes estimate   =   -3707.67024215 Ry
     estimated scf accuracy    <  141139.32931451 Ry

     iteration # 44     ecut=    40.00 Ry     beta= 0.70
     Davidson diagonalization with overlap
     ethr =  8.67E-07,  avg # of iterations =  7.0

     negative rho (up, down):  4.345E+00 0.000E+00

     total cpu time spent up to now is        1.9 secs

     total energy              =    -767.56398005 Ry
     Harris-Foulkes estimate   =    -739.88168816 Ry
     estimated scf accuracy    <  134720.56901809 Ry

     iteration # 45     ecut=    40.00 Ry     beta= 0.70
     Davidson diagonalization with overlap
     ethr =  8.67E-07,  avg # of iterations =  4.0

     negative rho (up, down):  1.527E+01 0.000E+00

     total cpu time spent up to now is        1.9 secs

     total energy              =    -432.02422244 Ry
     Harris-Foulkes estimate   =    -767.56856105 Ry
     estimated scf accuracy    <  134813.83505488 Ry

     iteration # 46     ecut=    40.00 Ry     beta= 0.70
     Davidson diagonalization with overlap
     ethr =  8.67E-07,  avg # of iterations =  5.0

     negative rho (up, down):  4.553E+00 0.000E+00

     total cpu time spent up to now is        2.0 secs

     total energy              =     802.59214521 Ry
     Harris-Foulkes estimate   =    -433.46674103 Ry
     estimated scf accuracy    <  131735.17501062 Ry

     iteration # 47     ecut=    40.00 Ry     beta= 0.70
     Davidson diagonalization with overlap
     ethr =  8.67E-07,  avg # of iterations = 10.0

     negative rho (up, down):  7.515E+00 0.000E+00

     total cpu time spent up to now is        2.0 secs

     total energy              =    -777.74466812 Ry
     Harris-Foulkes estimate   =    -839.42581909 Ry
     estimated scf accuracy    <  134450.72414772 Ry

     iteration # 48     ecut=    40.00 Ry     beta= 0.70
     Davidson diagonalization with overlap
     ethr =  8.67E-07,  avg # of iterations = 12.0

     negative rho (up, down):  7.562E+00 0.000E+00

     total cpu time spent up to now is        2.0 secs

     total energy              =    -785.09588540 Ry
     Harris-Foulkes estimate   =    -777.75345241 Ry
     estimated scf accuracy    <  133733.63204520 Ry

     iteration # 49     ecut=    40.00 Ry     beta= 0.70
     Davidson diagonalization with overlap
     ethr =  8.67E-07,  avg # of iterations =  3.0

     negative rho (up, down):  8.525E+00 0.000E+00

     total cpu time spent up to now is        2.0 secs

     total energy              =    -855.07523840 Ry
     Harris-Foulkes estimate   =    -785.09607555 Ry
     estimated scf accuracy    <  133732.95779409 Ry

     iteration # 50     ecut=    40.00 Ry     beta= 0.70
     Davidson diagonalization with overlap
     ethr =  8.67E-07,  avg # of iterations =  4.0

     negative rho (up, down):  9.436E+00 0.000E+00

     total cpu time spent up to now is        2.0 secs

     total energy              =    -613.86520189 Ry
     Harris-Foulkes estimate   =    -855.08145813 Ry
     estimated scf accuracy    <  133614.20176813 Ry

     iteration # 51     ecut=    40.00 Ry     beta= 0.70
     Davidson diagonalization with overlap
     ethr =  8.67E-07,  avg # of iterations =  4.0

     negative rho (up, down):  6.524E+00 0.000E+00

     total cpu time spent up to now is        2.1 secs

     total energy              =    -813.23632540 Ry
     Harris-Foulkes estimate   =    -613.94033892 Ry
     estimated scf accuracy    <  133278.05939511 Ry

     iteration # 52     ecut=    40.00 Ry     beta= 0.70
     Davidson diagonalization with overlap
     ethr =  8.67E-07,  avg # of iterations =  4.0

     negative rho (up, down):  7.517E+00 0.000E+00

     total cpu time spent up to now is        2.1 secs

     total energy              =    -759.32985125 Ry
     Harris-Foulkes estimate   =    -813.31556878 Ry
     estimated scf accuracy    <  133917.11064142 Ry

     iteration # 53     ecut=    40.00 Ry     beta= 0.70
     Davidson diagonalization with overlap
     ethr =  8.67E-07,  avg # of iterations =  4.0

     negative rho (up, down):  5.701E+00 0.000E+00

     total cpu time spent up to now is        2.1 secs

     total energy              =     983.35570100 Ry
     Harris-Foulkes estimate   =    -759.33468675 Ry
     estimated scf accuracy    <  133730.71311073 Ry

     iteration # 54     ecut=    40.00 Ry     beta= 0.70
     Davidson diagonalization with overlap
     ethr =  8.67E-07,  avg # of iterations =  6.0

     negative rho (up, down):  1.061E+01 0.000E+00

     total cpu time spent up to now is        2.1 secs

     total energy              =    -745.07149210 Ry
     Harris-Foulkes estimate   =   -1015.43900138 Ry
     estimated scf accuracy    <  134512.79069376 Ry

     iteration # 55     ecut=    40.00 Ry     beta= 0.70
     Davidson diagonalization with overlap
     ethr =  8.67E-07,  avg # of iterations =  5.0

     negative rho (up, down):  1.251E+01 0.000E+00

     total cpu time spent up to now is        2.1 secs

     total energy              =    -691.43900464 Ry
     Harris-Foulkes estimate   =    -745.18348525 Ry
     estimated scf accuracy    <  133451.46981404 Ry

     iteration # 56     ecut=    40.00 Ry     beta= 0.70
     Davidson diagonalization with overlap
     ethr =  8.67E-07,  avg # of iterations =  4.0

     negative rho (up, down):  6.501E+00 0.000E+00

     total cpu time spent up to now is        2.2 secs

     total energy              =   -1057.41694568 Ry
     Harris-Foulkes estimate   =    -691.44809701 Ry
     estimated scf accuracy    <  133089.71736172 Ry

     iteration # 57     ecut=    40.00 Ry     beta= 0.70
     Davidson diagonalization with overlap
     ethr =  8.67E-07,  avg # of iterations =  4.0

     negative rho (up, down):  4.606E+00 0.000E+00

     total cpu time spent up to now is        2.2 secs

     total energy              =   -1014.43003380 Ry
     Harris-Foulkes estimate   =   -1057.72614370 Ry
     estimated scf accuracy    <  134352.69660912 Ry

     iteration # 58     ecut=    40.00 Ry     beta= 0.70
     Davidson diagonalization with overlap
     ethr =  8.67E-07,  avg # of iterations =  4.0

     negative rho (up, down):  4.594E+00 0.000E+00

     total cpu time spent up to now is        2.2 secs

     total energy              =   -1015.44981933 Ry
     Harris-Foulkes estimate   =   -1014.43471299 Ry
     estimated scf accuracy    <  134716.04808127 Ry

     iteration # 59     ecut=    40.00 Ry     beta= 0.70
     Davidson diagonalization with overlap
     ethr =  8.67E-07,  avg # of iterations =  2.0

     negative rho (up, down):  3.916E+00 0.000E+00

     total cpu time spent up to now is        2.2 secs

     total energy              =    -947.67972188 Ry
     Harris-Foulkes estimate   =   -1015.44982518 Ry
     estimated scf accuracy    <  134720.13805807 Ry

     iteration # 60     ecut=    40.00 Ry     beta= 0.70
     Davidson diagonalization with overlap
     ethr =  8.67E-07,  avg # of iterations =  4.0

     negative rho (up, down):  3.684E+00 0.000E+00

     total cpu time spent up to now is        2.2 secs

     total energy              =    -931.42227300 Ry
     Harris-Foulkes estimate   =    -947.68816708 Ry
     estimated scf accuracy    <  134891.47231260 Ry

     iteration # 61     ecut=    40.00 Ry     beta= 0.70
     Davidson diagonalization with overlap
     ethr =  8.67E-07,  avg # of iterations =  5.0

     negative rho (up, down):  5.322E+00 0.000E+00

     total cpu time spent up to now is        2.3 secs

     total energy              =   -1023.21853435 Ry
     Harris-Foulkes estimate   =    -931.42563275 Ry
     estimated scf accuracy    <  135060.85143404 Ry

     iteration # 62     ecut=    40.00 Ry     beta= 0.70
     Davidson diagonalization with overlap
     ethr =  8.67E-07,  avg # of iterations =  5.0

     negative rho (up, down):  1.959E+03 0.000E+00

     total cpu time spent up to now is        2.3 secs

     total energy              =  130637.29083142 Ry
     Harris-Foulkes estimate   =   -1023.24310015 Ry
     estimated scf accuracy    <  134555.49528955 Ry

     iteration # 63     ecut=    40.00 Ry     beta= 0.70
     Davidson diagonalization with overlap

 %%%%%%%%%%%%%%%%%%%%%%%%%%%%%%%%%%%%%%%%%%%%%%%%%%%%%%%%%%%%%%%%%%%%%%%%%%%%%%
     Error in routine c_bands (1):
     too many bands are not converged
 %%%%%%%%%%%%%%%%%%%%%%%%%%%%%%%%%%%%%%%%%%%%%%%%%%%%%%%%%%%%%%%%%%%%%%%%%%%%%%

     stopping ...
