
     Program PWSCF v.6.3MaX starts on 26Mar2024 at 11:33:17 

     This program is part of the open-source Quantum ESPRESSO suite
     for quantum simulation of materials; please cite
         "P. Giannozzi et al., J. Phys.:Condens. Matter 21 395502 (2009);
         "P. Giannozzi et al., J. Phys.:Condens. Matter 29 465901 (2017);
          URL http://www.quantum-espresso.org", 
     in publications or presentations arising from this work. More details at
     http://www.quantum-espresso.org/quote

     Parallel version (MPI), running on     5 processors

     MPI processes distributed on     1 nodes
     R & G space division:  proc/nbgrp/npool/nimage =       5
     Waiting for input...
     Reading input from standard input

     Current dimensions of program PWSCF are:
     Max number of different atomic species (ntypx) = 10
     Max number of k-points (npk) =  40000
     Max angular momentum in pseudopotentials (lmaxx) =  3

     Subspace diagonalization in iterative solution of the eigenvalue problem:
     a serial algorithm will be used


     Parallelization info
     --------------------
     sticks:   dense  smooth     PW     G-vecs:    dense   smooth      PW
     Min          62      62     21                  765      765     140
     Max          63      63     22                  770      770     141
     Sum         313     313    109                 3839     3839     701



     bravais-lattice index     =            2
     lattice parameter (alat)  =       7.7100  a.u.
     unit-cell volume          =     114.5785 (a.u.)^3
     number of atoms/cell      =            1
     number of atomic types    =            1
     number of electrons       =        11.00
     number of Kohn-Sham states=           10
     kinetic-energy cutoff     =      40.0000  Ry
     charge density cutoff     =     160.0000  Ry
     convergence threshold     =      1.0E-08
     mixing beta               =       0.7000
     number of iterations used =            8  plain     mixing
     Exchange-correlation      = PBE ( 1  4  3  4 0 0)

     celldm(1)=   7.710000  celldm(2)=   0.000000  celldm(3)=   0.000000
     celldm(4)=   0.000000  celldm(5)=   0.000000  celldm(6)=   0.000000

     crystal axes: (cart. coord. in units of alat)
               a(1) = (  -0.500000   0.000000   0.500000 )  
               a(2) = (   0.000000   0.500000   0.500000 )  
               a(3) = (  -0.500000   0.500000   0.000000 )  

     reciprocal axes: (cart. coord. in units 2 pi/alat)
               b(1) = ( -1.000000 -1.000000  1.000000 )  
               b(2) = (  1.000000  1.000000  1.000000 )  
               b(3) = ( -1.000000  1.000000 -1.000000 )  


     PseudoPot. # 1 for Au read from file:
     /home/lorenzo/pseudos/Au/Au.pbe-n-rrkjus_psl.1.0.0.UPF
     MD5 check sum: d7e77ba19504afed2c9b41c931dde4f0
     Pseudo is Ultrasoft + core correction, Zval = 11.0
     Generated using "atomic" code by A. Dal Corso v.6.3
     Using radial grid of 1279 points,  6 beta functions with: 
                l(1) =   0
                l(2) =   0
                l(3) =   1
                l(4) =   1
                l(5) =   2
                l(6) =   2
     Q(r) pseudized with 0 coefficients 


     atomic species   valence    mass     pseudopotential
        Au            11.00   196.96600     Au( 1.00)

     48 Sym. Ops., with inversion, found



   Cartesian axes

     site n.     atom                  positions (alat units)
         1           Au  tau(   1) = (   0.0000000   0.0000000   0.0000000  )

     number of k points=     4  gaussian smearing, width (Ry)=  0.0100
                       cart. coord. in units 2pi/alat
        k(    1) = (   0.0000000   0.0000000   0.0000000), wk =   0.0740741
        k(    2) = (  -0.3333333   0.3333333  -0.3333333), wk =   0.5925926
        k(    3) = (   0.0000000   0.6666667   0.0000000), wk =   0.4444444
        k(    4) = (   0.6666667  -0.0000000   0.6666667), wk =   0.8888889

     Dense  grid:     3839 G-vectors     FFT dimensions: (  24,  24,  24)

     Estimated max dynamical RAM per process >       4.23 MB

     Estimated total dynamical RAM >      21.13 MB

     Initial potential from superposition of free atoms

     starting charge   10.99989, renormalised to   11.00000
     Starting wfcs are    9 randomized atomic wfcs +    1 random wfcs

     total cpu time spent up to now is        1.0 secs

     Self-consistent Calculation

     iteration #  1     ecut=    40.00 Ry     beta= 0.70
     Davidson diagonalization with overlap
     ethr =  1.00E-02,  avg # of iterations =  6.2

     Threshold (ethr) on eigenvalues was too large:
     Diagonalizing with lowered threshold

     Davidson diagonalization with overlap
     ethr =  5.23E-04,  avg # of iterations =  1.5

     total cpu time spent up to now is        1.0 secs

     total energy              =     -85.39857224 Ry
     Harris-Foulkes estimate   =     -85.43472990 Ry
     estimated scf accuracy    <       0.05728521 Ry

     iteration #  2     ecut=    40.00 Ry     beta= 0.70
     Davidson diagonalization with overlap
     ethr =  5.21E-04,  avg # of iterations =  2.5

     total cpu time spent up to now is        1.1 secs

     total energy              =     -85.41361653 Ry
     Harris-Foulkes estimate   =     -85.42000545 Ry
     estimated scf accuracy    <       0.00994884 Ry

     iteration #  3     ecut=    40.00 Ry     beta= 0.70
     Davidson diagonalization with overlap
     ethr =  9.04E-05,  avg # of iterations =  2.0

     total cpu time spent up to now is        1.1 secs

     total energy              =     -85.41607554 Ry
     Harris-Foulkes estimate   =     -85.41612463 Ry
     estimated scf accuracy    <       0.00018193 Ry

     iteration #  4     ecut=    40.00 Ry     beta= 0.70
     Davidson diagonalization with overlap
     ethr =  1.65E-06,  avg # of iterations =  3.5

     total cpu time spent up to now is        1.2 secs

     total energy              =     -85.41615924 Ry
     Harris-Foulkes estimate   =     -85.41619619 Ry
     estimated scf accuracy    <       0.00006707 Ry

     iteration #  5     ecut=    40.00 Ry     beta= 0.70
     Davidson diagonalization with overlap
     ethr =  6.10E-07,  avg # of iterations =  1.5

     total cpu time spent up to now is        1.2 secs

     total energy              =     -85.41616610 Ry
     Harris-Foulkes estimate   =     -85.41616780 Ry
     estimated scf accuracy    <       0.00000304 Ry

     iteration #  6     ecut=    40.00 Ry     beta= 0.70
     Davidson diagonalization with overlap
     ethr =  2.76E-08,  avg # of iterations =  3.2

     total cpu time spent up to now is        1.3 secs

     total energy              =     -85.41616870 Ry
     Harris-Foulkes estimate   =     -85.41616876 Ry
     estimated scf accuracy    <       0.00000028 Ry

     iteration #  7     ecut=    40.00 Ry     beta= 0.70
     Davidson diagonalization with overlap
     ethr =  2.53E-09,  avg # of iterations =  1.2

     total cpu time spent up to now is        1.3 secs

     total energy              =     -85.41616864 Ry
     Harris-Foulkes estimate   =     -85.41616871 Ry
     estimated scf accuracy    <       0.00000014 Ry

     iteration #  8     ecut=    40.00 Ry     beta= 0.70
     Davidson diagonalization with overlap
     ethr =  1.24E-09,  avg # of iterations =  2.2

     total cpu time spent up to now is        1.3 secs

     End of self-consistent calculation

          k = 0.0000 0.0000 0.0000 (   531 PWs)   bands (ev):

     6.0884  11.2559  11.2559  11.2559  12.7692  12.7692  31.4025  35.2512
    35.2512  35.2512

          k =-0.3333 0.3333-0.3333 (   492 PWs)   bands (ev):

     8.4804  11.4045  11.4045  12.0023  13.3930  13.3930  23.9173  31.5761
    35.1482  35.1482

          k = 0.0000 0.6667 0.0000 (   480 PWs)   bands (ev):

     9.0881   9.6404  12.9595  13.2964  13.2964  13.6219  28.2190  28.6121
    28.6121  32.6915

          k = 0.6667-0.0000 0.6667 (   498 PWs)   bands (ev):

     9.7796  10.5903  11.4613  12.6611  13.5463  18.4618  22.4552  23.1806
    30.4697  33.3320

     the Fermi energy is    13.7143 ev

!    total energy              =     -85.41616867 Ry
     Harris-Foulkes estimate   =     -85.41616867 Ry
     estimated scf accuracy    <          3.0E-10 Ry

     The total energy is the sum of the following terms:

     one-electron contribution =      11.08041426 Ry
     hartree contribution      =       7.54777953 Ry
     xc contribution           =     -32.08862904 Ry
     ewald contribution        =     -71.95438540 Ry
     smearing contrib. (-TS)   =      -0.00134802 Ry

     convergence has been achieved in   8 iterations

     Forces acting on atoms (cartesian axes, Ry/au):

     atom    1 type  1   force =     0.00000000    0.00000000    0.00000000

     Total force =     0.000000     Total SCF correction =     0.000000


     Computing stress (Cartesian axis) and pressure

          total   stress  (Ry/bohr**3)                   (kbar)     P=   45.27
   0.00030771  -0.00000000  -0.00000000         45.27     -0.00     -0.00
  -0.00000000   0.00030771   0.00000000         -0.00     45.27      0.00
  -0.00000000   0.00000000   0.00030771         -0.00      0.00     45.27


     Writing output data file Au.save/

     init_run     :      0.15s CPU      0.15s WALL (       1 calls)
     electrons    :      0.34s CPU      0.36s WALL (       1 calls)
     forces       :      0.01s CPU      0.01s WALL (       1 calls)
     stress       :      0.05s CPU      0.05s WALL (       1 calls)

     Called by init_run:
     wfcinit      :      0.01s CPU      0.01s WALL (       1 calls)
     potinit      :      0.01s CPU      0.01s WALL (       1 calls)
     hinit0       :      0.13s CPU      0.13s WALL (       1 calls)

     Called by electrons:
     c_bands      :      0.20s CPU      0.22s WALL (       9 calls)
     sum_band     :      0.08s CPU      0.08s WALL (       9 calls)
     v_of_rho     :      0.03s CPU      0.03s WALL (       9 calls)
     newd         :      0.04s CPU      0.04s WALL (       9 calls)
     mix_rho      :      0.00s CPU      0.00s WALL (       9 calls)

     Called by c_bands:
     init_us_2    :      0.01s CPU      0.01s WALL (      84 calls)
     cegterg      :      0.19s CPU      0.21s WALL (      36 calls)

     Called by sum_band:
     sum_band:bec :      0.00s CPU      0.00s WALL (      36 calls)
     addusdens    :      0.03s CPU      0.04s WALL (       9 calls)

     Called by *egterg:
     h_psi        :      0.14s CPU      0.15s WALL (     136 calls)
     s_psi        :      0.00s CPU      0.01s WALL (     136 calls)
     g_psi        :      0.00s CPU      0.00s WALL (      96 calls)
     cdiaghg      :      0.03s CPU      0.03s WALL (     128 calls)

     Called by h_psi:
     h_psi:pot    :      0.14s CPU      0.15s WALL (     136 calls)
     h_psi:calbec :      0.01s CPU      0.01s WALL (     136 calls)
     vloc_psi     :      0.13s CPU      0.14s WALL (     136 calls)
     add_vuspsi   :      0.00s CPU      0.00s WALL (     136 calls)

     General routines
     calbec       :      0.01s CPU      0.01s WALL (     192 calls)
     fft          :      0.02s CPU      0.02s WALL (     126 calls)
     ffts         :      0.00s CPU      0.00s WALL (       9 calls)
     fftw         :      0.14s CPU      0.15s WALL (    2326 calls)

     Parallel routines
     fft_scatt_xy :      0.01s CPU      0.02s WALL (    2461 calls)
     fft_scatt_yz :      0.05s CPU      0.06s WALL (    2461 calls)

     PWSCF        :     1.36s CPU         1.43s WALL


   This run was terminated on:  11:33:19  26Mar2024            

=------------------------------------------------------------------------------=
   JOB DONE.
=------------------------------------------------------------------------------=
