
     Program PWSCF v.6.3MaX starts on 26Mar2024 at 12:43:19 

     This program is part of the open-source Quantum ESPRESSO suite
     for quantum simulation of materials; please cite
         "P. Giannozzi et al., J. Phys.:Condens. Matter 21 395502 (2009);
         "P. Giannozzi et al., J. Phys.:Condens. Matter 29 465901 (2017);
          URL http://www.quantum-espresso.org", 
     in publications or presentations arising from this work. More details at
     http://www.quantum-espresso.org/quote

     Parallel version (MPI), running on     5 processors

     MPI processes distributed on     1 nodes
     R & G space division:  proc/nbgrp/npool/nimage =       5
     Waiting for input...
     Reading input from standard input

     Current dimensions of program PWSCF are:
     Max number of different atomic species (ntypx) = 10
     Max number of k-points (npk) =  40000
     Max angular momentum in pseudopotentials (lmaxx) =  3
               file Au.pbe-n-kjpaw_psl.1.0.0.UPF: wavefunction(s)  6S 5D renormalized

     Subspace diagonalization in iterative solution of the eigenvalue problem:
     a serial algorithm will be used


     Parallelization info
     --------------------
     sticks:   dense  smooth     PW     G-vecs:    dense   smooth      PW
     Min         153     153     43                 2864     2864     445
     Max         154     154     45                 2867     2867     446
     Sum         769     769    223                14331    14331    2229



     bravais-lattice index     =            2
     lattice parameter (alat)  =       7.7100  a.u.
     unit-cell volume          =     114.5785 (a.u.)^3
     number of atoms/cell      =            1
     number of atomic types    =            1
     number of electrons       =        11.00
     number of Kohn-Sham states=           10
     kinetic-energy cutoff     =      95.0000  Ry
     charge density cutoff     =     380.0000  Ry
     convergence threshold     =      1.0E-08
     mixing beta               =       0.7000
     number of iterations used =            8  plain     mixing
     Exchange-correlation      = SLA PW PBX PBC ( 1  4  3  4 0 0)

     celldm(1)=   7.710000  celldm(2)=   0.000000  celldm(3)=   0.000000
     celldm(4)=   0.000000  celldm(5)=   0.000000  celldm(6)=   0.000000

     crystal axes: (cart. coord. in units of alat)
               a(1) = (  -0.500000   0.000000   0.500000 )  
               a(2) = (   0.000000   0.500000   0.500000 )  
               a(3) = (  -0.500000   0.500000   0.000000 )  

     reciprocal axes: (cart. coord. in units 2 pi/alat)
               b(1) = ( -1.000000 -1.000000  1.000000 )  
               b(2) = (  1.000000  1.000000  1.000000 )  
               b(3) = ( -1.000000  1.000000 -1.000000 )  


     PseudoPot. # 1 for Au read from file:
     /home/lorenzo/pseudos/Au/Au.pbe-n-kjpaw_psl.1.0.0.UPF
     MD5 check sum: 4db85c736373c707a97ce4c36c2a9d23
     Pseudo is Projector augmented-wave + core cor, Zval = 11.0
     Generated using "atomic" code by A. Dal Corso v.6.3
     Shape of augmentation charge: PSQ
     Using radial grid of 1279 points,  6 beta functions with: 
                l(1) =   0
                l(2) =   0
                l(3) =   1
                l(4) =   1
                l(5) =   2
                l(6) =   2
     Q(r) pseudized with 0 coefficients 


     atomic species   valence    mass     pseudopotential
        Au            11.00   196.96600     Au( 1.00)

     48 Sym. Ops., with inversion, found



   Cartesian axes

     site n.     atom                  positions (alat units)
         1           Au  tau(   1) = (   0.0000000   0.0000000   0.0000000  )

     number of k points=     4  gaussian smearing, width (Ry)=  0.0100
                       cart. coord. in units 2pi/alat
        k(    1) = (   0.0000000   0.0000000   0.0000000), wk =   0.0740741
        k(    2) = (  -0.3333333   0.3333333  -0.3333333), wk =   0.5925926
        k(    3) = (   0.0000000   0.6666667   0.0000000), wk =   0.4444444
        k(    4) = (   0.6666667  -0.0000000   0.6666667), wk =   0.8888889

     Dense  grid:    14331 G-vectors     FFT dimensions: (  36,  36,  36)

     Estimated max dynamical RAM per process >      12.98 MB

     Estimated total dynamical RAM >      64.92 MB

     Initial potential from superposition of free atoms

     starting charge   10.99989, renormalised to   11.00000
     Starting wfcs are    9 randomized atomic wfcs +    1 random wfcs
     Checking if some PAW data can be deallocated... 

     total cpu time spent up to now is        1.3 secs

     Self-consistent Calculation

     iteration #  1     ecut=    95.00 Ry     beta= 0.70
     Davidson diagonalization with overlap
     ethr =  1.00E-02,  avg # of iterations =  6.8

     Threshold (ethr) on eigenvalues was too large:
     Diagonalizing with lowered threshold

     Davidson diagonalization with overlap
     ethr =  5.19E-04,  avg # of iterations =  1.5

     total cpu time spent up to now is        1.6 secs

     total energy              =    -775.14584404 Ry
     Harris-Foulkes estimate   =    -775.18449839 Ry
     estimated scf accuracy    <       0.05669981 Ry

     iteration #  2     ecut=    95.00 Ry     beta= 0.70
     Davidson diagonalization with overlap
     ethr =  5.15E-04,  avg # of iterations =  2.8

     total cpu time spent up to now is        1.8 secs

     total energy              =    -775.16289818 Ry
     Harris-Foulkes estimate   =    -775.17123820 Ry
     estimated scf accuracy    <       0.01332611 Ry

     iteration #  3     ecut=    95.00 Ry     beta= 0.70
     Davidson diagonalization with overlap
     ethr =  1.21E-04,  avg # of iterations =  2.0

     total cpu time spent up to now is        2.0 secs

     total energy              =    -775.16598259 Ry
     Harris-Foulkes estimate   =    -775.16598968 Ry
     estimated scf accuracy    <       0.00023676 Ry

     iteration #  4     ecut=    95.00 Ry     beta= 0.70
     Davidson diagonalization with overlap
     ethr =  2.15E-06,  avg # of iterations =  3.8

     total cpu time spent up to now is        2.3 secs

     total energy              =    -775.16616999 Ry
     Harris-Foulkes estimate   =    -775.16622986 Ry
     estimated scf accuracy    <       0.00013762 Ry

     iteration #  5     ecut=    95.00 Ry     beta= 0.70
     Davidson diagonalization with overlap
     ethr =  1.25E-06,  avg # of iterations =  1.0

     total cpu time spent up to now is        2.5 secs

     total energy              =    -775.16616719 Ry
     Harris-Foulkes estimate   =    -775.16618015 Ry
     estimated scf accuracy    <       0.00001918 Ry

     iteration #  6     ecut=    95.00 Ry     beta= 0.70
     Davidson diagonalization with overlap
     ethr =  1.74E-07,  avg # of iterations =  3.0

     total cpu time spent up to now is        2.7 secs

     total energy              =    -775.16617603 Ry
     Harris-Foulkes estimate   =    -775.16617731 Ry
     estimated scf accuracy    <       0.00000258 Ry

     iteration #  7     ecut=    95.00 Ry     beta= 0.70
     Davidson diagonalization with overlap
     ethr =  2.35E-08,  avg # of iterations =  1.8

     total cpu time spent up to now is        2.9 secs

     total energy              =    -775.16617626 Ry
     Harris-Foulkes estimate   =    -775.16617636 Ry
     estimated scf accuracy    <       0.00000019 Ry

     iteration #  8     ecut=    95.00 Ry     beta= 0.70
     Davidson diagonalization with overlap
     ethr =  1.72E-09,  avg # of iterations =  3.2

     total cpu time spent up to now is        3.1 secs

     total energy              =    -775.16617638 Ry
     Harris-Foulkes estimate   =    -775.16617639 Ry
     estimated scf accuracy    <       0.00000002 Ry

     iteration #  9     ecut=    95.00 Ry     beta= 0.70
     Davidson diagonalization with overlap
     ethr =  1.72E-10,  avg # of iterations =  1.8

     total cpu time spent up to now is        3.3 secs

     End of self-consistent calculation

          k = 0.0000 0.0000 0.0000 (  1807 PWs)   bands (ev):

     6.0648  11.2043  11.2043  11.2043  12.7119  12.7119  31.3958  35.2329
    35.2329  35.2329

          k =-0.3333 0.3333-0.3333 (  1820 PWs)   bands (ev):

     8.4486  11.3528  11.3528  11.9644  13.3333  13.3333  23.8756  31.5639
    35.1126  35.1126

          k = 0.0000 0.6667 0.0000 (  1752 PWs)   bands (ev):

     9.0528   9.5956  12.9227  13.2374  13.2374  13.5611  28.1779  28.5794
    28.5794  32.6580

          k = 0.6667-0.0000 0.6667 (  1790 PWs)   bands (ev):

     9.7363  10.5476  11.4141  12.6056  13.4856  18.4220  22.4125  23.1375
    30.4341  33.3022

     the Fermi energy is    13.6536 ev

!    total energy              =    -775.16617638 Ry
     Harris-Foulkes estimate   =    -775.16617638 Ry
     estimated scf accuracy    <          3.5E-10 Ry

     total all-electron energy =    -38024.012267 Ry

     The total energy is the sum of the following terms:

     one-electron contribution =      13.82912650 Ry
     hartree contribution      =       7.58676184 Ry
     xc contribution           =     -32.10449992 Ry
     ewald contribution        =     -71.95438534 Ry
     one-center paw contrib.   =    -692.52183101 Ry
     smearing contrib. (-TS)   =      -0.00134846 Ry

     convergence has been achieved in   9 iterations

     Forces acting on atoms (cartesian axes, Ry/au):

     atom    1 type  1   force =     0.00000000    0.00000000    0.00000000

     Total force =     0.000000     Total SCF correction =     0.000000


     Computing stress (Cartesian axis) and pressure

          total   stress  (Ry/bohr**3)                   (kbar)     P=   43.36
   0.00029473   0.00000000   0.00000000         43.36      0.00      0.00
   0.00000000   0.00029473   0.00000000          0.00     43.36      0.00
   0.00000000   0.00000000   0.00029473          0.00      0.00     43.36


     Writing output data file Au.save/

     init_run     :      0.39s CPU      0.41s WALL (       1 calls)
     electrons    :      1.93s CPU      2.01s WALL (       1 calls)
     forces       :      0.04s CPU      0.05s WALL (       1 calls)
     stress       :      0.14s CPU      0.14s WALL (       1 calls)

     Called by init_run:
     wfcinit      :      0.02s CPU      0.02s WALL (       1 calls)
     potinit      :      0.12s CPU      0.14s WALL (       1 calls)
     hinit0       :      0.22s CPU      0.22s WALL (       1 calls)

     Called by electrons:
     c_bands      :      0.58s CPU      0.62s WALL (      10 calls)
     sum_band     :      0.26s CPU      0.27s WALL (      10 calls)
     v_of_rho     :      0.09s CPU      0.09s WALL (      10 calls)
     newd         :      0.14s CPU      0.14s WALL (      10 calls)
     PAW_pot      :      0.96s CPU      1.00s WALL (      10 calls)
     mix_rho      :      0.01s CPU      0.01s WALL (      10 calls)

     Called by c_bands:
     init_us_2    :      0.02s CPU      0.02s WALL (      92 calls)
     cegterg      :      0.55s CPU      0.59s WALL (      40 calls)

     Called by sum_band:
     sum_band:bec :      0.00s CPU      0.00s WALL (      40 calls)
     addusdens    :      0.13s CPU      0.13s WALL (      10 calls)

     Called by *egterg:
     h_psi        :      0.46s CPU      0.49s WALL (     154 calls)
     s_psi        :      0.01s CPU      0.02s WALL (     154 calls)
     g_psi        :      0.00s CPU      0.00s WALL (     110 calls)
     cdiaghg      :      0.03s CPU      0.03s WALL (     146 calls)

     Called by h_psi:
     h_psi:pot    :      0.45s CPU      0.49s WALL (     154 calls)
     h_psi:calbec :      0.02s CPU      0.02s WALL (     154 calls)
     vloc_psi     :      0.42s CPU      0.45s WALL (     154 calls)
     add_vuspsi   :      0.01s CPU      0.02s WALL (     154 calls)

     General routines
     calbec       :      0.03s CPU      0.03s WALL (     214 calls)
     fft          :      0.06s CPU      0.06s WALL (     137 calls)
     ffts         :      0.00s CPU      0.00s WALL (      10 calls)
     fftw         :      0.46s CPU      0.50s WALL (    2604 calls)

     Parallel routines
     fft_scatt_xy :      0.04s CPU      0.05s WALL (    2751 calls)
     fft_scatt_yz :      0.12s CPU      0.13s WALL (    2751 calls)

     PWSCF        :     3.39s CPU         3.52s WALL


   This run was terminated on:  12:43:23  26Mar2024            

=------------------------------------------------------------------------------=
   JOB DONE.
=------------------------------------------------------------------------------=
