
     Program PWSCF v.6.3MaX starts on 26Mar2024 at 11:22:27 

     This program is part of the open-source Quantum ESPRESSO suite
     for quantum simulation of materials; please cite
         "P. Giannozzi et al., J. Phys.:Condens. Matter 21 395502 (2009);
         "P. Giannozzi et al., J. Phys.:Condens. Matter 29 465901 (2017);
          URL http://www.quantum-espresso.org", 
     in publications or presentations arising from this work. More details at
     http://www.quantum-espresso.org/quote

     Parallel version (MPI), running on     5 processors

     MPI processes distributed on     1 nodes
     R & G space division:  proc/nbgrp/npool/nimage =       5
     Waiting for input...
     Reading input from standard input

     Current dimensions of program PWSCF are:
     Max number of different atomic species (ntypx) = 10
     Max number of k-points (npk) =  40000
     Max angular momentum in pseudopotentials (lmaxx) =  3

     Subspace diagonalization in iterative solution of the eigenvalue problem:
     a serial algorithm will be used


     Parallelization info
     --------------------
     sticks:   dense  smooth     PW     G-vecs:    dense   smooth      PW
     Min          39      39     14                  381      381      82
     Max          40      40     15                  384      384      83
     Sum         199     199     73                 1917     1917     411



     bravais-lattice index     =            2
     lattice parameter (alat)  =       7.7100  a.u.
     unit-cell volume          =     114.5785 (a.u.)^3
     number of atoms/cell      =            1
     number of atomic types    =            1
     number of electrons       =        11.00
     number of Kohn-Sham states=           10
     kinetic-energy cutoff     =      25.0000  Ry
     charge density cutoff     =     100.0000  Ry
     convergence threshold     =      1.0E-08
     mixing beta               =       0.7000
     number of iterations used =            8  plain     mixing
     Exchange-correlation      = PBESOL ( 1  4 10  8 0 0)

     celldm(1)=   7.710000  celldm(2)=   0.000000  celldm(3)=   0.000000
     celldm(4)=   0.000000  celldm(5)=   0.000000  celldm(6)=   0.000000

     crystal axes: (cart. coord. in units of alat)
               a(1) = (  -0.500000   0.000000   0.500000 )  
               a(2) = (   0.000000   0.500000   0.500000 )  
               a(3) = (  -0.500000   0.500000   0.000000 )  

     reciprocal axes: (cart. coord. in units 2 pi/alat)
               b(1) = ( -1.000000 -1.000000  1.000000 )  
               b(2) = (  1.000000  1.000000  1.000000 )  
               b(3) = ( -1.000000  1.000000 -1.000000 )  


     PseudoPot. # 1 for Au read from file:
     /home/lorenzo/pseudos/Au/Au.pbesol-n-rrkjus_psl.1.0.0.UPF
     MD5 check sum: 09626e9411213730b9a56fcc59c03ca8
     Pseudo is Ultrasoft + core correction, Zval = 11.0
     Generated using "atomic" code by A. Dal Corso v.6.3
     Using radial grid of 1279 points,  6 beta functions with: 
                l(1) =   0
                l(2) =   0
                l(3) =   1
                l(4) =   1
                l(5) =   2
                l(6) =   2
     Q(r) pseudized with 0 coefficients 


     atomic species   valence    mass     pseudopotential
        Au            11.00   196.96600     Au( 1.00)

     48 Sym. Ops., with inversion, found



   Cartesian axes

     site n.     atom                  positions (alat units)
         1           Au  tau(   1) = (   0.0000000   0.0000000   0.0000000  )

     number of k points=    16  gaussian smearing, width (Ry)=  0.0100
                       cart. coord. in units 2pi/alat
        k(    1) = (   0.0000000   0.0000000   0.0000000), wk =   0.0092593
        k(    2) = (  -0.1666667   0.1666667  -0.1666667), wk =   0.0740741
        k(    3) = (  -0.3333333   0.3333333  -0.3333333), wk =   0.0740741
        k(    4) = (   0.5000000  -0.5000000   0.5000000), wk =   0.0370370
        k(    5) = (   0.0000000   0.3333333   0.0000000), wk =   0.0555556
        k(    6) = (  -0.1666667   0.5000000  -0.1666667), wk =   0.2222222
        k(    7) = (   0.6666667  -0.3333333   0.6666667), wk =   0.2222222
        k(    8) = (   0.5000000  -0.1666667   0.5000000), wk =   0.2222222
        k(    9) = (   0.3333333   0.0000000   0.3333333), wk =   0.1111111
        k(   10) = (   0.0000000   0.6666667   0.0000000), wk =   0.0555556
        k(   11) = (   0.8333333  -0.1666667   0.8333333), wk =   0.2222222
        k(   12) = (   0.6666667  -0.0000000   0.6666667), wk =   0.1111111
        k(   13) = (   0.0000000  -1.0000000   0.0000000), wk =   0.0277778
        k(   14) = (   0.6666667  -0.3333333   1.0000000), wk =   0.2222222
        k(   15) = (   0.5000000  -0.1666667   0.8333333), wk =   0.2222222
        k(   16) = (  -0.3333333  -1.0000000   0.0000000), wk =   0.1111111

     Dense  grid:     1917 G-vectors     FFT dimensions: (  18,  18,  18)

     Estimated max dynamical RAM per process >       2.54 MB

     Estimated total dynamical RAM >      12.70 MB

     Initial potential from superposition of free atoms

     starting charge   10.99990, renormalised to   11.00000
     Starting wfcs are    9 randomized atomic wfcs +    1 random wfcs

     total cpu time spent up to now is        1.0 secs

     Self-consistent Calculation

     iteration #  1     ecut=    25.00 Ry     beta= 0.70
     Davidson diagonalization with overlap
     ethr =  1.00E-02,  avg # of iterations =  5.2

     Threshold (ethr) on eigenvalues was too large:
     Diagonalizing with lowered threshold

     Davidson diagonalization with overlap
     ethr =  5.11E-04,  avg # of iterations =  1.4

     total cpu time spent up to now is        1.2 secs

     total energy              =     -85.17937528 Ry
     Harris-Foulkes estimate   =     -85.21560851 Ry
     estimated scf accuracy    <       0.05593752 Ry

     iteration #  2     ecut=    25.00 Ry     beta= 0.70
     Davidson diagonalization with overlap
     ethr =  5.09E-04,  avg # of iterations =  2.2

     total cpu time spent up to now is        1.3 secs

     total energy              =     -85.19435824 Ry
     Harris-Foulkes estimate   =     -85.20111014 Ry
     estimated scf accuracy    <       0.01118843 Ry

     iteration #  3     ecut=    25.00 Ry     beta= 0.70
     Davidson diagonalization with overlap
     ethr =  1.02E-04,  avg # of iterations =  3.3

     total cpu time spent up to now is        1.4 secs

     total energy              =     -85.20219890 Ry
     Harris-Foulkes estimate   =     -85.19941223 Ry
     estimated scf accuracy    <       0.00911888 Ry

     iteration #  4     ecut=    25.00 Ry     beta= 0.70
     Davidson diagonalization with overlap
     ethr =  8.29E-05,  avg # of iterations =  3.5

     total cpu time spent up to now is        1.4 secs

     total energy              =     -85.19596682 Ry
     Harris-Foulkes estimate   =     -85.20363428 Ry
     estimated scf accuracy    <       0.04076921 Ry

     iteration #  5     ecut=    25.00 Ry     beta= 0.70
     Davidson diagonalization with overlap
     ethr =  8.29E-05,  avg # of iterations =  3.4

     total cpu time spent up to now is        1.5 secs

     total energy              =     -85.19703268 Ry
     Harris-Foulkes estimate   =     -85.19868579 Ry
     estimated scf accuracy    <       0.00613423 Ry

     iteration #  6     ecut=    25.00 Ry     beta= 0.70
     Davidson diagonalization with overlap
     ethr =  5.58E-05,  avg # of iterations =  2.3

     total cpu time spent up to now is        1.6 secs

     total energy              =     -85.19733042 Ry
     Harris-Foulkes estimate   =     -85.19745295 Ry
     estimated scf accuracy    <       0.00185931 Ry

     iteration #  7     ecut=    25.00 Ry     beta= 0.70
     Davidson diagonalization with overlap
     ethr =  1.69E-05,  avg # of iterations =  1.5

     total cpu time spent up to now is        1.7 secs

     total energy              =     -85.19745969 Ry
     Harris-Foulkes estimate   =     -85.19735002 Ry
     estimated scf accuracy    <       0.00160025 Ry

     iteration #  8     ecut=    25.00 Ry     beta= 0.70
     Davidson diagonalization with overlap
     ethr =  1.45E-05,  avg # of iterations =  1.0

     total cpu time spent up to now is        1.7 secs

     total energy              =     -85.19788216 Ry
     Harris-Foulkes estimate   =     -85.19746317 Ry
     estimated scf accuracy    <       0.00168279 Ry

     iteration #  9     ecut=    25.00 Ry     beta= 0.70
     Davidson diagonalization with overlap
     ethr =  1.45E-05,  avg # of iterations =  2.2

     total cpu time spent up to now is        1.8 secs

     total energy              =     -85.19601581 Ry
     Harris-Foulkes estimate   =     -85.19797312 Ry
     estimated scf accuracy    <       0.00330070 Ry

     iteration # 10     ecut=    25.00 Ry     beta= 0.70
     Davidson diagonalization with overlap
     ethr =  1.45E-05,  avg # of iterations =  3.6

     total cpu time spent up to now is        1.9 secs

     total energy              =     -85.19679812 Ry
     Harris-Foulkes estimate   =     -85.19684776 Ry
     estimated scf accuracy    <       0.00017153 Ry

     iteration # 11     ecut=    25.00 Ry     beta= 0.70
     Davidson diagonalization with overlap
     ethr =  1.56E-06,  avg # of iterations =  2.1

     total cpu time spent up to now is        1.9 secs

     total energy              =     -85.19669555 Ry
     Harris-Foulkes estimate   =     -85.19680682 Ry
     estimated scf accuracy    <       0.00008944 Ry

     iteration # 12     ecut=    25.00 Ry     beta= 0.70
     Davidson diagonalization with overlap
     ethr =  8.13E-07,  avg # of iterations =  3.4

     total cpu time spent up to now is        2.0 secs

     total energy              =     -85.19677582 Ry
     Harris-Foulkes estimate   =     -85.19677080 Ry
     estimated scf accuracy    <       0.00000572 Ry

     iteration # 13     ecut=    25.00 Ry     beta= 0.70
     Davidson diagonalization with overlap
     ethr =  5.20E-08,  avg # of iterations =  2.2

     total cpu time spent up to now is        2.1 secs

     total energy              =     -85.19677278 Ry
     Harris-Foulkes estimate   =     -85.19677832 Ry
     estimated scf accuracy    <       0.00001966 Ry

     iteration # 14     ecut=    25.00 Ry     beta= 0.70
     Davidson diagonalization with overlap
     ethr =  5.20E-08,  avg # of iterations =  2.1

     total cpu time spent up to now is        2.2 secs

     total energy              =     -85.19678038 Ry
     Harris-Foulkes estimate   =     -85.19677351 Ry
     estimated scf accuracy    <       0.00001134 Ry

     iteration # 15     ecut=    25.00 Ry     beta= 0.70
     Davidson diagonalization with overlap
     ethr =  5.20E-08,  avg # of iterations =  2.0

     total cpu time spent up to now is        2.2 secs

     total energy              =     -85.19672717 Ry
     Harris-Foulkes estimate   =     -85.19678243 Ry
     estimated scf accuracy    <       0.00002708 Ry

     iteration # 16     ecut=    25.00 Ry     beta= 0.70
     Davidson diagonalization with overlap
     ethr =  5.20E-08,  avg # of iterations =  3.4

     total cpu time spent up to now is        2.3 secs

     total energy              =     -85.19677646 Ry
     Harris-Foulkes estimate   =     -85.19677775 Ry
     estimated scf accuracy    <       0.00001982 Ry

     iteration # 17     ecut=    25.00 Ry     beta= 0.70
     Davidson diagonalization with overlap
     ethr =  5.20E-08,  avg # of iterations =  1.0

     total cpu time spent up to now is        2.4 secs

     total energy              =     -85.19677340 Ry
     Harris-Foulkes estimate   =     -85.19677651 Ry
     estimated scf accuracy    <       0.00001773 Ry

     iteration # 18     ecut=    25.00 Ry     beta= 0.70
     Davidson diagonalization with overlap
     ethr =  5.20E-08,  avg # of iterations =  1.7

     total cpu time spent up to now is        2.5 secs

     total energy              =     -85.19675674 Ry
     Harris-Foulkes estimate   =     -85.19677374 Ry
     estimated scf accuracy    <       0.00001182 Ry

     iteration # 19     ecut=    25.00 Ry     beta= 0.70
     Davidson diagonalization with overlap
     ethr =  5.20E-08,  avg # of iterations =  2.8

     total cpu time spent up to now is        2.5 secs

     total energy              =     -85.19676721 Ry
     Harris-Foulkes estimate   =     -85.19676873 Ry
     estimated scf accuracy    <       0.00000157 Ry

     iteration # 20     ecut=    25.00 Ry     beta= 0.70
     Davidson diagonalization with overlap
     ethr =  1.43E-08,  avg # of iterations =  2.1

     total cpu time spent up to now is        2.6 secs

     total energy              =     -85.19676792 Ry
     Harris-Foulkes estimate   =     -85.19676792 Ry
     estimated scf accuracy    <       0.00000002 Ry

     iteration # 21     ecut=    25.00 Ry     beta= 0.70
     Davidson diagonalization with overlap
     ethr =  1.43E-10,  avg # of iterations =  3.6

     total cpu time spent up to now is        2.7 secs

     End of self-consistent calculation

          k = 0.0000 0.0000 0.0000 (   259 PWs)   bands (ev):

     5.8385  11.1645  11.1645  11.1645  12.7086  12.7086  31.1347  35.0042
    35.0042  35.0042

          k =-0.1667 0.1667-0.1667 (   250 PWs)   bands (ev):

     6.7577  10.9376  11.4137  11.4137  12.6573  12.6573  30.3948  32.2077
    35.8555  35.8555

          k =-0.3333 0.3333-0.3333 (   238 PWs)   bands (ev):

     8.2964  11.3201  11.3201  11.8287  13.3326  13.3326  23.8147  31.3451
    35.0205  35.0205

          k = 0.5000-0.5000 0.5000 (   242 PWs)   bands (ev):

     8.4804  11.1277  11.1277  13.9307  13.9307  14.7640  18.9640  30.4176
    33.3672  33.3672

          k = 0.0000 0.3333 0.0000 (   246 PWs)   bands (ev):

     7.0747  10.5670  11.7424  11.7424  12.1031  12.9842  32.5623  32.7412
    33.2587  33.2587

          k =-0.1667 0.5000-0.1667 (   243 PWs)   bands (ev):

     8.6190  10.3496  11.2923  11.9836  13.2876  13.5308  26.4557  31.5539
    32.0127  33.7107

          k = 0.6667-0.3333 0.6667 (   241 PWs)   bands (ev):

     9.0952  10.7510  11.7122  11.7921  13.9740  16.4959  20.0121  29.6588
    31.3094  32.2423

          k = 0.5000-0.1667 0.5000 (   244 PWs)   bands (ev):

     9.1720  10.8840  11.5482  11.6907  13.1707  15.5426  22.1889  28.6679
    32.2424  34.0285

          k = 0.3333 0.0000 0.3333 (   243 PWs)   bands (ev):

     8.0943  10.5812  11.4326  11.9241  12.1383  13.6311  28.0868  30.1557
    34.5673  35.3162

          k = 0.0000 0.6667 0.0000 (   238 PWs)   bands (ev):

     8.9254   9.5352  12.7820  13.2244  13.2244  13.5716  28.0151  28.4515
    28.4515  32.4704

          k = 0.8333-0.1667 0.8333 (   237 PWs)   bands (ev):

     9.1671   9.6105  12.4024  13.1087  14.0823  16.9804  22.4204  25.6199
    27.7543  33.8789

          k = 0.6667-0.0000 0.6667 (   236 PWs)   bands (ev):

     9.6655  10.4655  11.3441  12.5929  13.4828  18.2929  22.3598  23.0142
    30.2611  33.3099

          k = 0.0000-1.0000 0.0000 (   230 PWs)   bands (ev):

     8.7415   9.0814  13.8821  14.2647  14.2647  16.7740  21.6322  25.9753
    25.9753  33.1466

          k = 0.6667-0.3333 1.0000 (   241 PWs)   bands (ev):

     9.8038  10.0879  10.8364  12.8570  13.2144  15.7678  24.4363  26.2643
    29.4575  36.4035

          k = 0.5000-0.1667 0.8333 (   244 PWs)   bands (ev):

    10.0562  10.1640  11.0706  12.4475  13.8397  19.1969  19.9750  25.7183
    27.6079  35.7175

          k =-0.3333-1.0000 0.0000 (   244 PWs)   bands (ev):

     9.4888   9.7939  11.8711  12.9806  14.2644  20.0453  20.7958  24.1115
    25.3866  37.5251

     the Fermi energy is    15.7994 ev

!    total energy              =     -85.19676796 Ry
     Harris-Foulkes estimate   =     -85.19676793 Ry
     estimated scf accuracy    <          5.1E-09 Ry

     The total energy is the sum of the following terms:

     one-electron contribution =      11.01828652 Ry
     hartree contribution      =       7.55620569 Ry
     xc contribution           =     -31.81626306 Ry
     ewald contribution        =     -71.95438543 Ry
     smearing contrib. (-TS)   =      -0.00061168 Ry

     convergence has been achieved in  21 iterations

     Forces acting on atoms (cartesian axes, Ry/au):

     atom    1 type  1   force =     0.00000000    0.00000000    0.00000000

     Total force =     0.000000     Total SCF correction =     0.000000


     Computing stress (Cartesian axis) and pressure

          total   stress  (Ry/bohr**3)                   (kbar)     P=   23.55
   0.00016006  -0.00000000  -0.00000000         23.55     -0.00     -0.00
  -0.00000000   0.00016006   0.00000000         -0.00     23.55      0.00
  -0.00000000   0.00000000   0.00016006         -0.00      0.00     23.55


     Writing output data file Au.save/

     init_run     :      0.12s CPU      0.13s WALL (       1 calls)
     electrons    :      1.55s CPU      1.69s WALL (       1 calls)
     forces       :      0.01s CPU      0.01s WALL (       1 calls)
     stress       :      0.03s CPU      0.03s WALL (       1 calls)

     Called by init_run:
     wfcinit      :      0.02s CPU      0.02s WALL (       1 calls)
     potinit      :      0.00s CPU      0.00s WALL (       1 calls)
     hinit0       :      0.10s CPU      0.10s WALL (       1 calls)

     Called by electrons:
     c_bands      :      1.24s CPU      1.36s WALL (      22 calls)
     sum_band     :      0.23s CPU      0.25s WALL (      22 calls)
     v_of_rho     :      0.03s CPU      0.04s WALL (      22 calls)
     newd         :      0.04s CPU      0.04s WALL (      22 calls)
     mix_rho      :      0.01s CPU      0.01s WALL (      22 calls)

     Called by c_bands:
     init_us_2    :      0.03s CPU      0.03s WALL (     752 calls)
     cegterg      :      1.19s CPU      1.30s WALL (     352 calls)

     Called by sum_band:
     sum_band:bec :      0.00s CPU      0.00s WALL (     352 calls)
     addusdens    :      0.04s CPU      0.04s WALL (      22 calls)

     Called by *egterg:
     h_psi        :      0.80s CPU      0.87s WALL (    1264 calls)
     s_psi        :      0.02s CPU      0.03s WALL (    1264 calls)
     g_psi        :      0.00s CPU      0.00s WALL (     896 calls)
     cdiaghg      :      0.23s CPU      0.26s WALL (    1232 calls)

     Called by h_psi:
     h_psi:pot    :      0.79s CPU      0.87s WALL (    1264 calls)
     h_psi:calbec :      0.04s CPU      0.05s WALL (    1264 calls)
     vloc_psi     :      0.72s CPU      0.79s WALL (    1264 calls)
     add_vuspsi   :      0.02s CPU      0.03s WALL (    1264 calls)

     General routines
     calbec       :      0.06s CPU      0.06s WALL (    1696 calls)
     fft          :      0.02s CPU      0.02s WALL (     269 calls)
     ffts         :      0.00s CPU      0.00s WALL (      22 calls)
     fftw         :      0.80s CPU      0.88s WALL (   21812 calls)

     Parallel routines
     fft_scatt_xy :      0.08s CPU      0.08s WALL (   22103 calls)
     fft_scatt_yz :      0.27s CPU      0.30s WALL (   22103 calls)

     PWSCF        :     2.72s CPU         2.92s WALL


   This run was terminated on:  11:22:30  26Mar2024            

=------------------------------------------------------------------------------=
   JOB DONE.
=------------------------------------------------------------------------------=
