
     Program PWSCF v.6.3MaX starts on 26Mar2024 at 11:47:25 

     This program is part of the open-source Quantum ESPRESSO suite
     for quantum simulation of materials; please cite
         "P. Giannozzi et al., J. Phys.:Condens. Matter 21 395502 (2009);
         "P. Giannozzi et al., J. Phys.:Condens. Matter 29 465901 (2017);
          URL http://www.quantum-espresso.org", 
     in publications or presentations arising from this work. More details at
     http://www.quantum-espresso.org/quote

     Parallel version (MPI), running on     5 processors

     MPI processes distributed on     1 nodes
     R & G space division:  proc/nbgrp/npool/nimage =       5
     Waiting for input...
     Reading input from standard input

     Current dimensions of program PWSCF are:
     Max number of different atomic species (ntypx) = 10
     Max number of k-points (npk) =  40000
     Max angular momentum in pseudopotentials (lmaxx) =  3
               file Au.pbe-n-kjpaw_psl.1.0.0.UPF: wavefunction(s)  6S 5D renormalized

     Subspace diagonalization in iterative solution of the eigenvalue problem:
     a serial algorithm will be used


     Parallelization info
     --------------------
     sticks:   dense  smooth     PW     G-vecs:    dense   smooth      PW
     Min          89      89     27                 1260     1260     213
     Max          92      92     28                 1261     1261     214
     Sum         451     451    139                 6303     6303    1067



     bravais-lattice index     =            2
     lattice parameter (alat)  =       7.7100  a.u.
     unit-cell volume          =     114.5785 (a.u.)^3
     number of atoms/cell      =            1
     number of atomic types    =            1
     number of electrons       =        11.00
     number of Kohn-Sham states=           10
     kinetic-energy cutoff     =      55.0000  Ry
     charge density cutoff     =     220.0000  Ry
     convergence threshold     =      1.0E-08
     mixing beta               =       0.7000
     number of iterations used =            8  plain     mixing
     Exchange-correlation      = SLA PW PBX PBC ( 1  4  3  4 0 0)

     celldm(1)=   7.710000  celldm(2)=   0.000000  celldm(3)=   0.000000
     celldm(4)=   0.000000  celldm(5)=   0.000000  celldm(6)=   0.000000

     crystal axes: (cart. coord. in units of alat)
               a(1) = (  -0.500000   0.000000   0.500000 )  
               a(2) = (   0.000000   0.500000   0.500000 )  
               a(3) = (  -0.500000   0.500000   0.000000 )  

     reciprocal axes: (cart. coord. in units 2 pi/alat)
               b(1) = ( -1.000000 -1.000000  1.000000 )  
               b(2) = (  1.000000  1.000000  1.000000 )  
               b(3) = ( -1.000000  1.000000 -1.000000 )  


     PseudoPot. # 1 for Au read from file:
     /home/lorenzo/pseudos/Au/Au.pbe-n-kjpaw_psl.1.0.0.UPF
     MD5 check sum: 4db85c736373c707a97ce4c36c2a9d23
     Pseudo is Projector augmented-wave + core cor, Zval = 11.0
     Generated using "atomic" code by A. Dal Corso v.6.3
     Shape of augmentation charge: PSQ
     Using radial grid of 1279 points,  6 beta functions with: 
                l(1) =   0
                l(2) =   0
                l(3) =   1
                l(4) =   1
                l(5) =   2
                l(6) =   2
     Q(r) pseudized with 0 coefficients 


     atomic species   valence    mass     pseudopotential
        Au            11.00   196.96600     Au( 1.00)

     48 Sym. Ops., with inversion, found



   Cartesian axes

     site n.     atom                  positions (alat units)
         1           Au  tau(   1) = (   0.0000000   0.0000000   0.0000000  )

     number of k points=     3  gaussian smearing, width (Ry)=  0.0100
                       cart. coord. in units 2pi/alat
        k(    1) = (   0.0000000   0.0000000   0.0000000), wk =   0.2500000
        k(    2) = (   0.5000000  -0.5000000   0.5000000), wk =   1.0000000
        k(    3) = (   0.0000000  -1.0000000   0.0000000), wk =   0.7500000

     Dense  grid:     6303 G-vectors     FFT dimensions: (  25,  25,  25)

     Estimated max dynamical RAM per process >       6.21 MB

     Estimated total dynamical RAM >      31.03 MB

     Initial potential from superposition of free atoms

     starting charge   10.99989, renormalised to   11.00000
     Starting wfcs are    9 randomized atomic wfcs +    1 random wfcs
     Checking if some PAW data can be deallocated... 

     total cpu time spent up to now is        1.3 secs

     Self-consistent Calculation

     iteration #  1     ecut=    55.00 Ry     beta= 0.70
     Davidson diagonalization with overlap
     ethr =  1.00E-02,  avg # of iterations =  7.3

     Threshold (ethr) on eigenvalues was too large:
     Diagonalizing with lowered threshold

     Davidson diagonalization with overlap
     ethr =  3.66E-04,  avg # of iterations =  3.0

     total cpu time spent up to now is        1.5 secs

     total energy              =    -774.87318082 Ry
     Harris-Foulkes estimate   =    -774.89497758 Ry
     estimated scf accuracy    <       0.03873450 Ry

     iteration #  2     ecut=    55.00 Ry     beta= 0.70
     Davidson diagonalization with overlap
     ethr =  3.52E-04,  avg # of iterations =  2.7

     total cpu time spent up to now is        1.7 secs

     total energy              =    -774.88747847 Ry
     Harris-Foulkes estimate   =    -774.90114717 Ry
     estimated scf accuracy    <       0.02542849 Ry

     iteration #  3     ecut=    55.00 Ry     beta= 0.70
     Davidson diagonalization with overlap
     ethr =  2.31E-04,  avg # of iterations =  1.7

     total cpu time spent up to now is        1.8 secs

     total energy              =    -774.88802238 Ry
     Harris-Foulkes estimate   =    -774.89015230 Ry
     estimated scf accuracy    <       0.00286493 Ry

     iteration #  4     ecut=    55.00 Ry     beta= 0.70
     Davidson diagonalization with overlap
     ethr =  2.60E-05,  avg # of iterations =  3.3

     total cpu time spent up to now is        2.0 secs

     total energy              =    -774.88753630 Ry
     Harris-Foulkes estimate   =    -774.89116064 Ry
     estimated scf accuracy    <       0.00900615 Ry

     iteration #  5     ecut=    55.00 Ry     beta= 0.70
     Davidson diagonalization with overlap
     ethr =  2.60E-05,  avg # of iterations =  2.0

     total cpu time spent up to now is        2.1 secs

     total energy              =    -774.88999720 Ry
     Harris-Foulkes estimate   =    -774.89006097 Ry
     estimated scf accuracy    <       0.00065343 Ry

     iteration #  6     ecut=    55.00 Ry     beta= 0.70
     Davidson diagonalization with overlap
     ethr =  5.94E-06,  avg # of iterations =  1.7

     total cpu time spent up to now is        2.3 secs

     total energy              =    -774.88987087 Ry
     Harris-Foulkes estimate   =    -774.89005343 Ry
     estimated scf accuracy    <       0.00051905 Ry

     iteration #  7     ecut=    55.00 Ry     beta= 0.70
     Davidson diagonalization with overlap
     ethr =  4.72E-06,  avg # of iterations =  1.0

     total cpu time spent up to now is        2.4 secs

     total energy              =    -774.88988841 Ry
     Harris-Foulkes estimate   =    -774.88990574 Ry
     estimated scf accuracy    <       0.00005783 Ry

     iteration #  8     ecut=    55.00 Ry     beta= 0.70
     Davidson diagonalization with overlap
     ethr =  5.26E-07,  avg # of iterations =  2.0

     total cpu time spent up to now is        2.6 secs

     total energy              =    -774.88990008 Ry
     Harris-Foulkes estimate   =    -774.88990101 Ry
     estimated scf accuracy    <       0.00000623 Ry

     iteration #  9     ecut=    55.00 Ry     beta= 0.70
     Davidson diagonalization with overlap
     ethr =  5.67E-08,  avg # of iterations =  1.7

     total cpu time spent up to now is        2.7 secs

     total energy              =    -774.88990231 Ry
     Harris-Foulkes estimate   =    -774.88990078 Ry
     estimated scf accuracy    <       0.00000266 Ry

     iteration # 10     ecut=    55.00 Ry     beta= 0.70
     Davidson diagonalization with overlap
     ethr =  2.42E-08,  avg # of iterations =  2.7

     total cpu time spent up to now is        2.9 secs

     total energy              =    -774.88989995 Ry
     Harris-Foulkes estimate   =    -774.88990446 Ry
     estimated scf accuracy    <       0.00002093 Ry

     iteration # 11     ecut=    55.00 Ry     beta= 0.70
     Davidson diagonalization with overlap
     ethr =  2.42E-08,  avg # of iterations =  2.0

     total cpu time spent up to now is        3.0 secs

     total energy              =    -774.88989977 Ry
     Harris-Foulkes estimate   =    -774.88990093 Ry
     estimated scf accuracy    <       0.00000451 Ry

     iteration # 12     ecut=    55.00 Ry     beta= 0.70
     Davidson diagonalization with overlap
     ethr =  2.42E-08,  avg # of iterations =  1.0

     total cpu time spent up to now is        3.2 secs

     total energy              =    -774.88989971 Ry
     Harris-Foulkes estimate   =    -774.88990007 Ry
     estimated scf accuracy    <       0.00000076 Ry

     iteration # 13     ecut=    55.00 Ry     beta= 0.70
     Davidson diagonalization with overlap
     ethr =  6.88E-09,  avg # of iterations =  3.0

     total cpu time spent up to now is        3.3 secs

     total energy              =    -774.88989998 Ry
     Harris-Foulkes estimate   =    -774.88990000 Ry
     estimated scf accuracy    <       0.00000010 Ry

     iteration # 14     ecut=    55.00 Ry     beta= 0.70
     Davidson diagonalization with overlap
     ethr =  9.53E-10,  avg # of iterations =  3.0

     total cpu time spent up to now is        3.5 secs

     total energy              =    -774.88989999 Ry
     Harris-Foulkes estimate   =    -774.88990000 Ry
     estimated scf accuracy    <       0.00000006 Ry

     iteration # 15     ecut=    55.00 Ry     beta= 0.70
     Davidson diagonalization with overlap
     ethr =  5.19E-10,  avg # of iterations =  1.0

     total cpu time spent up to now is        3.7 secs

     total energy              =    -774.88989999 Ry
     Harris-Foulkes estimate   =    -774.88989999 Ry
     estimated scf accuracy    <       0.00000002 Ry

     iteration # 16     ecut=    55.00 Ry     beta= 0.70
     Davidson diagonalization with overlap
     ethr =  1.47E-10,  avg # of iterations =  1.0

     total cpu time spent up to now is        3.8 secs

     End of self-consistent calculation

          k = 0.0000 0.0000 0.0000 (   749 PWs)   bands (ev):

     6.1043  11.6946  11.6946  11.6946  13.3095  13.3095  31.3210  35.2684
    35.2684  35.2684

          k = 0.5000-0.5000 0.5000 (   796 PWs)   bands (ev):

     8.8677  11.6652  11.6652  14.5412  14.5412  15.0098  19.4024  30.5973
    33.6852  33.6852

          k = 0.0000-1.0000 0.0000 (   790 PWs)   bands (ev):

     9.1727   9.5306  14.5152  14.8648  14.8648  17.0387  22.0544  26.2687
    26.2687  33.3156

     the Fermi energy is    15.0805 ev

!    total energy              =    -774.88989999 Ry
     Harris-Foulkes estimate   =    -774.88989999 Ry
     estimated scf accuracy    <          5.2E-09 Ry

     total all-electron energy =    -38023.735991 Ry

     The total energy is the sum of the following terms:

     one-electron contribution =      13.93513048 Ry
     hartree contribution      =       7.94819802 Ry
     xc contribution           =     -32.25299934 Ry
     ewald contribution        =     -71.95438542 Ry
     one-center paw contrib.   =    -692.56334742 Ry
     smearing contrib. (-TS)   =      -0.00249630 Ry

     convergence has been achieved in  16 iterations

     Forces acting on atoms (cartesian axes, Ry/au):

     atom    1 type  1   force =     0.00000000    0.00000000    0.00000000

     Total force =     0.000000     Total SCF correction =     0.000000


     Computing stress (Cartesian axis) and pressure

          total   stress  (Ry/bohr**3)                   (kbar)     P=  591.77
   0.00402275  -0.00000000  -0.00000000        591.77     -0.00     -0.00
  -0.00000000   0.00402275   0.00000000         -0.00    591.77      0.00
  -0.00000000   0.00000000   0.00402275         -0.00      0.00    591.77


     Writing output data file Au.save/

     init_run     :      0.31s CPU      0.33s WALL (       1 calls)
     electrons    :      2.26s CPU      2.51s WALL (       1 calls)
     forces       :      0.03s CPU      0.03s WALL (       1 calls)
     stress       :      0.06s CPU      0.06s WALL (       1 calls)

     Called by init_run:
     wfcinit      :      0.01s CPU      0.01s WALL (       1 calls)
     potinit      :      0.13s CPU      0.14s WALL (       1 calls)
     hinit0       :      0.16s CPU      0.16s WALL (       1 calls)

     Called by electrons:
     c_bands      :      0.34s CPU      0.36s WALL (      17 calls)
     sum_band     :      0.19s CPU      0.19s WALL (      17 calls)
     v_of_rho     :      0.05s CPU      0.06s WALL (      17 calls)
     newd         :      0.10s CPU      0.12s WALL (      17 calls)
     PAW_pot      :      1.69s CPU      1.91s WALL (      17 calls)
     mix_rho      :      0.01s CPU      0.01s WALL (      17 calls)

     Called by c_bands:
     init_us_2    :      0.01s CPU      0.01s WALL (     111 calls)
     cegterg      :      0.32s CPU      0.34s WALL (      51 calls)

     Called by sum_band:
     sum_band:bec :      0.00s CPU      0.00s WALL (      51 calls)
     addusdens    :      0.10s CPU      0.10s WALL (      17 calls)

     Called by *egterg:
     h_psi        :      0.25s CPU      0.26s WALL (     174 calls)
     s_psi        :      0.01s CPU      0.01s WALL (     174 calls)
     g_psi        :      0.00s CPU      0.00s WALL (     120 calls)
     cdiaghg      :      0.03s CPU      0.04s WALL (     168 calls)

     Called by h_psi:
     h_psi:pot    :      0.24s CPU      0.26s WALL (     174 calls)
     h_psi:calbec :      0.01s CPU      0.01s WALL (     174 calls)
     vloc_psi     :      0.22s CPU      0.23s WALL (     174 calls)
     add_vuspsi   :      0.01s CPU      0.01s WALL (     174 calls)

     General routines
     calbec       :      0.02s CPU      0.02s WALL (     240 calls)
     fft          :      0.04s CPU      0.04s WALL (     214 calls)
     ffts         :      0.00s CPU      0.00s WALL (      17 calls)
     fftw         :      0.25s CPU      0.26s WALL (    2996 calls)

     Parallel routines
     fft_scatt_xy :      0.02s CPU      0.02s WALL (    3227 calls)
     fft_scatt_yz :      0.09s CPU      0.09s WALL (    3227 calls)

     PWSCF        :     3.64s CPU         3.95s WALL


   This run was terminated on:  11:47:29  26Mar2024            

=------------------------------------------------------------------------------=
   JOB DONE.
=------------------------------------------------------------------------------=
