
     Program PWSCF v.6.3MaX starts on 26Mar2024 at 12:20:40 

     This program is part of the open-source Quantum ESPRESSO suite
     for quantum simulation of materials; please cite
         "P. Giannozzi et al., J. Phys.:Condens. Matter 21 395502 (2009);
         "P. Giannozzi et al., J. Phys.:Condens. Matter 29 465901 (2017);
          URL http://www.quantum-espresso.org", 
     in publications or presentations arising from this work. More details at
     http://www.quantum-espresso.org/quote

     Parallel version (MPI), running on     5 processors

     MPI processes distributed on     1 nodes
     R & G space division:  proc/nbgrp/npool/nimage =       5
     Waiting for input...
     Reading input from standard input

     Current dimensions of program PWSCF are:
     Max number of different atomic species (ntypx) = 10
     Max number of k-points (npk) =  40000
     Max angular momentum in pseudopotentials (lmaxx) =  3
               file Au.pbe-n-kjpaw_psl.1.0.0.UPF: wavefunction(s)  6S 5D renormalized

     Subspace diagonalization in iterative solution of the eigenvalue problem:
     a serial algorithm will be used


     Parallelization info
     --------------------
     sticks:   dense  smooth     PW     G-vecs:    dense   smooth      PW
     Min         129     129     39                 2201     2201     365
     Max         130     130     40                 2204     2204     368
     Sum         649     649    199                11017    11017    1837



     bravais-lattice index     =            2
     lattice parameter (alat)  =       7.7100  a.u.
     unit-cell volume          =     114.5785 (a.u.)^3
     number of atoms/cell      =            1
     number of atomic types    =            1
     number of electrons       =        11.00
     number of Kohn-Sham states=           10
     kinetic-energy cutoff     =      80.0000  Ry
     charge density cutoff     =     320.0000  Ry
     convergence threshold     =      1.0E-08
     mixing beta               =       0.7000
     number of iterations used =            8  plain     mixing
     Exchange-correlation      = SLA PW PBX PBC ( 1  4  3  4 0 0)

     celldm(1)=   7.710000  celldm(2)=   0.000000  celldm(3)=   0.000000
     celldm(4)=   0.000000  celldm(5)=   0.000000  celldm(6)=   0.000000

     crystal axes: (cart. coord. in units of alat)
               a(1) = (  -0.500000   0.000000   0.500000 )  
               a(2) = (   0.000000   0.500000   0.500000 )  
               a(3) = (  -0.500000   0.500000   0.000000 )  

     reciprocal axes: (cart. coord. in units 2 pi/alat)
               b(1) = ( -1.000000 -1.000000  1.000000 )  
               b(2) = (  1.000000  1.000000  1.000000 )  
               b(3) = ( -1.000000  1.000000 -1.000000 )  


     PseudoPot. # 1 for Au read from file:
     /home/lorenzo/pseudos/Au/Au.pbe-n-kjpaw_psl.1.0.0.UPF
     MD5 check sum: 4db85c736373c707a97ce4c36c2a9d23
     Pseudo is Projector augmented-wave + core cor, Zval = 11.0
     Generated using "atomic" code by A. Dal Corso v.6.3
     Shape of augmentation charge: PSQ
     Using radial grid of 1279 points,  6 beta functions with: 
                l(1) =   0
                l(2) =   0
                l(3) =   1
                l(4) =   1
                l(5) =   2
                l(6) =   2
     Q(r) pseudized with 0 coefficients 


     atomic species   valence    mass     pseudopotential
        Au            11.00   196.96600     Au( 1.00)

     48 Sym. Ops., with inversion, found



   Cartesian axes

     site n.     atom                  positions (alat units)
         1           Au  tau(   1) = (   0.0000000   0.0000000   0.0000000  )

     number of k points=     8  gaussian smearing, width (Ry)=  0.0100
                       cart. coord. in units 2pi/alat
        k(    1) = (   0.0000000   0.0000000   0.0000000), wk =   0.0312500
        k(    2) = (  -0.2500000   0.2500000  -0.2500000), wk =   0.2500000
        k(    3) = (   0.5000000  -0.5000000   0.5000000), wk =   0.1250000
        k(    4) = (   0.0000000   0.5000000   0.0000000), wk =   0.1875000
        k(    5) = (   0.7500000  -0.2500000   0.7500000), wk =   0.7500000
        k(    6) = (   0.5000000   0.0000000   0.5000000), wk =   0.3750000
        k(    7) = (   0.0000000  -1.0000000   0.0000000), wk =   0.0937500
        k(    8) = (  -0.5000000  -1.0000000   0.0000000), wk =   0.1875000

     Dense  grid:    11017 G-vectors     FFT dimensions: (  32,  32,  32)

     Estimated max dynamical RAM per process >      10.37 MB

     Estimated total dynamical RAM >      51.87 MB

     Initial potential from superposition of free atoms

     starting charge   10.99989, renormalised to   11.00000
     Starting wfcs are    9 randomized atomic wfcs +    1 random wfcs
     Checking if some PAW data can be deallocated... 

     total cpu time spent up to now is        1.3 secs

     Self-consistent Calculation

     iteration #  1     ecut=    80.00 Ry     beta= 0.70
     Davidson diagonalization with overlap
     ethr =  1.00E-02,  avg # of iterations =  5.6

     Threshold (ethr) on eigenvalues was too large:
     Diagonalizing with lowered threshold

     Davidson diagonalization with overlap
     ethr =  4.63E-04,  avg # of iterations =  2.5

     total cpu time spent up to now is        1.8 secs

     total energy              =    -775.10253979 Ry
     Harris-Foulkes estimate   =    -775.13796060 Ry
     estimated scf accuracy    <       0.05217800 Ry

     iteration #  2     ecut=    80.00 Ry     beta= 0.70
     Davidson diagonalization with overlap
     ethr =  4.74E-04,  avg # of iterations =  3.1

     total cpu time spent up to now is        2.1 secs

     total energy              =    -775.11831132 Ry
     Harris-Foulkes estimate   =    -775.12724989 Ry
     estimated scf accuracy    <       0.01463300 Ry

     iteration #  3     ecut=    80.00 Ry     beta= 0.70
     Davidson diagonalization with overlap
     ethr =  1.33E-04,  avg # of iterations =  2.0

     total cpu time spent up to now is        2.3 secs

     total energy              =    -775.12148102 Ry
     Harris-Foulkes estimate   =    -775.12150803 Ry
     estimated scf accuracy    <       0.00023129 Ry

     iteration #  4     ecut=    80.00 Ry     beta= 0.70
     Davidson diagonalization with overlap
     ethr =  2.10E-06,  avg # of iterations =  3.9

     total cpu time spent up to now is        2.6 secs

     total energy              =    -775.12171249 Ry
     Harris-Foulkes estimate   =    -775.12180676 Ry
     estimated scf accuracy    <       0.00019645 Ry

     iteration #  5     ecut=    80.00 Ry     beta= 0.70
     Davidson diagonalization with overlap
     ethr =  1.79E-06,  avg # of iterations =  1.0

     total cpu time spent up to now is        2.8 secs

     total energy              =    -775.12172326 Ry
     Harris-Foulkes estimate   =    -775.12173167 Ry
     estimated scf accuracy    <       0.00001776 Ry

     iteration #  6     ecut=    80.00 Ry     beta= 0.70
     Davidson diagonalization with overlap
     ethr =  1.61E-07,  avg # of iterations =  3.0

     total cpu time spent up to now is        3.0 secs

     total energy              =    -775.12173007 Ry
     Harris-Foulkes estimate   =    -775.12173025 Ry
     estimated scf accuracy    <       0.00000021 Ry

     iteration #  7     ecut=    80.00 Ry     beta= 0.70
     Davidson diagonalization with overlap
     ethr =  1.87E-09,  avg # of iterations =  3.9

     total cpu time spent up to now is        3.3 secs

     total energy              =    -775.12173028 Ry
     Harris-Foulkes estimate   =    -775.12173038 Ry
     estimated scf accuracy    <       0.00000020 Ry

     iteration #  8     ecut=    80.00 Ry     beta= 0.70
     Davidson diagonalization with overlap
     ethr =  1.82E-09,  avg # of iterations =  1.2

     total cpu time spent up to now is        3.5 secs

     End of self-consistent calculation

          k = 0.0000 0.0000 0.0000 (  1411 PWs)   bands (ev):

     6.0714  11.2636  11.2636  11.2636  12.7926  12.7926  31.3849  35.2446
    35.2446  35.2446

          k =-0.2500 0.2500-0.2500 (  1378 PWs)   bands (ev):

     7.8750  11.1312  11.5468  11.5468  12.9615  12.9615  27.2736  32.3097
    36.1410  36.1410

          k = 0.5000-0.5000 0.5000 (  1380 PWs)   bands (ev):

     8.6240  11.2276  11.2276  13.9991  13.9991  14.9989  19.0617  30.6703
    33.5936  33.5936

          k = 0.0000 0.5000 0.0000 (  1387 PWs)   bands (ev):

     8.5023  10.1360  11.9656  12.5061  12.5061  13.3501  30.9527  30.9527
    32.3145  33.1188

          k = 0.7500-0.2500 0.7500 (  1383 PWs)   bands (ev):

     9.4902  10.4048  11.6147  12.4568  14.0887  17.0104  21.4541  27.5932
    29.6782  33.1676

          k = 0.5000 0.0000 0.5000 (  1368 PWs)   bands (ev):

     9.8524  10.7249  11.0694  12.1921  12.7842  15.6925  24.6128  26.2577
    33.0598  34.4404

          k = 0.0000-1.0000 0.0000 (  1362 PWs)   bands (ev):

     8.8756   9.1899  13.9562  14.3220  14.3220  17.0052  21.7728  26.2056
    26.2056  33.2024

          k =-0.5000-1.0000 0.0000 (  1384 PWs)   bands (ev):

     9.9839  10.7931  10.7931  12.6483  14.3240  20.7758  22.3220  22.3220
    25.4343  39.4426

     the Fermi energy is    16.8380 ev

!    total energy              =    -775.12173030 Ry
     Harris-Foulkes estimate   =    -775.12173031 Ry
     estimated scf accuracy    <          7.7E-09 Ry

     total all-electron energy =    -38023.967821 Ry

     The total energy is the sum of the following terms:

     one-electron contribution =      13.84982497 Ry
     hartree contribution      =       7.62952610 Ry
     xc contribution           =     -32.12121164 Ry
     ewald contribution        =     -71.95438534 Ry
     one-center paw contrib.   =    -692.52500159 Ry
     smearing contrib. (-TS)   =      -0.00048280 Ry

     convergence has been achieved in   8 iterations

     Forces acting on atoms (cartesian axes, Ry/au):

     atom    1 type  1   force =     0.00000000    0.00000000    0.00000000

     Total force =     0.000000     Total SCF correction =     0.000000


     Computing stress (Cartesian axis) and pressure

          total   stress  (Ry/bohr**3)                   (kbar)     P=  128.06
   0.00087052  -0.00000000   0.00000000        128.06     -0.00      0.00
  -0.00000000   0.00087052  -0.00000000         -0.00    128.06     -0.00
   0.00000000  -0.00000000   0.00087052          0.00     -0.00    128.06


     Writing output data file Au.save/

     init_run     :      0.39s CPU      0.41s WALL (       1 calls)
     electrons    :      2.12s CPU      2.24s WALL (       1 calls)
     forces       :      0.06s CPU      0.06s WALL (       1 calls)
     stress       :      0.14s CPU      0.14s WALL (       1 calls)

     Called by init_run:
     wfcinit      :      0.05s CPU      0.06s WALL (       1 calls)
     potinit      :      0.11s CPU      0.12s WALL (       1 calls)
     hinit0       :      0.20s CPU      0.20s WALL (       1 calls)

     Called by electrons:
     c_bands      :      0.92s CPU      0.98s WALL (       9 calls)
     sum_band     :      0.23s CPU      0.25s WALL (       9 calls)
     v_of_rho     :      0.06s CPU      0.06s WALL (       9 calls)
     newd         :      0.10s CPU      0.10s WALL (       9 calls)
     PAW_pot      :      0.91s CPU      0.96s WALL (       9 calls)
     mix_rho      :      0.01s CPU      0.01s WALL (       9 calls)

     Called by c_bands:
     init_us_2    :      0.03s CPU      0.03s WALL (     168 calls)
     cegterg      :      0.87s CPU      0.94s WALL (      72 calls)

     Called by sum_band:
     sum_band:bec :      0.00s CPU      0.00s WALL (      72 calls)
     addusdens    :      0.09s CPU      0.09s WALL (       9 calls)

     Called by *egterg:
     h_psi        :      0.68s CPU      0.73s WALL (     290 calls)
     s_psi        :      0.03s CPU      0.03s WALL (     290 calls)
     g_psi        :      0.00s CPU      0.00s WALL (     210 calls)
     cdiaghg      :      0.07s CPU      0.08s WALL (     274 calls)

     Called by h_psi:
     h_psi:pot    :      0.67s CPU      0.73s WALL (     290 calls)
     h_psi:calbec :      0.04s CPU      0.04s WALL (     290 calls)
     vloc_psi     :      0.60s CPU      0.66s WALL (     290 calls)
     add_vuspsi   :      0.03s CPU      0.03s WALL (     290 calls)

     General routines
     calbec       :      0.06s CPU      0.07s WALL (     402 calls)
     fft          :      0.04s CPU      0.04s WALL (     126 calls)
     ffts         :      0.00s CPU      0.00s WALL (       9 calls)
     fftw         :      0.65s CPU      0.71s WALL (    4798 calls)

     Parallel routines
     fft_scatt_xy :      0.06s CPU      0.07s WALL (    4933 calls)
     fft_scatt_yz :      0.22s CPU      0.25s WALL (    4933 calls)

     PWSCF        :     3.61s CPU         3.80s WALL


   This run was terminated on:  12:20:44  26Mar2024            

=------------------------------------------------------------------------------=
   JOB DONE.
=------------------------------------------------------------------------------=
