
     Program PWSCF v.6.3MaX starts on 26Mar2024 at 11:54:21 

     This program is part of the open-source Quantum ESPRESSO suite
     for quantum simulation of materials; please cite
         "P. Giannozzi et al., J. Phys.:Condens. Matter 21 395502 (2009);
         "P. Giannozzi et al., J. Phys.:Condens. Matter 29 465901 (2017);
          URL http://www.quantum-espresso.org", 
     in publications or presentations arising from this work. More details at
     http://www.quantum-espresso.org/quote

     Parallel version (MPI), running on     5 processors

     MPI processes distributed on     1 nodes
     R & G space division:  proc/nbgrp/npool/nimage =       5
     Waiting for input...
     Reading input from standard input

     Current dimensions of program PWSCF are:
     Max number of different atomic species (ntypx) = 10
     Max number of k-points (npk) =  40000
     Max angular momentum in pseudopotentials (lmaxx) =  3
               file Au.pbe-n-kjpaw_psl.1.0.0.UPF: wavefunction(s)  6S 5D renormalized

     Subspace diagonalization in iterative solution of the eigenvalue problem:
     a serial algorithm will be used


     Parallelization info
     --------------------
     sticks:   dense  smooth     PW     G-vecs:    dense   smooth      PW
     Min          99      99     30                 1446     1446     248
     Max         100     100     31                 1449     1449     251
     Sum         499     499    151                 7239     7239    1243



     bravais-lattice index     =            2
     lattice parameter (alat)  =       7.7100  a.u.
     unit-cell volume          =     114.5785 (a.u.)^3
     number of atoms/cell      =            1
     number of atomic types    =            1
     number of electrons       =        11.00
     number of Kohn-Sham states=           10
     kinetic-energy cutoff     =      60.0000  Ry
     charge density cutoff     =     240.0000  Ry
     convergence threshold     =      1.0E-08
     mixing beta               =       0.7000
     number of iterations used =            8  plain     mixing
     Exchange-correlation      = SLA PW PBX PBC ( 1  4  3  4 0 0)

     celldm(1)=   7.710000  celldm(2)=   0.000000  celldm(3)=   0.000000
     celldm(4)=   0.000000  celldm(5)=   0.000000  celldm(6)=   0.000000

     crystal axes: (cart. coord. in units of alat)
               a(1) = (  -0.500000   0.000000   0.500000 )  
               a(2) = (   0.000000   0.500000   0.500000 )  
               a(3) = (  -0.500000   0.500000   0.000000 )  

     reciprocal axes: (cart. coord. in units 2 pi/alat)
               b(1) = ( -1.000000 -1.000000  1.000000 )  
               b(2) = (  1.000000  1.000000  1.000000 )  
               b(3) = ( -1.000000  1.000000 -1.000000 )  


     PseudoPot. # 1 for Au read from file:
     /home/lorenzo/pseudos/Au/Au.pbe-n-kjpaw_psl.1.0.0.UPF
     MD5 check sum: 4db85c736373c707a97ce4c36c2a9d23
     Pseudo is Projector augmented-wave + core cor, Zval = 11.0
     Generated using "atomic" code by A. Dal Corso v.6.3
     Shape of augmentation charge: PSQ
     Using radial grid of 1279 points,  6 beta functions with: 
                l(1) =   0
                l(2) =   0
                l(3) =   1
                l(4) =   1
                l(5) =   2
                l(6) =   2
     Q(r) pseudized with 0 coefficients 


     atomic species   valence    mass     pseudopotential
        Au            11.00   196.96600     Au( 1.00)

     48 Sym. Ops., with inversion, found



   Cartesian axes

     site n.     atom                  positions (alat units)
         1           Au  tau(   1) = (   0.0000000   0.0000000   0.0000000  )

     number of k points=    10  gaussian smearing, width (Ry)=  0.0100
                       cart. coord. in units 2pi/alat
        k(    1) = (   0.0000000   0.0000000   0.0000000), wk =   0.0160000
        k(    2) = (  -0.2000000   0.2000000  -0.2000000), wk =   0.1280000
        k(    3) = (  -0.4000000   0.4000000  -0.4000000), wk =   0.1280000
        k(    4) = (   0.0000000   0.4000000   0.0000000), wk =   0.0960000
        k(    5) = (  -0.2000000   0.6000000  -0.2000000), wk =   0.3840000
        k(    6) = (   0.6000000  -0.2000000   0.6000000), wk =   0.3840000
        k(    7) = (   0.4000000   0.0000000   0.4000000), wk =   0.1920000
        k(    8) = (   0.0000000   0.8000000   0.0000000), wk =   0.0960000
        k(    9) = (   0.8000000   0.0000000   0.8000000), wk =   0.1920000
        k(   10) = (   0.6000000  -0.2000000   1.0000000), wk =   0.3840000

     Dense  grid:     7239 G-vectors     FFT dimensions: (  27,  27,  27)

     Estimated max dynamical RAM per process >       7.22 MB

     Estimated total dynamical RAM >      36.11 MB

     Initial potential from superposition of free atoms

     starting charge   10.99989, renormalised to   11.00000
     Starting wfcs are    9 randomized atomic wfcs +    1 random wfcs
     Checking if some PAW data can be deallocated... 

     total cpu time spent up to now is        1.3 secs

     Self-consistent Calculation

     iteration #  1     ecut=    60.00 Ry     beta= 0.70
     Davidson diagonalization with overlap
     ethr =  1.00E-02,  avg # of iterations =  5.4

     Threshold (ethr) on eigenvalues was too large:
     Diagonalizing with lowered threshold

     Davidson diagonalization with overlap
     ethr =  4.64E-04,  avg # of iterations =  2.1

     total cpu time spent up to now is        1.7 secs

     total energy              =    -775.12528723 Ry
     Harris-Foulkes estimate   =    -775.16109814 Ry
     estimated scf accuracy    <       0.05286288 Ry

     iteration #  2     ecut=    60.00 Ry     beta= 0.70
     Davidson diagonalization with overlap
     ethr =  4.81E-04,  avg # of iterations =  2.6

     total cpu time spent up to now is        2.0 secs

     total energy              =    -775.14134392 Ry
     Harris-Foulkes estimate   =    -775.15127965 Ry
     estimated scf accuracy    <       0.01643585 Ry

     iteration #  3     ecut=    60.00 Ry     beta= 0.70
     Davidson diagonalization with overlap
     ethr =  1.49E-04,  avg # of iterations =  1.9

     total cpu time spent up to now is        2.2 secs

     total energy              =    -775.14488125 Ry
     Harris-Foulkes estimate   =    -775.14492854 Ry
     estimated scf accuracy    <       0.00025184 Ry

     iteration #  4     ecut=    60.00 Ry     beta= 0.70
     Davidson diagonalization with overlap
     ethr =  2.29E-06,  avg # of iterations =  4.4

     total cpu time spent up to now is        2.5 secs

     total energy              =    -775.14516276 Ry
     Harris-Foulkes estimate   =    -775.14529809 Ry
     estimated scf accuracy    <       0.00029281 Ry

     iteration #  5     ecut=    60.00 Ry     beta= 0.70
     Davidson diagonalization with overlap
     ethr =  2.29E-06,  avg # of iterations =  1.0

     total cpu time spent up to now is        2.7 secs

     total energy              =    -775.14517499 Ry
     Harris-Foulkes estimate   =    -775.14519038 Ry
     estimated scf accuracy    <       0.00003030 Ry

     iteration #  6     ecut=    60.00 Ry     beta= 0.70
     Davidson diagonalization with overlap
     ethr =  2.75E-07,  avg # of iterations =  2.2

     total cpu time spent up to now is        2.9 secs

     total energy              =    -775.14518671 Ry
     Harris-Foulkes estimate   =    -775.14518674 Ry
     estimated scf accuracy    <       0.00000019 Ry

     iteration #  7     ecut=    60.00 Ry     beta= 0.70
     Davidson diagonalization with overlap
     ethr =  1.73E-09,  avg # of iterations =  4.2

     total cpu time spent up to now is        3.2 secs

     total energy              =    -775.14518703 Ry
     Harris-Foulkes estimate   =    -775.14518737 Ry
     estimated scf accuracy    <       0.00000092 Ry

     iteration #  8     ecut=    60.00 Ry     beta= 0.70
     Davidson diagonalization with overlap
     ethr =  1.73E-09,  avg # of iterations =  2.0

     total cpu time spent up to now is        3.4 secs

     total energy              =    -775.14518697 Ry
     Harris-Foulkes estimate   =    -775.14518708 Ry
     estimated scf accuracy    <       0.00000020 Ry

     iteration #  9     ecut=    60.00 Ry     beta= 0.70
     Davidson diagonalization with overlap
     ethr =  1.73E-09,  avg # of iterations =  2.3

     total cpu time spent up to now is        3.7 secs

     End of self-consistent calculation

          k = 0.0000 0.0000 0.0000 (   893 PWs)   bands (ev):

     6.0752  11.2850  11.2850  11.2850  12.8102  12.8102  31.3891  35.2422
    35.2422  35.2422

          k =-0.2000 0.2000-0.2000 (   914 PWs)   bands (ev):

     7.3440  11.0446  11.5725  11.5725  12.8103  12.8103  29.2538  32.4772
    36.1865  36.1865

          k =-0.4000 0.4000-0.4000 (   899 PWs)   bands (ev):

     8.6215  11.3220  11.3220  13.3394  13.7817  13.7817  21.3798  31.0098
    34.2132  34.2132

          k = 0.0000 0.4000 0.0000 (   889 PWs)   bands (ev):

     7.7888  10.4814  12.0535  12.1036  12.1036  13.1910  32.4308  32.4308
    32.6739  33.1282

          k =-0.2000 0.6000-0.2000 (   893 PWs)   bands (ev):

     9.2846  10.4896  11.3323  12.2455  13.9367  14.5422  24.3960  30.5669
    30.5798  33.1822

          k = 0.6000-0.2000 0.6000 (   887 PWs)   bands (ev):

     9.5191  10.7768  11.8880  11.9649  13.7233  17.5721  19.9656  27.8313
    32.1118  32.4399

          k = 0.4000 0.0000 0.4000 (   909 PWs)   bands (ev):

     9.0430  10.6533  11.3839  12.1728  12.3320  14.4147  26.6468  28.5974
    33.7890  36.6168

          k = 0.0000 0.8000 0.0000 (   902 PWs)   bands (ev):

     9.0243   9.3785  13.8547  13.9231  13.9231  14.7518  24.8552  27.1391
    27.1391  32.9581

          k = 0.8000 0.0000 0.8000 (   904 PWs)   bands (ev):

     9.3310   9.8113  12.6184  13.3565  14.0558  19.6762  20.6429  23.8922
    27.9182  33.9973

          k = 0.6000-0.2000 1.0000 (   896 PWs)   bands (ev):

    10.0759  10.3242  11.0269  12.9369  13.9091  18.0048  23.1123  24.3516
    27.3688  37.4567

     the Fermi energy is    14.7790 ev

!    total energy              =    -775.14518702 Ry
     Harris-Foulkes estimate   =    -775.14518702 Ry
     estimated scf accuracy    <          2.2E-09 Ry

     total all-electron energy =    -38023.991278 Ry

     The total energy is the sum of the following terms:

     one-electron contribution =      13.81527337 Ry
     hartree contribution      =       7.64384643 Ry
     xc contribution           =     -32.12538974 Ry
     ewald contribution        =     -71.95438535 Ry
     one-center paw contrib.   =    -692.52421870 Ry
     smearing contrib. (-TS)   =      -0.00031303 Ry

     convergence has been achieved in   9 iterations

     Forces acting on atoms (cartesian axes, Ry/au):

     atom    1 type  1   force =     0.00000000    0.00000000    0.00000000

     Total force =     0.000000     Total SCF correction =     0.000000


     Computing stress (Cartesian axis) and pressure

          total   stress  (Ry/bohr**3)                   (kbar)     P=   94.99
   0.00064576   0.00000000   0.00000000         94.99      0.00      0.00
   0.00000000   0.00064576  -0.00000000          0.00     94.99     -0.00
   0.00000000  -0.00000000   0.00064576          0.00     -0.00     94.99


     Writing output data file Au.save/

     init_run     :      0.34s CPU      0.36s WALL (       1 calls)
     electrons    :      2.16s CPU      2.36s WALL (       1 calls)
     forces       :      0.03s CPU      0.03s WALL (       1 calls)
     stress       :      0.10s CPU      0.10s WALL (       1 calls)

     Called by init_run:
     wfcinit      :      0.03s CPU      0.04s WALL (       1 calls)
     potinit      :      0.12s CPU      0.13s WALL (       1 calls)
     hinit0       :      0.17s CPU      0.17s WALL (       1 calls)

     Called by electrons:
     c_bands      :      0.89s CPU      0.95s WALL (      10 calls)
     sum_band     :      0.22s CPU      0.23s WALL (      10 calls)
     v_of_rho     :      0.04s CPU      0.04s WALL (      10 calls)
     newd         :      0.07s CPU      0.09s WALL (      10 calls)
     PAW_pot      :      1.03s CPU      1.17s WALL (      10 calls)
     mix_rho      :      0.01s CPU      0.01s WALL (      10 calls)

     Called by c_bands:
     init_us_2    :      0.03s CPU      0.03s WALL (     230 calls)
     cegterg      :      0.86s CPU      0.92s WALL (     100 calls)

     Called by sum_band:
     sum_band:bec :      0.00s CPU      0.00s WALL (     100 calls)
     addusdens    :      0.07s CPU      0.07s WALL (      10 calls)

     Called by *egterg:
     h_psi        :      0.66s CPU      0.71s WALL (     391 calls)
     s_psi        :      0.02s CPU      0.02s WALL (     391 calls)
     g_psi        :      0.00s CPU      0.00s WALL (     281 calls)
     cdiaghg      :      0.09s CPU      0.10s WALL (     371 calls)

     Called by h_psi:
     h_psi:pot    :      0.66s CPU      0.70s WALL (     391 calls)
     h_psi:calbec :      0.03s CPU      0.03s WALL (     391 calls)
     vloc_psi     :      0.61s CPU      0.65s WALL (     391 calls)
     add_vuspsi   :      0.02s CPU      0.02s WALL (     391 calls)

     General routines
     calbec       :      0.05s CPU      0.05s WALL (     541 calls)
     fft          :      0.03s CPU      0.03s WALL (     137 calls)
     ffts         :      0.00s CPU      0.00s WALL (      10 calls)
     fftw         :      0.67s CPU      0.71s WALL (    6592 calls)

     Parallel routines
     fft_scatt_xy :      0.06s CPU      0.06s WALL (    6739 calls)
     fft_scatt_yz :      0.18s CPU      0.19s WALL (    6739 calls)

     PWSCF        :     3.59s CPU         3.86s WALL


   This run was terminated on:  11:54:25  26Mar2024            

=------------------------------------------------------------------------------=
   JOB DONE.
=------------------------------------------------------------------------------=
