
     Program PWSCF v.6.3MaX starts on 26Mar2024 at 11:13:53 

     This program is part of the open-source Quantum ESPRESSO suite
     for quantum simulation of materials; please cite
         "P. Giannozzi et al., J. Phys.:Condens. Matter 21 395502 (2009);
         "P. Giannozzi et al., J. Phys.:Condens. Matter 29 465901 (2017);
          URL http://www.quantum-espresso.org", 
     in publications or presentations arising from this work. More details at
     http://www.quantum-espresso.org/quote

     Parallel version (MPI), running on     5 processors

     MPI processes distributed on     1 nodes
     R & G space division:  proc/nbgrp/npool/nimage =       5
     Waiting for input...
     Reading input from standard input

     Current dimensions of program PWSCF are:
     Max number of different atomic species (ntypx) = 10
     Max number of k-points (npk) =  40000
     Max angular momentum in pseudopotentials (lmaxx) =  3
               file Au.pbesol-n-kjpaw_psl.1.0.0.UPF: wavefunction(s)  6S 5D renormalized

     Subspace diagonalization in iterative solution of the eigenvalue problem:
     a serial algorithm will be used


     Parallelization info
     --------------------
     sticks:   dense  smooth     PW     G-vecs:    dense   smooth      PW
     Min          17      17      6                  106      106      22
     Max          17      17      7                  107      107      23
     Sum          85      85     31                  531      531     113



     bravais-lattice index     =            2
     lattice parameter (alat)  =       7.7100  a.u.
     unit-cell volume          =     114.5785 (a.u.)^3
     number of atoms/cell      =            1
     number of atomic types    =            1
     number of electrons       =        11.00
     number of Kohn-Sham states=           10
     kinetic-energy cutoff     =      10.0000  Ry
     charge density cutoff     =      40.0000  Ry
     convergence threshold     =      1.0E-08
     mixing beta               =       0.7000
     number of iterations used =            8  plain     mixing
     Exchange-correlation      = SLA PW PSX PSC ( 1  4 10  8 0 0)

     celldm(1)=   7.710000  celldm(2)=   0.000000  celldm(3)=   0.000000
     celldm(4)=   0.000000  celldm(5)=   0.000000  celldm(6)=   0.000000

     crystal axes: (cart. coord. in units of alat)
               a(1) = (  -0.500000   0.000000   0.500000 )  
               a(2) = (   0.000000   0.500000   0.500000 )  
               a(3) = (  -0.500000   0.500000   0.000000 )  

     reciprocal axes: (cart. coord. in units 2 pi/alat)
               b(1) = ( -1.000000 -1.000000  1.000000 )  
               b(2) = (  1.000000  1.000000  1.000000 )  
               b(3) = ( -1.000000  1.000000 -1.000000 )  


     PseudoPot. # 1 for Au read from file:
     /home/lorenzo/pseudos/Au/Au.pbesol-n-kjpaw_psl.1.0.0.UPF
     MD5 check sum: abc371be705c47a6b6a6b4088b452d3e
     Pseudo is Projector augmented-wave + core cor, Zval = 11.0
     Generated using "atomic" code by A. Dal Corso v.6.3
     Shape of augmentation charge: PSQ
     Using radial grid of 1279 points,  6 beta functions with: 
                l(1) =   0
                l(2) =   0
                l(3) =   1
                l(4) =   1
                l(5) =   2
                l(6) =   2
     Q(r) pseudized with 0 coefficients 


     atomic species   valence    mass     pseudopotential
        Au            11.00   196.96600     Au( 1.00)

     48 Sym. Ops., with inversion, found



   Cartesian axes

     site n.     atom                  positions (alat units)
         1           Au  tau(   1) = (   0.0000000   0.0000000   0.0000000  )

     number of k points=     3  gaussian smearing, width (Ry)=  0.0100
                       cart. coord. in units 2pi/alat
        k(    1) = (   0.0000000   0.0000000   0.0000000), wk =   0.2500000
        k(    2) = (   0.5000000  -0.5000000   0.5000000), wk =   1.0000000
        k(    3) = (   0.0000000  -1.0000000   0.0000000), wk =   0.7500000

     Dense  grid:      531 G-vectors     FFT dimensions: (  12,  12,  12)

     Estimated max dynamical RAM per process >       1.04 MB

     Estimated total dynamical RAM >       5.19 MB

     Check: negative/imaginary core charge=   -0.000056    0.000000

     Initial potential from superposition of free atoms

     starting charge   10.99990, renormalised to   11.00000

     negative rho (up, down):  4.226E-05 0.000E+00
     Starting wfcs are    9 randomized atomic wfcs +    1 random wfcs
     Checking if some PAW data can be deallocated... 

     total cpu time spent up to now is        1.6 secs

     Self-consistent Calculation

     iteration #  1     ecut=    10.00 Ry     beta= 0.70
     Davidson diagonalization with overlap
     ethr =  1.00E-02,  avg # of iterations =  4.7

     total cpu time spent up to now is        1.7 secs

     total energy              =    -762.65536593 Ry
     Harris-Foulkes estimate   =    -763.57479995 Ry
     estimated scf accuracy    <       0.84999573 Ry

     iteration #  2     ecut=    10.00 Ry     beta= 0.70
     Davidson diagonalization with overlap
     ethr =  7.73E-03,  avg # of iterations =  2.0

     negative rho (up, down):  7.702E-04 0.000E+00

     total cpu time spent up to now is        1.8 secs

     total energy              =    -760.59146032 Ry
     Harris-Foulkes estimate   =    -764.68325819 Ry
     estimated scf accuracy    <       0.04986239 Ry

     iteration #  3     ecut=    10.00 Ry     beta= 0.70
     Davidson diagonalization with overlap
     ethr =  4.53E-04,  avg # of iterations =  3.0

     total cpu time spent up to now is        1.9 secs

     total energy              =    -764.45493766 Ry
     Harris-Foulkes estimate   =    -762.70440726 Ry
     estimated scf accuracy    <       0.23021970 Ry

     iteration #  4     ecut=    10.00 Ry     beta= 0.70
     Davidson diagonalization with overlap
     ethr =  4.53E-04,  avg # of iterations =  3.0

     total cpu time spent up to now is        2.1 secs

     total energy              =    -766.23570560 Ry
     Harris-Foulkes estimate   =    -766.27700207 Ry
     estimated scf accuracy    <       0.13915522 Ry

     iteration #  5     ecut=    10.00 Ry     beta= 0.70
     Davidson diagonalization with overlap
     ethr =  4.53E-04,  avg # of iterations =  1.0

     negative rho (up, down):  3.351E-02 0.000E+00

     total cpu time spent up to now is        2.2 secs

     total energy              =    -767.18728426 Ry
     Harris-Foulkes estimate   =    -766.23584095 Ry
     estimated scf accuracy    <       0.14320478 Ry

     iteration #  6     ecut=    10.00 Ry     beta= 0.70
     Davidson diagonalization with overlap
     ethr =  4.53E-04,  avg # of iterations =  3.3

     negative rho (up, down):  3.002E-02 0.000E+00

     total cpu time spent up to now is        2.3 secs

     total energy              =    -772.95708129 Ry
     Harris-Foulkes estimate   =    -774.56617251 Ry
     estimated scf accuracy    <       0.12917524 Ry

     iteration #  7     ecut=    10.00 Ry     beta= 0.70
     Davidson diagonalization with overlap
     ethr =  4.53E-04,  avg # of iterations =  2.0

     negative rho (up, down):  2.988E-02 0.000E+00

     total cpu time spent up to now is        2.4 secs

     total energy              =    -772.74049743 Ry
     Harris-Foulkes estimate   =    -772.98896920 Ry
     estimated scf accuracy    <       0.12250898 Ry

     iteration #  8     ecut=    10.00 Ry     beta= 0.70
     Davidson diagonalization with overlap
     ethr =  4.53E-04,  avg # of iterations =  1.0

     negative rho (up, down):  4.297E-02 0.000E+00

     total cpu time spent up to now is        2.6 secs

     total energy              =    -778.90771894 Ry
     Harris-Foulkes estimate   =    -772.74140281 Ry
     estimated scf accuracy    <       0.12231957 Ry

     iteration #  9     ecut=    10.00 Ry     beta= 0.70
     Davidson diagonalization with overlap
     ethr =  4.53E-04,  avg # of iterations =  2.3

     total cpu time spent up to now is        2.7 secs

     total energy              =    -743.87723327 Ry
     Harris-Foulkes estimate   =    -779.44346263 Ry
     estimated scf accuracy    <       0.20639534 Ry

     iteration # 10     ecut=    10.00 Ry     beta= 0.70
     Davidson diagonalization with overlap
     ethr =  4.53E-04,  avg # of iterations =  3.3

     total cpu time spent up to now is        2.9 secs

     total energy              =    -760.88756907 Ry
     Harris-Foulkes estimate   =    -763.60910069 Ry
     estimated scf accuracy    <       0.38912865 Ry

     iteration # 11     ecut=    10.00 Ry     beta= 0.70
     Davidson diagonalization with overlap
     ethr =  4.53E-04,  avg # of iterations =  3.0

     negative rho (up, down):  2.682E-05 0.000E+00

     total cpu time spent up to now is        3.0 secs

     total energy              =    -760.27498298 Ry
     Harris-Foulkes estimate   =    -763.37921865 Ry
     estimated scf accuracy    <       0.17315210 Ry

     iteration # 12     ecut=    10.00 Ry     beta= 0.70
     Davidson diagonalization with overlap
     ethr =  4.53E-04,  avg # of iterations =  3.0

     negative rho (up, down):  4.756E-02 0.000E+00

     total cpu time spent up to now is        3.2 secs

     total energy              =    -761.61927684 Ry
     Harris-Foulkes estimate   =    -763.42698276 Ry
     estimated scf accuracy    <       0.06363180 Ry

     iteration # 13     ecut=    10.00 Ry     beta= 0.70
     Davidson diagonalization with overlap
     ethr =  4.53E-04,  avg # of iterations =  2.0

     negative rho (up, down):  9.750E-02 0.000E+00

     total cpu time spent up to now is        3.3 secs

     total energy              =    -758.02585941 Ry
     Harris-Foulkes estimate   =    -761.66480957 Ry
     estimated scf accuracy    <       0.07523603 Ry

     iteration # 14     ecut=    10.00 Ry     beta= 0.70
     Davidson diagonalization with overlap
     ethr =  4.53E-04,  avg # of iterations =  3.3

     negative rho (up, down):  4.313E-02 0.000E+00

     total cpu time spent up to now is        3.4 secs

     total energy              =    -759.13116575 Ry
     Harris-Foulkes estimate   =    -763.58993698 Ry
     estimated scf accuracy    <       1.72348884 Ry

     iteration # 15     ecut=    10.00 Ry     beta= 0.70
     Davidson diagonalization with overlap
     ethr =  4.53E-04,  avg # of iterations =  4.0

     negative rho (up, down):  4.686E-04 0.000E+00

     total cpu time spent up to now is        3.6 secs

     total energy              =    -759.97016181 Ry
     Harris-Foulkes estimate   =    -761.28539515 Ry
     estimated scf accuracy    <       0.04020705 Ry

     iteration # 16     ecut=    10.00 Ry     beta= 0.70
     Davidson diagonalization with overlap
     ethr =  3.66E-04,  avg # of iterations =  3.0

     negative rho (up, down):  1.300E-02 0.000E+00

     total cpu time spent up to now is        3.7 secs

     total energy              =    -760.29488842 Ry
     Harris-Foulkes estimate   =    -762.72446597 Ry
     estimated scf accuracy    <       0.42438319 Ry

     iteration # 17     ecut=    10.00 Ry     beta= 0.70
     Davidson diagonalization with overlap
     ethr =  3.66E-04,  avg # of iterations =  3.0

     total cpu time spent up to now is        3.8 secs

     total energy              =    -762.12019153 Ry
     Harris-Foulkes estimate   =    -761.33942980 Ry
     estimated scf accuracy    <       0.13359019 Ry

     iteration # 18     ecut=    10.00 Ry     beta= 0.70
     Davidson diagonalization with overlap
     ethr =  3.66E-04,  avg # of iterations =  3.3

     negative rho (up, down):  1.576E-03 0.000E+00

     total cpu time spent up to now is        3.9 secs

     total energy              =    -747.64236419 Ry
     Harris-Foulkes estimate   =    -767.66668385 Ry
     estimated scf accuracy    <       2.90583947 Ry

     iteration # 19     ecut=    10.00 Ry     beta= 0.70
     Davidson diagonalization with overlap
     ethr =  3.66E-04,  avg # of iterations =  4.0

     negative rho (up, down):  4.072E-02 0.000E+00

     total cpu time spent up to now is        4.1 secs

     total energy              =    -765.49150118 Ry
     Harris-Foulkes estimate   =    -763.34088116 Ry
     estimated scf accuracy    <       0.76082006 Ry

     iteration # 20     ecut=    10.00 Ry     beta= 0.70
     Davidson diagonalization with overlap
     ethr =  3.66E-04,  avg # of iterations =  2.7

     negative rho (up, down):  5.194E-02 0.000E+00

     total cpu time spent up to now is        4.2 secs

     total energy              =    -770.96045561 Ry
     Harris-Foulkes estimate   =    -768.29248426 Ry
     estimated scf accuracy    <       0.16359933 Ry

     iteration # 21     ecut=    10.00 Ry     beta= 0.70
     Davidson diagonalization with overlap
     ethr =  3.66E-04,  avg # of iterations =  2.7

     negative rho (up, down):  6.098E-04 0.000E+00

     total cpu time spent up to now is        4.3 secs

     total energy              =    -742.63280793 Ry
     Harris-Foulkes estimate   =    -771.18392451 Ry
     estimated scf accuracy    <       0.17317252 Ry

     iteration # 22     ecut=    10.00 Ry     beta= 0.70
     Davidson diagonalization with overlap
     ethr =  3.66E-04,  avg # of iterations =  4.3

     negative rho (up, down):  5.991E-03 0.000E+00

     total cpu time spent up to now is        4.4 secs

     total energy              =    -757.90362637 Ry
     Harris-Foulkes estimate   =    -762.68036047 Ry
     estimated scf accuracy    <       0.72200686 Ry

     iteration # 23     ecut=    10.00 Ry     beta= 0.70
     Davidson diagonalization with overlap
     ethr =  3.66E-04,  avg # of iterations =  3.7

     negative rho (up, down):  1.331E-03 0.000E+00

     total cpu time spent up to now is        4.6 secs

     total energy              =    -760.30890150 Ry
     Harris-Foulkes estimate   =    -762.14454351 Ry
     estimated scf accuracy    <       0.24309686 Ry

     iteration # 24     ecut=    10.00 Ry     beta= 0.70
     Davidson diagonalization with overlap
     ethr =  3.66E-04,  avg # of iterations =  3.0

     negative rho (up, down):  3.448E-02 0.000E+00

     total cpu time spent up to now is        4.8 secs

     total energy              =    -759.36902979 Ry
     Harris-Foulkes estimate   =    -761.78571256 Ry
     estimated scf accuracy    <       1.08391770 Ry

     iteration # 25     ecut=    10.00 Ry     beta= 0.70
     Davidson diagonalization with overlap
     ethr =  3.66E-04,  avg # of iterations =  3.3

     negative rho (up, down):  1.001E-02 0.000E+00

     total cpu time spent up to now is        5.0 secs

     total energy              =    -752.79513207 Ry
     Harris-Foulkes estimate   =    -763.78768894 Ry
     estimated scf accuracy    <       0.32732773 Ry

     iteration # 26     ecut=    10.00 Ry     beta= 0.70
     Davidson diagonalization with overlap
     ethr =  3.66E-04,  avg # of iterations =  3.7

     negative rho (up, down):  1.177E-02 0.000E+00

     total cpu time spent up to now is        5.1 secs

     total energy              =    -761.86864707 Ry
     Harris-Foulkes estimate   =    -762.07430726 Ry
     estimated scf accuracy    <       0.09467359 Ry

     iteration # 27     ecut=    10.00 Ry     beta= 0.70
     Davidson diagonalization with overlap
     ethr =  3.66E-04,  avg # of iterations =  3.0

     negative rho (up, down):  2.028E-02 0.000E+00

     total cpu time spent up to now is        5.2 secs

     total energy              =    -760.91206163 Ry
     Harris-Foulkes estimate   =    -761.88411711 Ry
     estimated scf accuracy    <       0.08418219 Ry

     iteration # 28     ecut=    10.00 Ry     beta= 0.70
     Davidson diagonalization with overlap
     ethr =  3.66E-04,  avg # of iterations =  2.3

     negative rho (up, down):  1.779E-02 0.000E+00

     total cpu time spent up to now is        5.4 secs

     total energy              =    -761.29214321 Ry
     Harris-Foulkes estimate   =    -761.31334691 Ry
     estimated scf accuracy    <       0.01793110 Ry

     iteration # 29     ecut=    10.00 Ry     beta= 0.70
     Davidson diagonalization with overlap
     ethr =  1.63E-04,  avg # of iterations =  1.7

     negative rho (up, down):  2.639E-02 0.000E+00

     total cpu time spent up to now is        5.5 secs

     total energy              =    -760.85278361 Ry
     Harris-Foulkes estimate   =    -761.29354730 Ry
     estimated scf accuracy    <       0.00950271 Ry

     iteration # 30     ecut=    10.00 Ry     beta= 0.70
     Davidson diagonalization with overlap
     ethr =  8.64E-05,  avg # of iterations =  3.0

     negative rho (up, down):  2.125E-02 0.000E+00

     total cpu time spent up to now is        5.7 secs

     total energy              =    -761.49612457 Ry
     Harris-Foulkes estimate   =    -761.57244764 Ry
     estimated scf accuracy    <       0.36875565 Ry

     iteration # 31     ecut=    10.00 Ry     beta= 0.70
     Davidson diagonalization with overlap
     ethr =  8.64E-05,  avg # of iterations =  2.0

     negative rho (up, down):  2.776E-02 0.000E+00

     total cpu time spent up to now is        5.8 secs

     total energy              =    -761.75572425 Ry
     Harris-Foulkes estimate   =    -761.49950463 Ry
     estimated scf accuracy    <       0.20880583 Ry

     iteration # 32     ecut=    10.00 Ry     beta= 0.70
     Davidson diagonalization with overlap
     ethr =  8.64E-05,  avg # of iterations =  2.3

     negative rho (up, down):  3.346E-02 0.000E+00

     total cpu time spent up to now is        5.9 secs

     total energy              =    -762.03305073 Ry
     Harris-Foulkes estimate   =    -761.82106946 Ry
     estimated scf accuracy    <       0.48184145 Ry

     iteration # 33     ecut=    10.00 Ry     beta= 0.70
     Davidson diagonalization with overlap
     ethr =  8.64E-05,  avg # of iterations =  2.3

     negative rho (up, down):  2.931E-02 0.000E+00

     total cpu time spent up to now is        6.0 secs

     total energy              =    -762.14211690 Ry
     Harris-Foulkes estimate   =    -762.05184510 Ry
     estimated scf accuracy    <       0.70165719 Ry

     iteration # 34     ecut=    10.00 Ry     beta= 0.70
     Davidson diagonalization with overlap
     ethr =  8.64E-05,  avg # of iterations =  2.3

     negative rho (up, down):  2.695E-02 0.000E+00

     total cpu time spent up to now is        6.2 secs

     total energy              =    -761.40849693 Ry
     Harris-Foulkes estimate   =    -762.15079265 Ry
     estimated scf accuracy    <       0.67205921 Ry

     iteration # 35     ecut=    10.00 Ry     beta= 0.70
     Davidson diagonalization with overlap
     ethr =  8.64E-05,  avg # of iterations =  3.0

     negative rho (up, down):  2.337E-02 0.000E+00

     total cpu time spent up to now is        6.3 secs

     total energy              =    -761.07811375 Ry
     Harris-Foulkes estimate   =    -761.59333230 Ry
     estimated scf accuracy    <       0.35134967 Ry

     iteration # 36     ecut=    10.00 Ry     beta= 0.70
     Davidson diagonalization with overlap
     ethr =  8.64E-05,  avg # of iterations =  3.7

     negative rho (up, down):  2.248E-02 0.000E+00

     total cpu time spent up to now is        6.5 secs

     total energy              =    -761.27537865 Ry
     Harris-Foulkes estimate   =    -761.27691774 Ry
     estimated scf accuracy    <       0.05020337 Ry

     iteration # 37     ecut=    10.00 Ry     beta= 0.70
     Davidson diagonalization with overlap
     ethr =  8.64E-05,  avg # of iterations =  1.0

     negative rho (up, down):  3.692E-02 0.000E+00

     total cpu time spent up to now is        6.6 secs

     total energy              =    -761.37718875 Ry
     Harris-Foulkes estimate   =    -761.27569581 Ry
     estimated scf accuracy    <       0.02859849 Ry

     iteration # 38     ecut=    10.00 Ry     beta= 0.70
     Davidson diagonalization with overlap
     ethr =  8.64E-05,  avg # of iterations =  2.3

     negative rho (up, down):  2.489E-02 0.000E+00

     total cpu time spent up to now is        6.7 secs

     total energy              =    -761.30915860 Ry
     Harris-Foulkes estimate   =    -761.49199635 Ry
     estimated scf accuracy    <       0.37597881 Ry

     iteration # 39     ecut=    10.00 Ry     beta= 0.70
     Davidson diagonalization with overlap
     ethr =  8.64E-05,  avg # of iterations =  2.7

     negative rho (up, down):  2.728E-02 0.000E+00

     total cpu time spent up to now is        6.9 secs

     total energy              =    -761.34478620 Ry
     Harris-Foulkes estimate   =    -761.34055769 Ry
     estimated scf accuracy    <       0.00988235 Ry

     iteration # 40     ecut=    10.00 Ry     beta= 0.70
     Davidson diagonalization with overlap
     ethr =  8.64E-05,  avg # of iterations =  1.0

     negative rho (up, down):  2.700E-02 0.000E+00

     total cpu time spent up to now is        7.0 secs

     total energy              =    -761.34335513 Ry
     Harris-Foulkes estimate   =    -761.35129502 Ry
     estimated scf accuracy    <       0.09550986 Ry

     iteration # 41     ecut=    10.00 Ry     beta= 0.70
     Davidson diagonalization with overlap
     ethr =  8.64E-05,  avg # of iterations =  1.0

     negative rho (up, down):  2.878E-02 0.000E+00

     total cpu time spent up to now is        7.1 secs

     total energy              =    -761.38500197 Ry
     Harris-Foulkes estimate   =    -761.34356872 Ry
     estimated scf accuracy    <       0.09565150 Ry

     iteration # 42     ecut=    10.00 Ry     beta= 0.70
     Davidson diagonalization with overlap
     ethr =  8.64E-05,  avg # of iterations =  2.0

     negative rho (up, down):  2.601E-02 0.000E+00

     total cpu time spent up to now is        7.3 secs

     total energy              =    -761.32728975 Ry
     Harris-Foulkes estimate   =    -761.39048613 Ry
     estimated scf accuracy    <       0.13713431 Ry

     iteration # 43     ecut=    10.00 Ry     beta= 0.70
     Davidson diagonalization with overlap
     ethr =  8.64E-05,  avg # of iterations =  2.0

     negative rho (up, down):  2.661E-02 0.000E+00

     total cpu time spent up to now is        7.4 secs

     total energy              =    -761.35491624 Ry
     Harris-Foulkes estimate   =    -761.33594531 Ry
     estimated scf accuracy    <       0.09445782 Ry

     iteration # 44     ecut=    10.00 Ry     beta= 0.70
     Davidson diagonalization with overlap
     ethr =  8.64E-05,  avg # of iterations =  1.7

     negative rho (up, down):  2.830E-02 0.000E+00

     total cpu time spent up to now is        7.6 secs

     total energy              =    -761.36509229 Ry
     Harris-Foulkes estimate   =    -761.35651743 Ry
     estimated scf accuracy    <       0.10121693 Ry

     iteration # 45     ecut=    10.00 Ry     beta= 0.70
     Davidson diagonalization with overlap
     ethr =  8.64E-05,  avg # of iterations =  1.0

     negative rho (up, down):  2.454E-02 0.000E+00

     total cpu time spent up to now is        7.8 secs

     total energy              =    -761.29839982 Ry
     Harris-Foulkes estimate   =    -761.36537366 Ry
     estimated scf accuracy    <       0.10062414 Ry

     iteration # 46     ecut=    10.00 Ry     beta= 0.70
     Davidson diagonalization with overlap
     ethr =  8.64E-05,  avg # of iterations =  2.3

     negative rho (up, down):  2.225E-02 0.000E+00

     total cpu time spent up to now is        8.0 secs

     total energy              =    -761.32155559 Ry
     Harris-Foulkes estimate   =    -761.32178590 Ry
     estimated scf accuracy    <       0.00013323 Ry

     iteration # 47     ecut=    10.00 Ry     beta= 0.70
     Davidson diagonalization with overlap
     ethr =  1.21E-06,  avg # of iterations =  3.0

     negative rho (up, down):  2.179E-02 0.000E+00

     total cpu time spent up to now is        8.1 secs

     total energy              =    -761.31063646 Ry
     Harris-Foulkes estimate   =    -761.32339131 Ry
     estimated scf accuracy    <       0.01161664 Ry

     iteration # 48     ecut=    10.00 Ry     beta= 0.70
     Davidson diagonalization with overlap
     ethr =  1.21E-06,  avg # of iterations =  3.0

     negative rho (up, down):  2.195E-02 0.000E+00

     total cpu time spent up to now is        8.3 secs

     total energy              =    -761.30742364 Ry
     Harris-Foulkes estimate   =    -761.31120769 Ry
     estimated scf accuracy    <       0.00640351 Ry

     iteration # 49     ecut=    10.00 Ry     beta= 0.70
     Davidson diagonalization with overlap
     ethr =  1.21E-06,  avg # of iterations =  2.0

     negative rho (up, down):  2.278E-02 0.000E+00

     total cpu time spent up to now is        8.5 secs

     total energy              =    -761.30703627 Ry
     Harris-Foulkes estimate   =    -761.30748266 Ry
     estimated scf accuracy    <       0.00452480 Ry

     iteration # 50     ecut=    10.00 Ry     beta= 0.70
     Davidson diagonalization with overlap
     ethr =  1.21E-06,  avg # of iterations =  2.7

     negative rho (up, down):  2.295E-02 0.000E+00

     total cpu time spent up to now is        8.7 secs

     total energy              =    -761.30844736 Ry
     Harris-Foulkes estimate   =    -761.30724478 Ry
     estimated scf accuracy    <       0.00119762 Ry

     iteration # 51     ecut=    10.00 Ry     beta= 0.70
     Davidson diagonalization with overlap
     ethr =  1.21E-06,  avg # of iterations =  1.7

     negative rho (up, down):  2.354E-02 0.000E+00

     total cpu time spent up to now is        8.8 secs

     total energy              =    -761.30778259 Ry
     Harris-Foulkes estimate   =    -761.30846542 Ry
     estimated scf accuracy    <       0.00094734 Ry

     iteration # 52     ecut=    10.00 Ry     beta= 0.70
     Davidson diagonalization with overlap
     ethr =  1.21E-06,  avg # of iterations =  2.0

     negative rho (up, down):  2.390E-02 0.000E+00

     total cpu time spent up to now is        9.0 secs

     total energy              =    -761.30757940 Ry
     Harris-Foulkes estimate   =    -761.30783848 Ry
     estimated scf accuracy    <       0.00012920 Ry

     iteration # 53     ecut=    10.00 Ry     beta= 0.70
     Davidson diagonalization with overlap
     ethr =  1.17E-06,  avg # of iterations =  2.0

     negative rho (up, down):  2.393E-02 0.000E+00

     total cpu time spent up to now is        9.2 secs

     total energy              =    -761.30757788 Ry
     Harris-Foulkes estimate   =    -761.30760016 Ry
     estimated scf accuracy    <       0.00000042 Ry

     iteration # 54     ecut=    10.00 Ry     beta= 0.70
     Davidson diagonalization with overlap
     ethr =  3.84E-09,  avg # of iterations =  2.7

     negative rho (up, down):  2.386E-02 0.000E+00

     total cpu time spent up to now is        9.3 secs

     total energy              =    -761.30764132 Ry
     Harris-Foulkes estimate   =    -761.30757873 Ry
     estimated scf accuracy    <       0.00000391 Ry

     iteration # 55     ecut=    10.00 Ry     beta= 0.70
     Davidson diagonalization with overlap
     ethr =  3.84E-09,  avg # of iterations =  3.0

     negative rho (up, down):  2.386E-02 0.000E+00

     total cpu time spent up to now is        9.5 secs

     total energy              =    -761.30750308 Ry
     Harris-Foulkes estimate   =    -761.30764192 Ry
     estimated scf accuracy    <       0.00000004 Ry

     iteration # 56     ecut=    10.00 Ry     beta= 0.70
     Davidson diagonalization with overlap
     ethr =  3.65E-10,  avg # of iterations =  2.3

     negative rho (up, down):  2.386E-02 0.000E+00

     total cpu time spent up to now is        9.7 secs

     End of self-consistent calculation

          k = 0.0000 0.0000 0.0000 (    59 PWs)   bands (ev):

     1.1679   1.1679   1.1679   5.9526  19.0917  19.0917  32.2931  35.4356
    35.4356  35.4356

          k = 0.5000-0.5000 0.5000 (    70 PWs)   bands (ev):

    -0.1108   2.3449   2.3449  12.5574  12.5574  15.2132  17.4299  31.4775
    32.8914  32.8914

          k = 0.0000-1.0000 0.0000 (    64 PWs)   bands (ev):

    -1.1216   5.0710   5.0710  14.9111  16.6749  17.0753  21.6874  25.9584
    25.9584  36.0261

     the Fermi energy is    17.0338 ev

!    total energy              =    -761.30753772 Ry
     Harris-Foulkes estimate   =    -761.30750318 Ry
     estimated scf accuracy    <          3.8E-09 Ry

     total all-electron energy =    -38010.142000 Ry

     The total energy is the sum of the following terms:

     one-electron contribution =      18.17739265 Ry
     hartree contribution      =       4.81429859 Ry
     xc contribution           =     -30.65956357 Ry
     ewald contribution        =     -71.95438535 Ry
     one-center paw contrib.   =    -681.68334901 Ry
     smearing contrib. (-TS)   =      -0.00193104 Ry

     convergence has been achieved in  56 iterations

     negative rho (up, down):  2.386E-02 0.000E+00

     Forces acting on atoms (cartesian axes, Ry/au):

     atom    1 type  1   force =     0.00000000    0.00000000    0.00000000

     Total force =     0.000000     Total SCF correction =     0.000000


     Computing stress (Cartesian axis) and pressure


     negative rho (up, down):  2.386E-02 0.000E+00
          total   stress  (Ry/bohr**3)                   (kbar)     P=-8022.46
  -0.05453557  -0.00000000   0.00000000      -8022.46     -0.00      0.00
  -0.00000000  -0.05453557  -0.00000000         -0.00  -8022.46     -0.00
   0.00000000  -0.00000000  -0.05453557          0.00     -0.00  -8022.46


     Writing output data file Au.save/

     init_run     :      0.19s CPU      0.20s WALL (       1 calls)
     electrons    :      7.09s CPU      8.14s WALL (       1 calls)
     forces       :      0.00s CPU      0.00s WALL (       1 calls)
     stress       :      0.01s CPU      0.01s WALL (       1 calls)

     Called by init_run:
     wfcinit      :      0.00s CPU      0.01s WALL (       1 calls)
     potinit      :      0.11s CPU      0.12s WALL (       1 calls)
     hinit0       :      0.05s CPU      0.05s WALL (       1 calls)

     Called by electrons:
     c_bands      :      0.49s CPU      0.58s WALL (      56 calls)
     sum_band     :      0.14s CPU      0.15s WALL (      56 calls)
     v_of_rho     :      0.04s CPU      0.04s WALL (      57 calls)
     newd         :      0.05s CPU      0.05s WALL (      57 calls)
     PAW_pot      :      6.43s CPU      7.37s WALL (      57 calls)
     mix_rho      :      0.02s CPU      0.02s WALL (      56 calls)

     Called by c_bands:
     init_us_2    :      0.01s CPU      0.01s WALL (     345 calls)
     cegterg      :      0.47s CPU      0.56s WALL (     168 calls)

     Called by sum_band:
     sum_band:bec :      0.00s CPU      0.00s WALL (     168 calls)
     addusdens    :      0.04s CPU      0.04s WALL (      56 calls)

     Called by *egterg:
     h_psi        :      0.25s CPU      0.30s WALL (     605 calls)
     s_psi        :      0.01s CPU      0.01s WALL (     605 calls)
     g_psi        :      0.00s CPU      0.00s WALL (     434 calls)
     cdiaghg      :      0.15s CPU      0.18s WALL (     602 calls)

     Called by h_psi:
     h_psi:pot    :      0.25s CPU      0.30s WALL (     605 calls)
     h_psi:calbec :      0.02s CPU      0.02s WALL (     605 calls)
     vloc_psi     :      0.22s CPU      0.26s WALL (     605 calls)
     add_vuspsi   :      0.01s CPU      0.01s WALL (     605 calls)

     General routines
     calbec       :      0.02s CPU      0.02s WALL (     788 calls)
     fft          :      0.02s CPU      0.03s WALL (     653 calls)
     ffts         :      0.00s CPU      0.00s WALL (      56 calls)
     fftw         :      0.23s CPU      0.28s WALL (   11162 calls)

     Parallel routines
     fft_scatt_xy :      0.03s CPU      0.03s WALL (   11871 calls)
     fft_scatt_yz :      0.12s CPU      0.14s WALL (   11871 calls)

     PWSCF        :     8.66s CPU         9.77s WALL


   This run was terminated on:  11:14: 2  26Mar2024            

=------------------------------------------------------------------------------=
   JOB DONE.
=------------------------------------------------------------------------------=
