
     Program PWSCF v.6.3MaX starts on 26Mar2024 at 12:29:45 

     This program is part of the open-source Quantum ESPRESSO suite
     for quantum simulation of materials; please cite
         "P. Giannozzi et al., J. Phys.:Condens. Matter 21 395502 (2009);
         "P. Giannozzi et al., J. Phys.:Condens. Matter 29 465901 (2017);
          URL http://www.quantum-espresso.org", 
     in publications or presentations arising from this work. More details at
     http://www.quantum-espresso.org/quote

     Parallel version (MPI), running on     5 processors

     MPI processes distributed on     1 nodes
     R & G space division:  proc/nbgrp/npool/nimage =       5
     Waiting for input...
     Reading input from standard input

     Current dimensions of program PWSCF are:
     Max number of different atomic species (ntypx) = 10
     Max number of k-points (npk) =  40000
     Max angular momentum in pseudopotentials (lmaxx) =  3
               file Au.pbesol-n-kjpaw_psl.1.0.0.UPF: wavefunction(s)  6S 5D renormalized

     Subspace diagonalization in iterative solution of the eigenvalue problem:
     a serial algorithm will be used


     Parallelization info
     --------------------
     sticks:   dense  smooth     PW     G-vecs:    dense   smooth      PW
     Min         137     137     42                 2407     2407     416
     Max         137     137     43                 2409     2409     418
     Sum         685     685    211                12039    12039    2085



     bravais-lattice index     =            2
     lattice parameter (alat)  =       7.7100  a.u.
     unit-cell volume          =     114.5785 (a.u.)^3
     number of atoms/cell      =            1
     number of atomic types    =            1
     number of electrons       =        11.00
     number of Kohn-Sham states=           10
     kinetic-energy cutoff     =      85.0000  Ry
     charge density cutoff     =     340.0000  Ry
     convergence threshold     =      1.0E-08
     mixing beta               =       0.7000
     number of iterations used =            8  plain     mixing
     Exchange-correlation      = SLA PW PSX PSC ( 1  4 10  8 0 0)

     celldm(1)=   7.710000  celldm(2)=   0.000000  celldm(3)=   0.000000
     celldm(4)=   0.000000  celldm(5)=   0.000000  celldm(6)=   0.000000

     crystal axes: (cart. coord. in units of alat)
               a(1) = (  -0.500000   0.000000   0.500000 )  
               a(2) = (   0.000000   0.500000   0.500000 )  
               a(3) = (  -0.500000   0.500000   0.000000 )  

     reciprocal axes: (cart. coord. in units 2 pi/alat)
               b(1) = ( -1.000000 -1.000000  1.000000 )  
               b(2) = (  1.000000  1.000000  1.000000 )  
               b(3) = ( -1.000000  1.000000 -1.000000 )  


     PseudoPot. # 1 for Au read from file:
     /home/lorenzo/pseudos/Au/Au.pbesol-n-kjpaw_psl.1.0.0.UPF
     MD5 check sum: abc371be705c47a6b6a6b4088b452d3e
     Pseudo is Projector augmented-wave + core cor, Zval = 11.0
     Generated using "atomic" code by A. Dal Corso v.6.3
     Shape of augmentation charge: PSQ
     Using radial grid of 1279 points,  6 beta functions with: 
                l(1) =   0
                l(2) =   0
                l(3) =   1
                l(4) =   1
                l(5) =   2
                l(6) =   2
     Q(r) pseudized with 0 coefficients 


     atomic species   valence    mass     pseudopotential
        Au            11.00   196.96600     Au( 1.00)

     48 Sym. Ops., with inversion, found



   Cartesian axes

     site n.     atom                  positions (alat units)
         1           Au  tau(   1) = (   0.0000000   0.0000000   0.0000000  )

     number of k points=    16  gaussian smearing, width (Ry)=  0.0100
                       cart. coord. in units 2pi/alat
        k(    1) = (   0.0000000   0.0000000   0.0000000), wk =   0.0092593
        k(    2) = (  -0.1666667   0.1666667  -0.1666667), wk =   0.0740741
        k(    3) = (  -0.3333333   0.3333333  -0.3333333), wk =   0.0740741
        k(    4) = (   0.5000000  -0.5000000   0.5000000), wk =   0.0370370
        k(    5) = (   0.0000000   0.3333333   0.0000000), wk =   0.0555556
        k(    6) = (  -0.1666667   0.5000000  -0.1666667), wk =   0.2222222
        k(    7) = (   0.6666667  -0.3333333   0.6666667), wk =   0.2222222
        k(    8) = (   0.5000000  -0.1666667   0.5000000), wk =   0.2222222
        k(    9) = (   0.3333333   0.0000000   0.3333333), wk =   0.1111111
        k(   10) = (   0.0000000   0.6666667   0.0000000), wk =   0.0555556
        k(   11) = (   0.8333333  -0.1666667   0.8333333), wk =   0.2222222
        k(   12) = (   0.6666667  -0.0000000   0.6666667), wk =   0.1111111
        k(   13) = (   0.0000000  -1.0000000   0.0000000), wk =   0.0277778
        k(   14) = (   0.6666667  -0.3333333   1.0000000), wk =   0.2222222
        k(   15) = (   0.5000000  -0.1666667   0.8333333), wk =   0.2222222
        k(   16) = (  -0.3333333  -1.0000000   0.0000000), wk =   0.1111111

     Dense  grid:    12039 G-vectors     FFT dimensions: (  32,  32,  32)

     Estimated max dynamical RAM per process >      11.57 MB

     Estimated total dynamical RAM >      57.83 MB

     Initial potential from superposition of free atoms

     starting charge   10.99990, renormalised to   11.00000
     Starting wfcs are    9 randomized atomic wfcs +    1 random wfcs
     Checking if some PAW data can be deallocated... 

     total cpu time spent up to now is        1.3 secs

     Self-consistent Calculation

     iteration #  1     ecut=    85.00 Ry     beta= 0.70
     Davidson diagonalization with overlap
     ethr =  1.00E-02,  avg # of iterations =  5.8

     Threshold (ethr) on eigenvalues was too large:
     Diagonalizing with lowered threshold

     Davidson diagonalization with overlap
     ethr =  5.48E-04,  avg # of iterations =  1.6

     total cpu time spent up to now is        2.0 secs

     total energy              =    -764.65461799 Ry
     Harris-Foulkes estimate   =    -764.69692464 Ry
     estimated scf accuracy    <       0.06126100 Ry

     iteration #  2     ecut=    85.00 Ry     beta= 0.70
     Davidson diagonalization with overlap
     ethr =  5.57E-04,  avg # of iterations =  2.6

     negative rho (up, down):  3.819E-03 0.000E+00

     total cpu time spent up to now is        2.3 secs

     total energy              =    -764.67328866 Ry
     Harris-Foulkes estimate   =    -764.68385688 Ry
     estimated scf accuracy    <       0.01971770 Ry

     iteration #  3     ecut=    85.00 Ry     beta= 0.70
     Davidson diagonalization with overlap
     ethr =  1.79E-04,  avg # of iterations =  1.9

     negative rho (up, down):  2.444E-02 0.000E+00

     total cpu time spent up to now is        2.6 secs

     total energy              =    -764.67737500 Ry
     Harris-Foulkes estimate   =    -764.67725645 Ry
     estimated scf accuracy    <       0.00227582 Ry

     iteration #  4     ecut=    85.00 Ry     beta= 0.70
     Davidson diagonalization with overlap
     ethr =  2.07E-05,  avg # of iterations =  3.6

     negative rho (up, down):  7.556E-03 0.000E+00

     total cpu time spent up to now is        3.0 secs

     total energy              =    -764.67757546 Ry
     Harris-Foulkes estimate   =    -764.67863597 Ry
     estimated scf accuracy    <       0.01428238 Ry

     iteration #  5     ecut=    85.00 Ry     beta= 0.70
     Davidson diagonalization with overlap
     ethr =  2.07E-05,  avg # of iterations =  2.9

     total cpu time spent up to now is        3.4 secs

     total energy              =    -764.67705611 Ry
     Harris-Foulkes estimate   =    -764.67806538 Ry
     estimated scf accuracy    <       0.00522501 Ry

     iteration #  6     ecut=    85.00 Ry     beta= 0.70
     Davidson diagonalization with overlap
     ethr =  2.07E-05,  avg # of iterations =  3.1

     negative rho (up, down):  2.082E-03 0.000E+00

     total cpu time spent up to now is        3.7 secs

     total energy              =    -764.67673903 Ry
     Harris-Foulkes estimate   =    -764.67736221 Ry
     estimated scf accuracy    <       0.00236895 Ry

     iteration #  7     ecut=    85.00 Ry     beta= 0.70
     Davidson diagonalization with overlap
     ethr =  2.07E-05,  avg # of iterations =  2.6

     negative rho (up, down):  1.960E-02 0.000E+00

     total cpu time spent up to now is        4.0 secs

     total energy              =    -764.67676556 Ry
     Harris-Foulkes estimate   =    -764.67703380 Ry
     estimated scf accuracy    <       0.00117937 Ry

     iteration #  8     ecut=    85.00 Ry     beta= 0.70
     Davidson diagonalization with overlap
     ethr =  1.07E-05,  avg # of iterations =  3.1

     negative rho (up, down):  1.120E-01 0.000E+00

     total cpu time spent up to now is        4.4 secs

     total energy              =    -764.67671802 Ry
     Harris-Foulkes estimate   =    -764.67693371 Ry
     estimated scf accuracy    <       0.00000200 Ry

     iteration #  9     ecut=    85.00 Ry     beta= 0.70
     Davidson diagonalization with overlap
     ethr =  1.81E-08,  avg # of iterations =  5.5

     negative rho (up, down):  1.242E-03 0.000E+00

     total cpu time spent up to now is        4.9 secs

     total energy              =    -764.67534722 Ry
     Harris-Foulkes estimate   =    -764.67731968 Ry
     estimated scf accuracy    <       0.00281299 Ry

     iteration # 10     ecut=    85.00 Ry     beta= 0.70
     Davidson diagonalization with overlap
     ethr =  1.81E-08,  avg # of iterations =  4.7

     negative rho (up, down):  1.359E-02 0.000E+00

     total cpu time spent up to now is        5.4 secs

     total energy              =    -764.67685253 Ry
     Harris-Foulkes estimate   =    -764.67705914 Ry
     estimated scf accuracy    <       0.00129154 Ry

     iteration # 11     ecut=    85.00 Ry     beta= 0.70
     Davidson diagonalization with overlap
     ethr =  1.81E-08,  avg # of iterations =  4.0

     negative rho (up, down):  1.415E-02 0.000E+00

     total cpu time spent up to now is        5.8 secs

     total energy              =    -764.67694711 Ry
     Harris-Foulkes estimate   =    -764.67694940 Ry
     estimated scf accuracy    <       0.00016833 Ry

     iteration # 12     ecut=    85.00 Ry     beta= 0.70
     Davidson diagonalization with overlap
     ethr =  1.81E-08,  avg # of iterations =  1.8

     negative rho (up, down):  1.512E-02 0.000E+00

     total cpu time spent up to now is        6.1 secs

     total energy              =    -764.67694351 Ry
     Harris-Foulkes estimate   =    -764.67694727 Ry
     estimated scf accuracy    <       0.00014184 Ry

     iteration # 13     ecut=    85.00 Ry     beta= 0.70
     Davidson diagonalization with overlap
     ethr =  1.81E-08,  avg # of iterations =  2.4

     negative rho (up, down):  1.892E-02 0.000E+00

     total cpu time spent up to now is        6.4 secs

     total energy              =    -764.67692900 Ry
     Harris-Foulkes estimate   =    -764.67694404 Ry
     estimated scf accuracy    <       0.00009706 Ry

     iteration # 14     ecut=    85.00 Ry     beta= 0.70
     Davidson diagonalization with overlap
     ethr =  1.81E-08,  avg # of iterations =  3.2

     negative rho (up, down):  1.962E-02 0.000E+00

     total cpu time spent up to now is        6.8 secs

     total energy              =    -764.67693697 Ry
     Harris-Foulkes estimate   =    -764.67693736 Ry
     estimated scf accuracy    <       0.00000143 Ry

     iteration # 15     ecut=    85.00 Ry     beta= 0.70
     Davidson diagonalization with overlap
     ethr =  1.30E-08,  avg # of iterations =  2.1

     negative rho (up, down):  1.924E-02 0.000E+00

     total cpu time spent up to now is        7.1 secs

     total energy              =    -764.67693719 Ry
     Harris-Foulkes estimate   =    -764.67693727 Ry
     estimated scf accuracy    <       0.00000020 Ry

     iteration # 16     ecut=    85.00 Ry     beta= 0.70
     Davidson diagonalization with overlap
     ethr =  1.79E-09,  avg # of iterations =  3.1

     negative rho (up, down):  1.923E-02 0.000E+00

     total cpu time spent up to now is        7.4 secs

     total energy              =    -764.67693728 Ry
     Harris-Foulkes estimate   =    -764.67693728 Ry
     estimated scf accuracy    <       0.00000012 Ry

     iteration # 17     ecut=    85.00 Ry     beta= 0.70
     Davidson diagonalization with overlap
     ethr =  1.10E-09,  avg # of iterations =  1.1

     negative rho (up, down):  1.940E-02 0.000E+00

     total cpu time spent up to now is        7.8 secs

     total energy              =    -764.67693725 Ry
     Harris-Foulkes estimate   =    -764.67693728 Ry
     estimated scf accuracy    <       0.00000014 Ry

     iteration # 18     ecut=    85.00 Ry     beta= 0.70
     Davidson diagonalization with overlap
     ethr =  1.10E-09,  avg # of iterations =  1.9

     negative rho (up, down):  1.937E-02 0.000E+00

     total cpu time spent up to now is        8.1 secs

     End of self-consistent calculation

          k = 0.0000 0.0000 0.0000 (  1459 PWs)   bands (ev):

     5.8148  11.0857  11.0857  11.0857  12.6245  12.6245  31.1333  34.9868
    34.9868  34.9868

          k =-0.1667 0.1667-0.1667 (  1495 PWs)   bands (ev):

     6.7322  10.8623  11.3346  11.3346  12.5734  12.5734  30.3300  32.1911
    35.7568  35.7568

          k =-0.3333 0.3333-0.3333 (  1501 PWs)   bands (ev):

     8.2492  11.2419  11.2419  11.7772  13.2431  13.2431  23.7429  31.3324
    34.9468  34.9468

          k = 0.5000-0.5000 0.5000 (  1502 PWs)   bands (ev):

     8.4210  11.0497  11.0497  13.8367  13.8367  14.7384  18.8987  30.4177
    33.3328  33.3328

          k = 0.0000 0.3333 0.0000 (  1507 PWs)   bands (ev):

     7.0483  10.4912  11.6629  11.6629  12.0248  12.8971  32.5325  32.5755
    33.1814  33.1814

          k =-0.1667 0.5000-0.1667 (  1516 PWs)   bands (ev):

     8.5791  10.2796  11.2168  11.9042  13.2111  13.4386  26.3842  31.4529
    31.7273  33.5858

          k = 0.6667-0.3333 0.6667 (  1517 PWs)   bands (ev):

     9.0330  10.6763  11.6338  11.7266  13.8802  16.4253  19.9499  29.4320
    31.1779  32.1833

          k = 0.5000-0.1667 0.5000 (  1516 PWs)   bands (ev):

     9.1151  10.8083  11.4883  11.6123  13.0847  15.4623  22.1092  28.5318
    32.1798  33.7371

          k = 0.3333 0.0000 0.3333 (  1502 PWs)   bands (ev):

     8.0639  10.5071  11.3567  11.8433  12.0588  13.5422  28.0082  30.0015
    34.4772  35.3026

          k = 0.0000 0.6667 0.0000 (  1527 PWs)   bands (ev):

     8.8628   9.4622  12.7321  13.1398  13.1398  13.4746  27.7928  28.3934
    28.3934  32.1483

          k = 0.8333-0.1667 0.8333 (  1511 PWs)   bands (ev):

     9.0924   9.5385  12.3333  13.0220  13.9878  16.9125  22.3740  25.3736
    27.6628  33.5595

          k = 0.6667-0.0000 0.6667 (  1516 PWs)   bands (ev):

     9.5928  10.3987  11.2733  12.5117  13.3958  18.2378  22.2825  22.8043
    30.0371  33.0720

          k = 0.0000-1.0000 0.0000 (  1524 PWs)   bands (ev):

     8.6578   9.0076  13.7816  14.1734  14.1734  16.7438  21.4416  25.9434
    25.9434  32.4937

          k = 0.6667-0.3333 1.0000 (  1508 PWs)   bands (ev):

     9.7453  10.0161  10.7658  12.7760  13.1294  15.6882  24.3491  26.1876
    29.0984  36.3604

          k = 0.5000-0.1667 0.8333 (  1518 PWs)   bands (ev):

     9.9896  10.0903  11.0012  12.3680  13.7521  19.1380  19.8832  25.6115
    27.3155  35.6684

          k =-0.3333-1.0000 0.0000 (  1522 PWs)   bands (ev):

     9.4135   9.7229  11.7993  12.8977  14.1749  19.9875  20.7100  24.0614
    25.0837  37.2139

     the Fermi energy is    15.7198 ev

!    total energy              =    -764.67693727 Ry
     Harris-Foulkes estimate   =    -764.67693726 Ry
     estimated scf accuracy    <          1.8E-09 Ry

     total all-electron energy =    -38013.511399 Ry

     The total energy is the sum of the following terms:

     one-electron contribution =      13.86878143 Ry
     hartree contribution      =       7.58157961 Ry
     xc contribution           =     -31.82972544 Ry
     ewald contribution        =     -71.95438534 Ry
     one-center paw contrib.   =    -682.34257613 Ry
     smearing contrib. (-TS)   =      -0.00061139 Ry

     convergence has been achieved in  18 iterations

     negative rho (up, down):  1.937E-02 0.000E+00

     Forces acting on atoms (cartesian axes, Ry/au):

     atom    1 type  1   force =     0.00000000    0.00000000    0.00000000

     Total force =     0.000000     Total SCF correction =     0.000000


     Computing stress (Cartesian axis) and pressure


     negative rho (up, down):  1.937E-02 0.000E+00
          total   stress  (Ry/bohr**3)                   (kbar)     P=   30.06
   0.00020436  -0.00000000  -0.00000000         30.06     -0.00     -0.00
  -0.00000000   0.00020436   0.00000000         -0.00     30.06      0.00
  -0.00000000   0.00000000   0.00020436         -0.00      0.00     30.06


     Writing output data file Au.save/

     init_run     :      0.38s CPU      0.42s WALL (       1 calls)
     electrons    :      6.34s CPU      6.72s WALL (       1 calls)
     forces       :      0.05s CPU      0.05s WALL (       1 calls)
     stress       :      0.16s CPU      0.17s WALL (       1 calls)

     Called by init_run:
     wfcinit      :      0.05s CPU      0.06s WALL (       1 calls)
     potinit      :      0.11s CPU      0.12s WALL (       1 calls)
     hinit0       :      0.20s CPU      0.20s WALL (       1 calls)

     Called by electrons:
     c_bands      :      3.53s CPU      3.79s WALL (      19 calls)
     sum_band     :      0.75s CPU      0.81s WALL (      19 calls)
     v_of_rho     :      0.11s CPU      0.12s WALL (      19 calls)
     newd         :      0.21s CPU      0.22s WALL (      19 calls)
     PAW_pot      :      1.81s CPU      1.87s WALL (      19 calls)
     mix_rho      :      0.02s CPU      0.02s WALL (      19 calls)

     Called by c_bands:
     init_us_2    :      0.11s CPU      0.12s WALL (     656 calls)
     cegterg      :      3.36s CPU      3.62s WALL (     304 calls)

     Called by sum_band:
     sum_band:bec :      0.00s CPU      0.00s WALL (     304 calls)
     addusdens    :      0.21s CPU      0.22s WALL (      19 calls)

     Called by *egterg:
     h_psi        :      2.48s CPU      2.70s WALL (    1230 calls)
     s_psi        :      0.10s CPU      0.10s WALL (    1230 calls)
     g_psi        :      0.01s CPU      0.01s WALL (     910 calls)
     cdiaghg      :      0.28s CPU      0.29s WALL (    1198 calls)

     Called by h_psi:
     h_psi:pot    :      2.46s CPU      2.68s WALL (    1230 calls)
     h_psi:calbec :      0.13s CPU      0.15s WALL (    1230 calls)
     vloc_psi     :      2.23s CPU      2.42s WALL (    1230 calls)
     add_vuspsi   :      0.10s CPU      0.11s WALL (    1230 calls)

     General routines
     calbec       :      0.18s CPU      0.20s WALL (    1614 calls)
     fft          :      0.05s CPU      0.06s WALL (     236 calls)
     ffts         :      0.00s CPU      0.00s WALL (      19 calls)
     fftw         :      2.42s CPU      2.64s WALL (   20782 calls)

     Parallel routines
     fft_scatt_xy :      0.24s CPU      0.26s WALL (   21037 calls)
     fft_scatt_yz :      0.76s CPU      0.83s WALL (   21037 calls)

     PWSCF        :     7.88s CPU         8.34s WALL


   This run was terminated on:  12:29:53  26Mar2024            

=------------------------------------------------------------------------------=
   JOB DONE.
=------------------------------------------------------------------------------=
