
     Program PWSCF v.6.3MaX starts on 26Mar2024 at 12:33:56 

     This program is part of the open-source Quantum ESPRESSO suite
     for quantum simulation of materials; please cite
         "P. Giannozzi et al., J. Phys.:Condens. Matter 21 395502 (2009);
         "P. Giannozzi et al., J. Phys.:Condens. Matter 29 465901 (2017);
          URL http://www.quantum-espresso.org", 
     in publications or presentations arising from this work. More details at
     http://www.quantum-espresso.org/quote

     Parallel version (MPI), running on     5 processors

     MPI processes distributed on     1 nodes
     R & G space division:  proc/nbgrp/npool/nimage =       5
     Waiting for input...
     Reading input from standard input

     Current dimensions of program PWSCF are:
     Max number of different atomic species (ntypx) = 10
     Max number of k-points (npk) =  40000
     Max angular momentum in pseudopotentials (lmaxx) =  3
               file Au.pbe-n-kjpaw_psl.1.0.0.UPF: wavefunction(s)  6S 5D renormalized

     Subspace diagonalization in iterative solution of the eigenvalue problem:
     a serial algorithm will be used


     Parallelization info
     --------------------
     sticks:   dense  smooth     PW     G-vecs:    dense   smooth      PW
     Min         149     149     43                 2664     2664     445
     Max         149     149     45                 2665     2665     446
     Sum         745     745    223                13323    13323    2229



     bravais-lattice index     =            2
     lattice parameter (alat)  =       7.7100  a.u.
     unit-cell volume          =     114.5785 (a.u.)^3
     number of atoms/cell      =            1
     number of atomic types    =            1
     number of electrons       =        11.00
     number of Kohn-Sham states=           10
     kinetic-energy cutoff     =      90.0000  Ry
     charge density cutoff     =     360.0000  Ry
     convergence threshold     =      1.0E-08
     mixing beta               =       0.7000
     number of iterations used =            8  plain     mixing
     Exchange-correlation      = SLA PW PBX PBC ( 1  4  3  4 0 0)

     celldm(1)=   7.710000  celldm(2)=   0.000000  celldm(3)=   0.000000
     celldm(4)=   0.000000  celldm(5)=   0.000000  celldm(6)=   0.000000

     crystal axes: (cart. coord. in units of alat)
               a(1) = (  -0.500000   0.000000   0.500000 )  
               a(2) = (   0.000000   0.500000   0.500000 )  
               a(3) = (  -0.500000   0.500000   0.000000 )  

     reciprocal axes: (cart. coord. in units 2 pi/alat)
               b(1) = ( -1.000000 -1.000000  1.000000 )  
               b(2) = (  1.000000  1.000000  1.000000 )  
               b(3) = ( -1.000000  1.000000 -1.000000 )  


     PseudoPot. # 1 for Au read from file:
     /home/lorenzo/pseudos/Au/Au.pbe-n-kjpaw_psl.1.0.0.UPF
     MD5 check sum: 4db85c736373c707a97ce4c36c2a9d23
     Pseudo is Projector augmented-wave + core cor, Zval = 11.0
     Generated using "atomic" code by A. Dal Corso v.6.3
     Shape of augmentation charge: PSQ
     Using radial grid of 1279 points,  6 beta functions with: 
                l(1) =   0
                l(2) =   0
                l(3) =   1
                l(4) =   1
                l(5) =   2
                l(6) =   2
     Q(r) pseudized with 0 coefficients 


     atomic species   valence    mass     pseudopotential
        Au            11.00   196.96600     Au( 1.00)

     48 Sym. Ops., with inversion, found



   Cartesian axes

     site n.     atom                  positions (alat units)
         1           Au  tau(   1) = (   0.0000000   0.0000000   0.0000000  )

     number of k points=    56  gaussian smearing, width (Ry)=  0.0100
                       cart. coord. in units 2pi/alat
        k(    1) = (   0.0000000   0.0000000   0.0000000), wk =   0.0015026
        k(    2) = (  -0.0909091   0.0909091  -0.0909091), wk =   0.0120210
        k(    3) = (  -0.1818182   0.1818182  -0.1818182), wk =   0.0120210
        k(    4) = (  -0.2727273   0.2727273  -0.2727273), wk =   0.0120210
        k(    5) = (  -0.3636364   0.3636364  -0.3636364), wk =   0.0120210
        k(    6) = (  -0.4545455   0.4545455  -0.4545455), wk =   0.0120210
        k(    7) = (   0.0000000   0.1818182   0.0000000), wk =   0.0090158
        k(    8) = (  -0.0909091   0.2727273  -0.0909091), wk =   0.0360631
        k(    9) = (  -0.1818182   0.3636364  -0.1818182), wk =   0.0360631
        k(   10) = (  -0.2727273   0.4545455  -0.2727273), wk =   0.0360631
        k(   11) = (  -0.3636364   0.5454545  -0.3636364), wk =   0.0360631
        k(   12) = (   0.5454545  -0.3636364   0.5454545), wk =   0.0360631
        k(   13) = (   0.4545455  -0.2727273   0.4545455), wk =   0.0360631
        k(   14) = (   0.3636364  -0.1818182   0.3636364), wk =   0.0360631
        k(   15) = (   0.2727273  -0.0909091   0.2727273), wk =   0.0360631
        k(   16) = (   0.1818182  -0.0000000   0.1818182), wk =   0.0180316
        k(   17) = (   0.0000000   0.3636364   0.0000000), wk =   0.0090158
        k(   18) = (  -0.0909091   0.4545455  -0.0909091), wk =   0.0360631
        k(   19) = (  -0.1818182   0.5454545  -0.1818182), wk =   0.0360631
        k(   20) = (  -0.2727273   0.6363636  -0.2727273), wk =   0.0360631
        k(   21) = (   0.6363636  -0.2727273   0.6363636), wk =   0.0360631
        k(   22) = (   0.5454545  -0.1818182   0.5454545), wk =   0.0360631
        k(   23) = (   0.4545455  -0.0909091   0.4545455), wk =   0.0360631
        k(   24) = (   0.3636364   0.0000000   0.3636364), wk =   0.0180316
        k(   25) = (   0.0000000   0.5454545   0.0000000), wk =   0.0090158
        k(   26) = (  -0.0909091   0.6363636  -0.0909091), wk =   0.0360631
        k(   27) = (  -0.1818182   0.7272727  -0.1818182), wk =   0.0360631
        k(   28) = (   0.7272727  -0.1818182   0.7272727), wk =   0.0360631
        k(   29) = (   0.6363636  -0.0909091   0.6363636), wk =   0.0360631
        k(   30) = (   0.5454545   0.0000000   0.5454545), wk =   0.0180316
        k(   31) = (   0.0000000   0.7272727   0.0000000), wk =   0.0090158
        k(   32) = (  -0.0909091   0.8181818  -0.0909091), wk =   0.0360631
        k(   33) = (   0.8181818  -0.0909091   0.8181818), wk =   0.0360631
        k(   34) = (   0.7272727   0.0000000   0.7272727), wk =   0.0180316
        k(   35) = (   0.0000000   0.9090909   0.0000000), wk =   0.0090158
        k(   36) = (   0.9090909  -0.0000000   0.9090909), wk =   0.0180316
        k(   37) = (  -0.1818182   0.3636364   0.0000000), wk =   0.0360631
        k(   38) = (  -0.2727273   0.4545455  -0.0909091), wk =   0.0721262
        k(   39) = (  -0.3636364   0.5454545  -0.1818182), wk =   0.0721262
        k(   40) = (   0.5454545  -0.3636364   0.7272727), wk =   0.0721262
        k(   41) = (  -0.1818182   0.5454545   0.0000000), wk =   0.0360631
        k(   42) = (  -0.2727273   0.6363636  -0.0909091), wk =   0.0721262
        k(   43) = (   0.6363636  -0.2727273   0.8181818), wk =   0.0721262
        k(   44) = (   0.5454545  -0.1818182   0.7272727), wk =   0.0721262
        k(   45) = (   0.4545455  -0.0909091   0.6363636), wk =   0.0721262
        k(   46) = (   0.3636364   0.0000000   0.5454545), wk =   0.0360631
        k(   47) = (  -0.1818182   0.7272727   0.0000000), wk =   0.0360631
        k(   48) = (   0.7272727  -0.1818182   0.9090909), wk =   0.0721262
        k(   49) = (   0.6363636  -0.0909091   0.8181818), wk =   0.0721262
        k(   50) = (   0.5454545   0.0000000   0.7272727), wk =   0.0360631
        k(   51) = (   0.8181818  -0.0909091   1.0000000), wk =   0.0360631
        k(   52) = (   0.7272727   0.0000000   0.9090909), wk =   0.0360631
        k(   53) = (   0.6363636  -0.2727273   1.0000000), wk =   0.0360631
        k(   54) = (   0.5454545  -0.1818182   0.9090909), wk =   0.0721262
        k(   55) = (   0.6363636  -0.0909091   1.0000000), wk =   0.0360631
        k(   56) = (   0.5454545   0.0000000   0.9090909), wk =   0.0360631

     Dense  grid:    13323 G-vectors     FFT dimensions: (  36,  36,  36)

     Estimated max dynamical RAM per process >      14.82 MB

     Estimated total dynamical RAM >      74.11 MB

     Initial potential from superposition of free atoms

     starting charge   10.99989, renormalised to   11.00000
     Starting wfcs are    9 randomized atomic wfcs +    1 random wfcs
     Checking if some PAW data can be deallocated... 

     total cpu time spent up to now is        1.6 secs

     Self-consistent Calculation

     iteration #  1     ecut=    90.00 Ry     beta= 0.70
     Davidson diagonalization with overlap
     ethr =  1.00E-02,  avg # of iterations =  5.4

     Threshold (ethr) on eigenvalues was too large:
     Diagonalizing with lowered threshold

     Davidson diagonalization with overlap
     ethr =  4.73E-04,  avg # of iterations =  1.6

     total cpu time spent up to now is        4.7 secs

     total energy              =    -775.11830341 Ry
     Harris-Foulkes estimate   =    -775.15368034 Ry
     estimated scf accuracy    <       0.05223686 Ry

     iteration #  2     ecut=    90.00 Ry     beta= 0.70
     Davidson diagonalization with overlap
     ethr =  4.75E-04,  avg # of iterations =  2.8

     total cpu time spent up to now is        5.9 secs

     total energy              =    -775.13413996 Ry
     Harris-Foulkes estimate   =    -775.14313675 Ry
     estimated scf accuracy    <       0.01476576 Ry

     iteration #  3     ecut=    90.00 Ry     beta= 0.70
     Davidson diagonalization with overlap
     ethr =  1.34E-04,  avg # of iterations =  2.0

     total cpu time spent up to now is        6.9 secs

     total energy              =    -775.13745718 Ry
     Harris-Foulkes estimate   =    -775.13747473 Ry
     estimated scf accuracy    <       0.00023301 Ry

     iteration #  4     ecut=    90.00 Ry     beta= 0.70
     Davidson diagonalization with overlap
     ethr =  2.12E-06,  avg # of iterations =  3.8

     total cpu time spent up to now is        8.5 secs

     total energy              =    -775.13768746 Ry
     Harris-Foulkes estimate   =    -775.13778149 Ry
     estimated scf accuracy    <       0.00020911 Ry

     iteration #  5     ecut=    90.00 Ry     beta= 0.70
     Davidson diagonalization with overlap
     ethr =  1.90E-06,  avg # of iterations =  1.0

     total cpu time spent up to now is        9.4 secs

     total energy              =    -775.13768917 Ry
     Harris-Foulkes estimate   =    -775.13770483 Ry
     estimated scf accuracy    <       0.00002421 Ry

     iteration #  6     ecut=    90.00 Ry     beta= 0.70
     Davidson diagonalization with overlap
     ethr =  2.20E-07,  avg # of iterations =  2.4

     total cpu time spent up to now is       10.6 secs

     total energy              =    -775.13770098 Ry
     Harris-Foulkes estimate   =    -775.13770174 Ry
     estimated scf accuracy    <       0.00000226 Ry

     iteration #  7     ecut=    90.00 Ry     beta= 0.70
     Davidson diagonalization with overlap
     ethr =  2.05E-08,  avg # of iterations =  1.7

     total cpu time spent up to now is       11.7 secs

     total energy              =    -775.13770089 Ry
     Harris-Foulkes estimate   =    -775.13770120 Ry
     estimated scf accuracy    <       0.00000056 Ry

     iteration #  8     ecut=    90.00 Ry     beta= 0.70
     Davidson diagonalization with overlap
     ethr =  5.14E-09,  avg # of iterations =  2.3

     total cpu time spent up to now is       13.0 secs

     End of self-consistent calculation

          k = 0.0000 0.0000 0.0000 (  1639 PWs)   bands (ev):

     6.0729  11.2648  11.2648  11.2648  12.7882  12.7882  31.3896  35.2416
    35.2416  35.2416

          k =-0.0909 0.0909-0.0909 (  1663 PWs)   bands (ev):

     6.3592  11.1759  11.3611  11.3611  12.7487  12.7487  31.6537  33.4147
    35.5169  35.5169

          k =-0.1818 0.1818-0.1818 (  1654 PWs)   bands (ev):

     7.1456  11.0313  11.5343  11.5343  12.7550  12.7550  29.9352  32.4548
    36.1014  36.1014

          k =-0.2727 0.2727-0.2727 (  1642 PWs)   bands (ev):

     8.0910  11.2685  11.5207  11.5207  13.0682  13.0682  26.3539  32.1395
    35.9550  35.9550

          k =-0.3636 0.3636-0.3636 (  1640 PWs)   bands (ev):

     8.5627  11.3615  11.3615  12.5539  13.5775  13.5775  22.7181  31.2876
    34.6829  34.6829

          k =-0.4545 0.4545-0.4545 (  1673 PWs)   bands (ev):

     8.6259  11.2421  11.2421  13.9452  13.9452  14.5135  19.6788  30.7451
    33.7265  33.7265

          k = 0.0000 0.1818 0.0000 (  1659 PWs)   bands (ev):

     6.4558  11.0701  11.4394  11.4394  12.5812  12.8737  31.8078  34.0326
    34.7671  34.7671

          k =-0.0909 0.2727-0.0909 (  1659 PWs)   bands (ev):

     7.0847  10.8705  11.6286  11.6437  12.4408  12.9670  31.2159  32.5127
    34.3224  35.6449

          k =-0.1818 0.3636-0.1818 (  1644 PWs)   bands (ev):

     8.0347  10.8284  11.5658  11.7228  12.7824  13.2377  27.7336  32.4764
    33.8094  36.1224

          k =-0.2727 0.4545-0.2727 (  1646 PWs)   bands (ev):

     8.7007  11.3047  11.4843  11.6032  13.6691  13.6801  24.0258  31.6980
    33.1366  34.6720

          k =-0.3636 0.5455-0.3636 (  1647 PWs)   bands (ev):

     8.8327  11.1306  11.4514  12.5931  13.9889  15.1036  20.6250  31.0008
    32.7753  33.1636

          k = 0.5455-0.3636 0.5455 (  1662 PWs)   bands (ev):

     8.8381  11.0975  11.3862  13.0586  13.9272  16.1209  19.1355  30.7255
    32.3240  33.2370

          k = 0.4545-0.2727 0.4545 (  1644 PWs)   bands (ev):

     8.8329  11.2082  11.4501  12.4220  13.4907  14.7842  21.7224  30.8900
    32.4488  34.6870

          k = 0.3636-0.1818 0.3636 (  1646 PWs)   bands (ev):

     8.5654  11.1841  11.4966  11.6160  12.8870  13.8533  25.2665  31.3731
    33.4499  36.9697

          k = 0.2727-0.0909 0.2727 (  1652 PWs)   bands (ev):

     7.7115  10.8615  11.5993  11.7075  12.4697  13.2192  28.8970  31.8470
    34.6460  36.6535

          k = 0.1818-0.0000 0.1818 (  1659 PWs)   bands (ev):

     6.8188  11.0113  11.5026  11.5312  12.5455  12.8884  31.8922  31.9577
    34.5584  36.7447

          k = 0.0000 0.3636 0.0000 (  1648 PWs)   bands (ev):

     7.5195  10.5791  11.9460  11.9460  12.1154  13.1085  32.8161  32.8718
    32.9304  32.9304

          k =-0.0909 0.4545-0.0909 (  1651 PWs)   bands (ev):

     8.3220  10.3470  11.6808  12.1823  12.6718  13.3420  29.3836  31.8496
    32.8364  34.0154

          k =-0.1818 0.5455-0.1818 (  1655 PWs)   bands (ev):

     9.0729  10.4650  11.3254  12.1453  13.7543  13.8533  25.5667  31.1148
    31.5586  33.3675

          k =-0.2727 0.6364-0.2727 (  1649 PWs)   bands (ev):

     9.2891  10.8303  11.4426  11.9850  14.0418  15.6303  21.9569  30.0812
    30.9549  32.7370

          k = 0.6364-0.2727 0.6364 (  1661 PWs)   bands (ev):

     9.3449  10.7891  11.8572  11.9986  13.9454  17.8024  19.1200  28.8913
    31.6389  32.3139

          k = 0.5455-0.1818 0.5455 (  1647 PWs)   bands (ev):

     9.4268  10.8747  11.8372  11.8489  13.4647  16.4480  21.1842  28.2489
    32.3745  33.2233

          k = 0.4545-0.0909 0.4545 (  1649 PWs)   bands (ev):

     9.3741  10.8900  11.2603  11.9490  12.7938  15.0348  24.4926  28.3300
    33.0304  35.4967

          k = 0.3636 0.0000 0.3636 (  1642 PWs)   bands (ev):

     8.6494  10.6568  11.4663  12.1477  12.1840  14.0013  27.5031  29.4041
    34.2805  36.0123

          k = 0.0000 0.5455 0.0000 (  1648 PWs)   bands (ev):

     8.7666   9.9938  12.0646  12.7185  12.7185  13.4284  30.2779  30.2779
    31.4829  32.6289

          k =-0.0909 0.6364-0.0909 (  1659 PWs)   bands (ev):

     9.1879   9.8225  12.0551  12.8855  13.7662  13.8434  27.0616  29.2444
    29.5188  33.3999

          k =-0.1818 0.7273-0.1818 (  1653 PWs)   bands (ev):

     9.4025  10.0225  11.8658  12.7468  14.0861  15.8455  23.4483  27.8087
    28.9699  33.5038

          k = 0.7273-0.1818 0.7273 (  1660 PWs)   bands (ev):

     9.5575  10.3895  11.7099  12.5636  14.0045  18.3814  20.3884  26.2545
    29.6346  33.2609

          k = 0.6364-0.0909 0.6364 (  1656 PWs)   bands (ev):

     9.8202  10.6738  11.4180  12.4143  13.5469  18.0244  21.3474  25.0789
    31.1795  33.0439

          k = 0.5455 0.0000 0.5455 (  1646 PWs)   bands (ev):

    10.0015  10.8513  10.9615  12.2691  13.0046  16.3802  23.9497  25.1955
    32.9882  33.2953

          k = 0.0000 0.7273 0.0000 (  1664 PWs)   bands (ev):

     9.0806   9.5021  13.5913  13.5913  13.7008  13.7359  26.6257  27.8686
    27.8686  32.7953

          k =-0.0909 0.8182-0.0909 (  1653 PWs)   bands (ev):

     9.1148   9.4431  13.2289  13.5338  14.1148  15.8679  24.0068  26.3930
    27.3099  33.6397

          k = 0.8182-0.0909 0.8182 (  1662 PWs)   bands (ev):

     9.2838   9.7270  12.6586  13.3140  14.1103  18.4540  21.5342  24.6271
    27.7886  33.9699

          k = 0.7273 0.0000 0.7273 (  1658 PWs)   bands (ev):

     9.5693  10.2544  11.9262  12.9646  13.7951  19.5244  21.1395  23.2998
    29.2036  33.6392

          k = 0.0000 0.9091 0.0000 (  1656 PWs)   bands (ev):

     8.9061   9.2275  13.9255  14.2283  14.2283  16.3344  22.6093  26.4052
    26.4052  33.1469

          k = 0.9091-0.0000 0.9091 (  1656 PWs)   bands (ev):

     8.9935   9.3059  13.7478  13.8021  14.2610  17.7761  21.5703  25.4270
    26.5817  33.8260

          k =-0.1818 0.3636 0.0000 (  1655 PWs)   bands (ev):

     7.8262  10.6360  11.6421  11.9518  12.3621  13.2686  29.9497  31.2665
    34.4691  34.9351

          k =-0.2727 0.4545-0.0909 (  1645 PWs)   bands (ev):

     8.7602  10.6129  11.3608  12.0377  12.7716  13.9459  26.7199  30.3211
    33.1522  35.4920

          k =-0.3636 0.5455-0.1818 (  1643 PWs)   bands (ev):

     9.1990  11.0562  11.2844  11.8940  13.4712  15.0173  23.1095  29.9157
    31.7363  34.5513

          k = 0.5455-0.3636 0.7273 (  1653 PWs)   bands (ev):

     9.2228  10.8747  11.7205  12.1502  13.8668  16.7465  19.9053  30.0221
    30.6958  33.5140

          k =-0.1818 0.5455 0.0000 (  1658 PWs)   bands (ev):

     9.0402  10.1267  11.4747  12.7122  12.8692  13.9259  27.9053  29.2738
    31.6089  35.1330

          k =-0.2727 0.6364-0.0909 (  1650 PWs)   bands (ev):

     9.5553  10.2660  11.2108  12.6354  13.5516  15.1673  24.6318  28.2932
    29.9910  34.8428

          k = 0.6364-0.2727 0.8182 (  1652 PWs)   bands (ev):

     9.6632  10.5536  11.3097  12.4207  13.9134  17.1357  21.3230  27.8941
    29.0021  34.3663

          k = 0.5455-0.1818 0.7273 (  1655 PWs)   bands (ev):

     9.7886  10.5405  11.5349  12.2556  13.8049  18.5641  19.7320  27.0039
    29.5578  34.3152

          k = 0.4545-0.0909 0.6364 (  1653 PWs)   bands (ev):

     9.9241  10.6762  11.0287  12.3512  13.3641  16.5251  22.7455  26.5223
    30.7477  35.0290

          k = 0.3636 0.0000 0.5455 (  1657 PWs)   bands (ev):

     9.6649  10.4736  11.0097  12.4777  12.7489  15.0810  25.5039  27.3307
    32.0076  36.4698

          k =-0.1818 0.7273 0.0000 (  1650 PWs)   bands (ev):

     9.3593   9.6873  12.1645  13.5234  13.5853  15.2573  25.3817  27.1340
    28.0629  34.6708

          k = 0.7273-0.1818 0.9091 (  1658 PWs)   bands (ev):

     9.5199   9.8977  11.9312  13.1955  14.0237  17.3641  22.7004  25.8125
    27.3470  35.1108

          k = 0.6364-0.0909 0.8182 (  1647 PWs)   bands (ev):

     9.7378  10.3040  11.5861  12.8194  13.9642  19.6062  20.6199  24.3678
    28.0327  35.0025

          k = 0.5455 0.0000 0.7273 (  1652 PWs)   bands (ev):

    10.0753  10.6093  11.0465  12.6071  13.6074  18.1074  23.1827  23.2308
    29.3823  35.0180

          k = 0.8182-0.0909 1.0000 (  1661 PWs)   bands (ev):

     9.1614   9.4392  13.0766  13.6883  14.2277  17.6017  22.2880  25.7677
    26.1151  34.7752

          k = 0.7273 0.0000 0.9091 (  1650 PWs)   bands (ev):

     9.4056   9.7636  12.4291  13.2782  14.2214  19.6525  20.9210  24.1904
    26.6487  35.3601

          k = 0.6364-0.2727 1.0000 (  1653 PWs)   bands (ev):

    10.0647  10.2260  10.9548  12.9811  13.5771  16.7780  23.8480  25.3787
    28.5420  36.8927

          k = 0.5455-0.1818 0.9091 (  1657 PWs)   bands (ev):

    10.1606  10.3922  10.9946  12.6902  13.9377  18.7613  21.5425  24.9451
    27.3916  36.6107

          k = 0.6364-0.0909 1.0000 (  1651 PWs)   bands (ev):

     9.7668  10.0680  11.6178  12.9938  14.2255  19.3261  22.0432  24.1152
    25.8909  37.7304

          k = 0.5455 0.0000 0.9091 (  1648 PWs)   bands (ev):

     9.9793  10.5082  11.0896  12.6897  14.2221  20.2623  21.9350  22.9198
    26.1024  37.7225

     the Fermi energy is    16.0122 ev

!    total energy              =    -775.13770104 Ry
     Harris-Foulkes estimate   =    -775.13770104 Ry
     estimated scf accuracy    <          1.5E-09 Ry

     total all-electron energy =    -38023.983792 Ry

     The total energy is the sum of the following terms:

     one-electron contribution =      13.83125128 Ry
     hartree contribution      =       7.62967150 Ry
     xc contribution           =     -32.12013485 Ry
     ewald contribution        =     -71.95438534 Ry
     one-center paw contrib.   =    -692.52399405 Ry
     smearing contrib. (-TS)   =      -0.00010959 Ry

     convergence has been achieved in   8 iterations

     Forces acting on atoms (cartesian axes, Ry/au):

     atom    1 type  1   force =     0.00000000    0.00000000    0.00000000

     Total force =     0.000000     Total SCF correction =     0.000000


     Computing stress (Cartesian axis) and pressure

          total   stress  (Ry/bohr**3)                   (kbar)     P=  101.55
   0.00069029  -0.00000000  -0.00000000        101.55     -0.00     -0.00
  -0.00000000   0.00069029   0.00000000         -0.00    101.55      0.00
  -0.00000000   0.00000000   0.00069029         -0.00      0.00    101.55


     Writing output data file Au.save/

     init_run     :      0.63s CPU      0.68s WALL (       1 calls)
     electrons    :     10.84s CPU     11.40s WALL (       1 calls)
     forces       :      0.09s CPU      0.09s WALL (       1 calls)
     stress       :      0.32s CPU      0.32s WALL (       1 calls)

     Called by init_run:
     wfcinit      :      0.28s CPU      0.31s WALL (       1 calls)
     potinit      :      0.11s CPU      0.13s WALL (       1 calls)
     hinit0       :      0.21s CPU      0.21s WALL (       1 calls)

     Called by electrons:
     c_bands      :      8.26s CPU      8.70s WALL (       9 calls)
     sum_band     :      1.58s CPU      1.67s WALL (       9 calls)
     v_of_rho     :      0.08s CPU      0.09s WALL (       9 calls)
     newd         :      0.13s CPU      0.13s WALL (       9 calls)
     PAW_pot      :      0.89s CPU      0.93s WALL (       9 calls)
     mix_rho      :      0.01s CPU      0.01s WALL (       9 calls)

     Called by c_bands:
     init_us_2    :      0.22s CPU      0.23s WALL (    1176 calls)
     cegterg      :      7.94s CPU      8.36s WALL (     504 calls)

     Called by sum_band:
     sum_band:bec :      0.01s CPU      0.01s WALL (     504 calls)
     addusdens    :      0.12s CPU      0.12s WALL (       9 calls)

     Called by *egterg:
     h_psi        :      6.54s CPU      6.93s WALL (    1846 calls)
     s_psi        :      0.18s CPU      0.19s WALL (    1846 calls)
     g_psi        :      0.02s CPU      0.02s WALL (    1286 calls)
     cdiaghg      :      0.47s CPU      0.48s WALL (    1734 calls)

     Called by h_psi:
     h_psi:pot    :      6.51s CPU      6.90s WALL (    1846 calls)
     h_psi:calbec :      0.29s CPU      0.31s WALL (    1846 calls)
     vloc_psi     :      6.01s CPU      6.37s WALL (    1846 calls)
     add_vuspsi   :      0.19s CPU      0.20s WALL (    1846 calls)

     General routines
     calbec       :      0.45s CPU      0.47s WALL (    2630 calls)
     fft          :      0.05s CPU      0.05s WALL (     126 calls)
     ffts         :      0.00s CPU      0.01s WALL (       9 calls)
     fftw         :      6.71s CPU      7.13s WALL (   32104 calls)

     Parallel routines
     fft_scatt_xy :      0.56s CPU      0.59s WALL (   32239 calls)
     fft_scatt_yz :      1.59s CPU      1.69s WALL (   32239 calls)

     PWSCF        :    12.89s CPU        13.59s WALL


   This run was terminated on:  12:34:10  26Mar2024            

=------------------------------------------------------------------------------=
   JOB DONE.
=------------------------------------------------------------------------------=
