
     Program PWSCF v.6.3MaX starts on 26Mar2024 at 11:22: 3 

     This program is part of the open-source Quantum ESPRESSO suite
     for quantum simulation of materials; please cite
         "P. Giannozzi et al., J. Phys.:Condens. Matter 21 395502 (2009);
         "P. Giannozzi et al., J. Phys.:Condens. Matter 29 465901 (2017);
          URL http://www.quantum-espresso.org", 
     in publications or presentations arising from this work. More details at
     http://www.quantum-espresso.org/quote

     Parallel version (MPI), running on     5 processors

     MPI processes distributed on     1 nodes
     R & G space division:  proc/nbgrp/npool/nimage =       5
     Waiting for input...
     Reading input from standard input

     Current dimensions of program PWSCF are:
     Max number of different atomic species (ntypx) = 10
     Max number of k-points (npk) =  40000
     Max angular momentum in pseudopotentials (lmaxx) =  3
               file Au.pbe-n-kjpaw_psl.1.0.0.UPF: wavefunction(s)  6S 5D renormalized

     Subspace diagonalization in iterative solution of the eigenvalue problem:
     a serial algorithm will be used


     Parallelization info
     --------------------
     sticks:   dense  smooth     PW     G-vecs:    dense   smooth      PW
     Min          39      39     14                  381      381      82
     Max          40      40     15                  384      384      83
     Sum         199     199     73                 1917     1917     411



     bravais-lattice index     =            2
     lattice parameter (alat)  =       7.7100  a.u.
     unit-cell volume          =     114.5785 (a.u.)^3
     number of atoms/cell      =            1
     number of atomic types    =            1
     number of electrons       =        11.00
     number of Kohn-Sham states=           10
     kinetic-energy cutoff     =      25.0000  Ry
     charge density cutoff     =     100.0000  Ry
     convergence threshold     =      1.0E-08
     mixing beta               =       0.7000
     number of iterations used =            8  plain     mixing
     Exchange-correlation      = SLA PW PBX PBC ( 1  4  3  4 0 0)

     celldm(1)=   7.710000  celldm(2)=   0.000000  celldm(3)=   0.000000
     celldm(4)=   0.000000  celldm(5)=   0.000000  celldm(6)=   0.000000

     crystal axes: (cart. coord. in units of alat)
               a(1) = (  -0.500000   0.000000   0.500000 )  
               a(2) = (   0.000000   0.500000   0.500000 )  
               a(3) = (  -0.500000   0.500000   0.000000 )  

     reciprocal axes: (cart. coord. in units 2 pi/alat)
               b(1) = ( -1.000000 -1.000000  1.000000 )  
               b(2) = (  1.000000  1.000000  1.000000 )  
               b(3) = ( -1.000000  1.000000 -1.000000 )  


     PseudoPot. # 1 for Au read from file:
     /home/lorenzo/pseudos/Au/Au.pbe-n-kjpaw_psl.1.0.0.UPF
     MD5 check sum: 4db85c736373c707a97ce4c36c2a9d23
     Pseudo is Projector augmented-wave + core cor, Zval = 11.0
     Generated using "atomic" code by A. Dal Corso v.6.3
     Shape of augmentation charge: PSQ
     Using radial grid of 1279 points,  6 beta functions with: 
                l(1) =   0
                l(2) =   0
                l(3) =   1
                l(4) =   1
                l(5) =   2
                l(6) =   2
     Q(r) pseudized with 0 coefficients 


     atomic species   valence    mass     pseudopotential
        Au            11.00   196.96600     Au( 1.00)

     48 Sym. Ops., with inversion, found



   Cartesian axes

     site n.     atom                  positions (alat units)
         1           Au  tau(   1) = (   0.0000000   0.0000000   0.0000000  )

     number of k points=    10  gaussian smearing, width (Ry)=  0.0100
                       cart. coord. in units 2pi/alat
        k(    1) = (   0.0000000   0.0000000   0.0000000), wk =   0.0160000
        k(    2) = (  -0.2000000   0.2000000  -0.2000000), wk =   0.1280000
        k(    3) = (  -0.4000000   0.4000000  -0.4000000), wk =   0.1280000
        k(    4) = (   0.0000000   0.4000000   0.0000000), wk =   0.0960000
        k(    5) = (  -0.2000000   0.6000000  -0.2000000), wk =   0.3840000
        k(    6) = (   0.6000000  -0.2000000   0.6000000), wk =   0.3840000
        k(    7) = (   0.4000000   0.0000000   0.4000000), wk =   0.1920000
        k(    8) = (   0.0000000   0.8000000   0.0000000), wk =   0.0960000
        k(    9) = (   0.8000000   0.0000000   0.8000000), wk =   0.1920000
        k(   10) = (   0.6000000  -0.2000000   1.0000000), wk =   0.3840000

     Dense  grid:     1917 G-vectors     FFT dimensions: (  18,  18,  18)

     Estimated max dynamical RAM per process >       2.50 MB

     Estimated total dynamical RAM >      12.48 MB

     Initial potential from superposition of free atoms

     starting charge   10.99989, renormalised to   11.00000
     Starting wfcs are    9 randomized atomic wfcs +    1 random wfcs
     Checking if some PAW data can be deallocated... 

     total cpu time spent up to now is        1.1 secs

     Self-consistent Calculation

     iteration #  1     ecut=    25.00 Ry     beta= 0.70
     Davidson diagonalization with overlap
     ethr =  1.00E-02,  avg # of iterations =  4.7

     Threshold (ethr) on eigenvalues was too large:
     Diagonalizing with lowered threshold

     Davidson diagonalization with overlap
     ethr =  4.40E-04,  avg # of iterations =  1.8

     total cpu time spent up to now is        1.4 secs

     total energy              =    -775.12176327 Ry
     Harris-Foulkes estimate   =    -775.15376519 Ry
     estimated scf accuracy    <       0.04893787 Ry

     iteration #  2     ecut=    25.00 Ry     beta= 0.70
     Davidson diagonalization with overlap
     ethr =  4.45E-04,  avg # of iterations =  2.3

     total cpu time spent up to now is        1.6 secs

     total energy              =    -775.13585603 Ry
     Harris-Foulkes estimate   =    -775.14418563 Ry
     estimated scf accuracy    <       0.01367638 Ry

     iteration #  3     ecut=    25.00 Ry     beta= 0.70
     Davidson diagonalization with overlap
     ethr =  1.24E-04,  avg # of iterations =  2.4

     total cpu time spent up to now is        1.7 secs

     total energy              =    -775.13879017 Ry
     Harris-Foulkes estimate   =    -775.13880073 Ry
     estimated scf accuracy    <       0.00020662 Ry

     iteration #  4     ecut=    25.00 Ry     beta= 0.70
     Davidson diagonalization with overlap
     ethr =  1.88E-06,  avg # of iterations =  3.7

     total cpu time spent up to now is        1.9 secs

     total energy              =    -775.13896643 Ry
     Harris-Foulkes estimate   =    -775.13902905 Ry
     estimated scf accuracy    <       0.00013864 Ry

     iteration #  5     ecut=    25.00 Ry     beta= 0.70
     Davidson diagonalization with overlap
     ethr =  1.26E-06,  avg # of iterations =  1.0

     total cpu time spent up to now is        2.1 secs

     total energy              =    -775.13897117 Ry
     Harris-Foulkes estimate   =    -775.13897941 Ry
     estimated scf accuracy    <       0.00001528 Ry

     iteration #  6     ecut=    25.00 Ry     beta= 0.70
     Davidson diagonalization with overlap
     ethr =  1.39E-07,  avg # of iterations =  2.1

     total cpu time spent up to now is        2.2 secs

     total energy              =    -775.13897643 Ry
     Harris-Foulkes estimate   =    -775.13897642 Ry
     estimated scf accuracy    <       0.00000008 Ry

     iteration #  7     ecut=    25.00 Ry     beta= 0.70
     Davidson diagonalization with overlap
     ethr =  7.10E-10,  avg # of iterations =  3.5

     total cpu time spent up to now is        2.4 secs

     total energy              =    -775.13897649 Ry
     Harris-Foulkes estimate   =    -775.13897651 Ry
     estimated scf accuracy    <       0.00000007 Ry

     iteration #  8     ecut=    25.00 Ry     beta= 0.70
     Davidson diagonalization with overlap
     ethr =  6.59E-10,  avg # of iterations =  1.0

     total cpu time spent up to now is        2.6 secs

     total energy              =    -775.13897648 Ry
     Harris-Foulkes estimate   =    -775.13897649 Ry
     estimated scf accuracy    <       0.00000001 Ry

     iteration #  9     ecut=    25.00 Ry     beta= 0.70
     Davidson diagonalization with overlap
     ethr =  1.02E-10,  avg # of iterations =  2.0

     total cpu time spent up to now is        2.8 secs

     End of self-consistent calculation

          k = 0.0000 0.0000 0.0000 (   259 PWs)   bands (ev):

     6.0774  11.3186  11.3186  11.3186  12.8409  12.8409  31.3856  35.2431
    35.2431  35.2431

          k =-0.2000 0.2000-0.2000 (   244 PWs)   bands (ev):

     7.3494  11.0760  11.6052  11.6052  12.8420  12.8420  29.3528  32.5253
    36.2798  36.2798

          k =-0.4000 0.4000-0.4000 (   241 PWs)   bands (ev):

     8.6509  11.3540  11.3540  13.3504  13.8178  13.8178  21.4331  31.0123
    34.2497  34.2497

          k = 0.0000 0.4000 0.0000 (   242 PWs)   bands (ev):

     7.7940  10.5162  12.0821  12.1358  12.1358  13.2228  32.5486  32.5486
    32.7574  33.2806

          k =-0.2000 0.6000-0.2000 (   245 PWs)   bands (ev):

     9.3090  10.5187  11.3606  12.2765  13.9728  14.5693  24.4470  30.6319
    30.7045  33.3208

          k = 0.6000-0.2000 0.6000 (   244 PWs)   bands (ev):

     9.5500  10.8075  11.9137  11.9957  13.7579  17.6014  20.0081  27.9291
    32.1874  32.5184

          k = 0.4000 0.0000 0.4000 (   242 PWs)   bands (ev):

     9.0548  10.6864  11.4133  12.2030  12.3650  14.4497  26.6925  28.7870
    33.8251  36.6359

          k = 0.0000 0.8000 0.0000 (   242 PWs)   bands (ev):

     9.0558   9.4172  13.8882  13.9593  13.9593  14.7620  24.9093  27.1636
    27.1636  33.1176

          k = 0.8000 0.0000 0.8000 (   236 PWs)   bands (ev):

     9.3663   9.8453  12.6464  13.3887  14.0935  19.7155  20.6650  23.9971
    27.9599  34.2825

          k = 0.6000-0.2000 1.0000 (   245 PWs)   bands (ev):

    10.1054  10.3575  11.0552  12.9663  13.9454  18.0374  23.1406  24.4186
    27.4963  37.4921

     the Fermi energy is    14.7925 ev

!    total energy              =    -775.13897649 Ry
     Harris-Foulkes estimate   =    -775.13897649 Ry
     estimated scf accuracy    <          3.4E-10 Ry

     total all-electron energy =    -38023.985068 Ry

     The total energy is the sum of the following terms:

     one-electron contribution =      13.82325234 Ry
     hartree contribution      =       7.65998900 Ry
     xc contribution           =     -32.13497319 Ry
     ewald contribution        =     -71.95438543 Ry
     one-center paw contrib.   =    -692.53252728 Ry
     smearing contrib. (-TS)   =      -0.00033192 Ry

     convergence has been achieved in   9 iterations

     Forces acting on atoms (cartesian axes, Ry/au):

     atom    1 type  1   force =     0.00000000    0.00000000    0.00000000

     Total force =     0.000000     Total SCF correction =     0.000000


     Computing stress (Cartesian axis) and pressure

          total   stress  (Ry/bohr**3)                   (kbar)     P=   91.81
   0.00062408  -0.00000000   0.00000000         91.81     -0.00      0.00
  -0.00000000   0.00062408   0.00000000         -0.00     91.81      0.00
   0.00000000   0.00000000   0.00062408          0.00      0.00     91.81


     Writing output data file Au.save/

     init_run     :      0.24s CPU      0.26s WALL (       1 calls)
     electrons    :      1.45s CPU      1.64s WALL (       1 calls)
     forces       :      0.01s CPU      0.01s WALL (       1 calls)
     stress       :      0.05s CPU      0.05s WALL (       1 calls)

     Called by init_run:
     wfcinit      :      0.01s CPU      0.02s WALL (       1 calls)
     potinit      :      0.10s CPU      0.12s WALL (       1 calls)
     hinit0       :      0.10s CPU      0.10s WALL (       1 calls)

     Called by electrons:
     c_bands      :      0.39s CPU      0.43s WALL (      10 calls)
     sum_band     :      0.09s CPU      0.10s WALL (      10 calls)
     v_of_rho     :      0.01s CPU      0.01s WALL (      10 calls)
     newd         :      0.03s CPU      0.03s WALL (      10 calls)
     PAW_pot      :      1.03s CPU      1.17s WALL (      10 calls)
     mix_rho      :      0.00s CPU      0.00s WALL (      10 calls)

     Called by c_bands:
     init_us_2    :      0.01s CPU      0.01s WALL (     230 calls)
     cegterg      :      0.38s CPU      0.41s WALL (     100 calls)

     Called by sum_band:
     sum_band:bec :      0.00s CPU      0.00s WALL (     100 calls)
     addusdens    :      0.02s CPU      0.02s WALL (      10 calls)

     Called by *egterg:
     h_psi        :      0.26s CPU      0.29s WALL (     355 calls)
     s_psi        :      0.01s CPU      0.01s WALL (     355 calls)
     g_psi        :      0.00s CPU      0.00s WALL (     245 calls)
     cdiaghg      :      0.07s CPU      0.08s WALL (     335 calls)

     Called by h_psi:
     h_psi:pot    :      0.26s CPU      0.28s WALL (     355 calls)
     h_psi:calbec :      0.01s CPU      0.01s WALL (     355 calls)
     vloc_psi     :      0.23s CPU      0.26s WALL (     355 calls)
     add_vuspsi   :      0.01s CPU      0.01s WALL (     355 calls)

     General routines
     calbec       :      0.02s CPU      0.03s WALL (     505 calls)
     fft          :      0.01s CPU      0.01s WALL (     137 calls)
     ffts         :      0.00s CPU      0.00s WALL (      10 calls)
     fftw         :      0.26s CPU      0.29s WALL (    6320 calls)

     Parallel routines
     fft_scatt_xy :      0.02s CPU      0.03s WALL (    6467 calls)
     fft_scatt_yz :      0.11s CPU      0.12s WALL (    6467 calls)

     PWSCF        :     2.65s CPU         2.90s WALL


   This run was terminated on:  11:22: 6  26Mar2024            

=------------------------------------------------------------------------------=
   JOB DONE.
=------------------------------------------------------------------------------=
