
     Program PWSCF v.6.3MaX starts on 26Mar2024 at 11: 5: 4 

     This program is part of the open-source Quantum ESPRESSO suite
     for quantum simulation of materials; please cite
         "P. Giannozzi et al., J. Phys.:Condens. Matter 21 395502 (2009);
         "P. Giannozzi et al., J. Phys.:Condens. Matter 29 465901 (2017);
          URL http://www.quantum-espresso.org", 
     in publications or presentations arising from this work. More details at
     http://www.quantum-espresso.org/quote

     Parallel version (MPI), running on     5 processors

     MPI processes distributed on     1 nodes
     R & G space division:  proc/nbgrp/npool/nimage =       5
     Waiting for input...
     Reading input from standard input

     Current dimensions of program PWSCF are:
     Max number of different atomic species (ntypx) = 10
     Max number of k-points (npk) =  40000
     Max angular momentum in pseudopotentials (lmaxx) =  3
               file Au.pbesol-n-kjpaw_psl.1.0.0.UPF: wavefunction(s)  6S 5D renormalized

     Subspace diagonalization in iterative solution of the eigenvalue problem:
     a serial algorithm will be used


     Parallelization info
     --------------------
     sticks:   dense  smooth     PW     G-vecs:    dense   smooth      PW
     Min         164     164     50                 3094     3094     535
     Max         165     165     51                 3095     3095     538
     Sum         823     823    253                15473    15473    2685



     bravais-lattice index     =            2
     lattice parameter (alat)  =       7.7100  a.u.
     unit-cell volume          =     114.5785 (a.u.)^3
     number of atoms/cell      =            1
     number of atomic types    =            1
     number of electrons       =        11.00
     number of Kohn-Sham states=           10
     kinetic-energy cutoff     =     100.0000  Ry
     charge density cutoff     =     400.0000  Ry
     convergence threshold     =      1.0E-08
     mixing beta               =       0.7000
     number of iterations used =            8  plain     mixing
     Exchange-correlation      = SLA PW PSX PSC ( 1  4 10  8 0 0)

     celldm(1)=   7.710000  celldm(2)=   0.000000  celldm(3)=   0.000000
     celldm(4)=   0.000000  celldm(5)=   0.000000  celldm(6)=   0.000000

     crystal axes: (cart. coord. in units of alat)
               a(1) = (  -0.500000   0.000000   0.500000 )  
               a(2) = (   0.000000   0.500000   0.500000 )  
               a(3) = (  -0.500000   0.500000   0.000000 )  

     reciprocal axes: (cart. coord. in units 2 pi/alat)
               b(1) = ( -1.000000 -1.000000  1.000000 )  
               b(2) = (  1.000000  1.000000  1.000000 )  
               b(3) = ( -1.000000  1.000000 -1.000000 )  


     PseudoPot. # 1 for Au read from file:
     /home/lorenzo/pseudos/Au/Au.pbesol-n-kjpaw_psl.1.0.0.UPF
     MD5 check sum: abc371be705c47a6b6a6b4088b452d3e
     Pseudo is Projector augmented-wave + core cor, Zval = 11.0
     Generated using "atomic" code by A. Dal Corso v.6.3
     Shape of augmentation charge: PSQ
     Using radial grid of 1279 points,  6 beta functions with: 
                l(1) =   0
                l(2) =   0
                l(3) =   1
                l(4) =   1
                l(5) =   2
                l(6) =   2
     Q(r) pseudized with 0 coefficients 


     atomic species   valence    mass     pseudopotential
        Au            11.00   196.96600     Au( 1.00)

     48 Sym. Ops., with inversion, found



   Cartesian axes

     site n.     atom                  positions (alat units)
         1           Au  tau(   1) = (   0.0000000   0.0000000   0.0000000  )

     number of k points=    47  gaussian smearing, width (Ry)=  0.0100
                       cart. coord. in units 2pi/alat
        k(    1) = (   0.0000000   0.0000000   0.0000000), wk =   0.0020000
        k(    2) = (  -0.1000000   0.1000000  -0.1000000), wk =   0.0160000
        k(    3) = (  -0.2000000   0.2000000  -0.2000000), wk =   0.0160000
        k(    4) = (  -0.3000000   0.3000000  -0.3000000), wk =   0.0160000
        k(    5) = (  -0.4000000   0.4000000  -0.4000000), wk =   0.0160000
        k(    6) = (   0.5000000  -0.5000000   0.5000000), wk =   0.0080000
        k(    7) = (   0.0000000   0.2000000   0.0000000), wk =   0.0120000
        k(    8) = (  -0.1000000   0.3000000  -0.1000000), wk =   0.0480000
        k(    9) = (  -0.2000000   0.4000000  -0.2000000), wk =   0.0480000
        k(   10) = (  -0.3000000   0.5000000  -0.3000000), wk =   0.0480000
        k(   11) = (   0.6000000  -0.4000000   0.6000000), wk =   0.0480000
        k(   12) = (   0.5000000  -0.3000000   0.5000000), wk =   0.0480000
        k(   13) = (   0.4000000  -0.2000000   0.4000000), wk =   0.0480000
        k(   14) = (   0.3000000  -0.1000000   0.3000000), wk =   0.0480000
        k(   15) = (   0.2000000   0.0000000   0.2000000), wk =   0.0240000
        k(   16) = (   0.0000000   0.4000000   0.0000000), wk =   0.0120000
        k(   17) = (  -0.1000000   0.5000000  -0.1000000), wk =   0.0480000
        k(   18) = (  -0.2000000   0.6000000  -0.2000000), wk =   0.0480000
        k(   19) = (   0.7000000  -0.3000000   0.7000000), wk =   0.0480000
        k(   20) = (   0.6000000  -0.2000000   0.6000000), wk =   0.0480000
        k(   21) = (   0.5000000  -0.1000000   0.5000000), wk =   0.0480000
        k(   22) = (   0.4000000   0.0000000   0.4000000), wk =   0.0240000
        k(   23) = (   0.0000000   0.6000000   0.0000000), wk =   0.0120000
        k(   24) = (  -0.1000000   0.7000000  -0.1000000), wk =   0.0480000
        k(   25) = (   0.8000000  -0.2000000   0.8000000), wk =   0.0480000
        k(   26) = (   0.7000000  -0.1000000   0.7000000), wk =   0.0480000
        k(   27) = (   0.6000000  -0.0000000   0.6000000), wk =   0.0240000
        k(   28) = (   0.0000000   0.8000000   0.0000000), wk =   0.0120000
        k(   29) = (   0.9000000  -0.1000000   0.9000000), wk =   0.0480000
        k(   30) = (   0.8000000   0.0000000   0.8000000), wk =   0.0240000
        k(   31) = (   0.0000000  -1.0000000   0.0000000), wk =   0.0060000
        k(   32) = (  -0.2000000   0.4000000   0.0000000), wk =   0.0480000
        k(   33) = (  -0.3000000   0.5000000  -0.1000000), wk =   0.0960000
        k(   34) = (   0.6000000  -0.4000000   0.8000000), wk =   0.0960000
        k(   35) = (   0.5000000  -0.3000000   0.7000000), wk =   0.0480000
        k(   36) = (  -0.2000000   0.6000000   0.0000000), wk =   0.0480000
        k(   37) = (   0.7000000  -0.3000000   0.9000000), wk =   0.0960000
        k(   38) = (   0.6000000  -0.2000000   0.8000000), wk =   0.0960000
        k(   39) = (   0.5000000  -0.1000000   0.7000000), wk =   0.0960000
        k(   40) = (   0.4000000   0.0000000   0.6000000), wk =   0.0480000
        k(   41) = (   0.8000000  -0.2000000   1.0000000), wk =   0.0480000
        k(   42) = (   0.7000000  -0.1000000   0.9000000), wk =   0.0960000
        k(   43) = (   0.6000000   0.0000000   0.8000000), wk =   0.0480000
        k(   44) = (  -0.2000000  -1.0000000   0.0000000), wk =   0.0240000
        k(   45) = (   0.6000000  -0.2000000   1.0000000), wk =   0.0480000
        k(   46) = (   0.5000000  -0.1000000   0.9000000), wk =   0.0480000
        k(   47) = (  -0.4000000  -1.0000000   0.0000000), wk =   0.0240000

     Dense  grid:    15473 G-vectors     FFT dimensions: (  36,  36,  36)

     Estimated max dynamical RAM per process >      16.40 MB

     Estimated total dynamical RAM >      82.01 MB

     Initial potential from superposition of free atoms

     starting charge   10.99990, renormalised to   11.00000
     Starting wfcs are    9 randomized atomic wfcs +    1 random wfcs
     Checking if some PAW data can be deallocated... 

     total cpu time spent up to now is        1.7 secs

     Self-consistent Calculation

     iteration #  1     ecut=   100.00 Ry     beta= 0.70
     Davidson diagonalization with overlap
     ethr =  1.00E-02,  avg # of iterations =  5.3

     Threshold (ethr) on eigenvalues was too large:
     Diagonalizing with lowered threshold

     Davidson diagonalization with overlap
     ethr =  5.66E-04,  avg # of iterations =  1.6

     total cpu time spent up to now is        5.3 secs

     total energy              =    -764.65700007 Ry
     Harris-Foulkes estimate   =    -764.70090761 Ry
     estimated scf accuracy    <       0.06310586 Ry

     iteration #  2     ecut=   100.00 Ry     beta= 0.70
     Davidson diagonalization with overlap
     ethr =  5.74E-04,  avg # of iterations =  2.8

     total cpu time spent up to now is        7.3 secs

     total energy              =    -764.67616722 Ry
     Harris-Foulkes estimate   =    -764.68810664 Ry
     estimated scf accuracy    <       0.01991127 Ry

     iteration #  3     ecut=   100.00 Ry     beta= 0.70
     Davidson diagonalization with overlap
     ethr =  1.81E-04,  avg # of iterations =  2.1

     negative rho (up, down):  1.857E-03 0.000E+00

     total cpu time spent up to now is        8.9 secs

     total energy              =    -764.68050483 Ry
     Harris-Foulkes estimate   =    -764.68054944 Ry
     estimated scf accuracy    <       0.00038879 Ry

     iteration #  4     ecut=   100.00 Ry     beta= 0.70
     Davidson diagonalization with overlap
     ethr =  3.53E-06,  avg # of iterations =  3.5

     negative rho (up, down):  1.852E-03 0.000E+00

     total cpu time spent up to now is       10.5 secs

     total energy              =    -764.68094322 Ry
     Harris-Foulkes estimate   =    -764.68093836 Ry
     estimated scf accuracy    <       0.00032944 Ry

     iteration #  5     ecut=   100.00 Ry     beta= 0.70
     Davidson diagonalization with overlap
     ethr =  2.99E-06,  avg # of iterations =  1.0

     negative rho (up, down):  4.961E-03 0.000E+00

     total cpu time spent up to now is       11.9 secs

     total energy              =    -764.68073153 Ry
     Harris-Foulkes estimate   =    -764.68094347 Ry
     estimated scf accuracy    <       0.00034077 Ry

     iteration #  6     ecut=   100.00 Ry     beta= 0.70
     Davidson diagonalization with overlap
     ethr =  2.99E-06,  avg # of iterations =  2.0

     negative rho (up, down):  5.425E-03 0.000E+00

     total cpu time spent up to now is       13.3 secs

     total energy              =    -764.68083031 Ry
     Harris-Foulkes estimate   =    -764.68083332 Ry
     estimated scf accuracy    <       0.00003664 Ry

     iteration #  7     ecut=   100.00 Ry     beta= 0.70
     Davidson diagonalization with overlap
     ethr =  3.33E-07,  avg # of iterations =  1.7

     negative rho (up, down):  4.170E-03 0.000E+00

     total cpu time spent up to now is       14.3 secs

     total energy              =    -764.68081841 Ry
     Harris-Foulkes estimate   =    -764.68083263 Ry
     estimated scf accuracy    <       0.00002879 Ry

     iteration #  8     ecut=   100.00 Ry     beta= 0.70
     Davidson diagonalization with overlap
     ethr =  2.62E-07,  avg # of iterations =  1.0

     negative rho (up, down):  4.778E-03 0.000E+00

     total cpu time spent up to now is       15.4 secs

     total energy              =    -764.68082166 Ry
     Harris-Foulkes estimate   =    -764.68082191 Ry
     estimated scf accuracy    <       0.00000266 Ry

     iteration #  9     ecut=   100.00 Ry     beta= 0.70
     Davidson diagonalization with overlap
     ethr =  2.42E-08,  avg # of iterations =  3.0

     negative rho (up, down):  4.710E-03 0.000E+00

     total cpu time spent up to now is       16.7 secs

     total energy              =    -764.68082258 Ry
     Harris-Foulkes estimate   =    -764.68082262 Ry
     estimated scf accuracy    <       0.00000010 Ry

     iteration # 10     ecut=   100.00 Ry     beta= 0.70
     Davidson diagonalization with overlap
     ethr =  9.17E-10,  avg # of iterations =  1.6

     negative rho (up, down):  4.855E-03 0.000E+00

     total cpu time spent up to now is       17.7 secs

     total energy              =    -764.68082259 Ry
     Harris-Foulkes estimate   =    -764.68082259 Ry
     estimated scf accuracy    <       0.00000007 Ry

     iteration # 11     ecut=   100.00 Ry     beta= 0.70
     Davidson diagonalization with overlap
     ethr =  6.55E-10,  avg # of iterations =  2.0

     negative rho (up, down):  4.858E-03 0.000E+00

     total cpu time spent up to now is       18.8 secs

     total energy              =    -764.68082259 Ry
     Harris-Foulkes estimate   =    -764.68082260 Ry
     estimated scf accuracy    <       0.00000002 Ry

     iteration # 12     ecut=   100.00 Ry     beta= 0.70
     Davidson diagonalization with overlap
     ethr =  1.79E-10,  avg # of iterations =  1.0

     negative rho (up, down):  4.856E-03 0.000E+00

     total cpu time spent up to now is       19.7 secs

     total energy              =    -764.68082259 Ry
     Harris-Foulkes estimate   =    -764.68082260 Ry
     estimated scf accuracy    <       0.00000001 Ry

     iteration # 13     ecut=   100.00 Ry     beta= 0.70
     Davidson diagonalization with overlap
     ethr =  9.49E-11,  avg # of iterations =  1.0

     negative rho (up, down):  4.881E-03 0.000E+00

     total cpu time spent up to now is       20.7 secs

     End of self-consistent calculation

          k = 0.0000 0.0000 0.0000 (  1917 PWs)   bands (ev):

     5.8127  11.0804  11.0804  11.0804  12.6214  12.6214  31.1316  34.9848
    34.9848  34.9848

          k =-0.1000 0.1000-0.1000 (  1940 PWs)   bands (ev):

     6.1578  10.9738  11.1951  11.1951  12.5756  12.5756  31.4220  32.8876
    35.3150  35.3150

          k =-0.2000 0.2000-0.2000 (  1937 PWs)   bands (ev):

     7.0830  10.8341  11.3701  11.3701  12.6195  12.6195  28.9847  32.2130
    35.9217  35.9217

          k =-0.3000 0.3000-0.3000 (  1922 PWs)   bands (ev):

     8.0579  11.2975  11.2975  11.3144  13.0472  13.0472  24.9924  31.6226
    35.3505  35.3505

          k =-0.4000 0.4000-0.4000 (  1937 PWs)   bands (ev):

     8.3871  11.1219  11.1219  13.0895  13.5913  13.5913  21.1287  30.7487
    33.9426  33.9426

          k = 0.5000-0.5000 0.5000 (  1916 PWs)   bands (ev):

     8.4076  11.0450  11.0450  13.8319  13.8319  14.7346  18.8402  30.4115
    33.3323  33.3323

          k = 0.0000 0.2000 0.0000 (  1933 PWs)   bands (ev):

     6.2745  10.8451  11.2920  11.2920  12.3716  12.7251  31.6296  33.6257
    34.3864  34.3864

          k =-0.1000 0.3000-0.1000 (  1945 PWs)   bands (ev):

     7.0218  10.6173  11.4876  11.5217  12.2503  12.8507  30.4642  32.3282
    33.7970  35.4037

          k =-0.2000 0.4000-0.2000 (  1942 PWs)   bands (ev):

     8.0687  10.6590  11.3107  11.5594  12.8176  13.2101  26.5149  32.0730
    33.1325  35.3087

          k =-0.3000 0.5000-0.3000 (  1935 PWs)   bands (ev):

     8.6043  11.0263  11.3997  11.5918  13.6792  14.0150  22.4873  31.1627
    32.4783  33.6261

          k = 0.6000-0.4000 0.6000 (  1942 PWs)   bands (ev):

     8.6601  10.8868  11.2609  12.6153  13.8480  15.8057  19.1993  30.5407
    32.2423  32.4913

          k = 0.5000-0.3000 0.5000 (  1933 PWs)   bands (ev):

     8.6689  10.9395  11.2585  12.5289  13.5289  15.3001  20.1607  30.4098
    31.8875  33.6406

          k = 0.4000-0.2000 0.4000 (  1931 PWs)   bands (ev):

     8.5322  11.0802  11.3930  11.4062  12.8846  14.0330  23.8317  30.7442
    32.6830  35.8946

          k = 0.3000-0.1000 0.3000 (  1934 PWs)   bands (ev):

     7.7361  10.6510  11.3951  11.5656  12.3136  13.2272  27.8308  31.2836
    34.2030  36.2511

          k = 0.2000 0.0000 0.2000 (  1945 PWs)   bands (ev):

     6.7077  10.7807  11.3681  11.3797  12.3346  12.7645  31.2608  31.6015
    34.2456  36.8074

          k = 0.0000 0.4000 0.0000 (  1956 PWs)   bands (ev):

     7.5285  10.2724  11.8563  11.9011  11.9011  13.0041  32.1551  32.1551
    32.4414  32.8488

          k =-0.1000 0.5000-0.1000 (  1944 PWs)   bands (ev):

     8.4058  10.0335  11.4407  12.1409  12.7728  13.3013  28.3183  30.9491
    32.1812  33.3539

          k =-0.2000 0.6000-0.2000 (  1936 PWs)   bands (ev):

     9.0510  10.2738  11.1218  12.0476  13.7483  14.3273  24.1354  30.3018
    30.3582  32.9025

          k = 0.7000-0.3000 0.7000 (  1938 PWs)   bands (ev):

     9.1856  10.5413  11.4232  11.8681  13.8922  16.6144  20.3908  28.7243
    30.5371  32.3825

          k = 0.6000-0.2000 0.6000 (  1941 PWs)   bands (ev):

     9.2940  10.5714  11.6715  11.7679  13.5308  17.3352  19.7225  27.5820
    31.8711  32.1792

          k = 0.5000-0.1000 0.5000 (  1940 PWs)   bands (ev):

     9.3701  10.7143  11.0788  11.8128  12.8336  15.4848  23.1624  27.2844
    32.5538  34.1435

          k = 0.4000 0.0000 0.4000 (  1939 PWs)   bands (ev):

     8.7896  10.4418  11.1800  11.9795  12.1313  14.2162  26.3923  28.3204
    33.5376  36.8507

          k = 0.0000 0.6000 0.0000 (  1956 PWs)   bands (ev):

     8.7515   9.6348  12.1409  12.8036  12.8036  13.3652  29.2286  29.2286
    29.7913  32.3728

          k =-0.1000 0.7000-0.1000 (  1945 PWs)   bands (ev):

     9.0294   9.4954  12.1760  12.9162  13.7602  14.3419  25.6332  27.9784
    28.2565  33.2667

          k = 0.8000-0.2000 0.8000 (  1934 PWs)   bands (ev):

     9.2035   9.7844  11.8825  12.7253  13.9546  16.8810  21.9919  26.1439
    28.3541  33.3773

          k = 0.7000-0.1000 0.7000 (  1919 PWs)   bands (ev):

     9.4563  10.2444  11.4821  12.5048  13.6298  18.9719  20.1221  24.4802
    29.6220  33.0975

          k = 0.6000-0.0000 0.6000 (  1933 PWs)   bands (ev):

     9.7746  10.6405  10.8796  12.2487  13.0876  17.0577  23.1940  23.6871
    31.7487  32.8080

          k = 0.0000 0.8000 0.0000 (  1944 PWs)   bands (ev):

     8.8076   9.1641  13.6719  13.7270  13.7270  14.5000  24.6216  26.8722
    26.8722  32.7603

          k = 0.9000-0.1000 0.9000 (  1940 PWs)   bands (ev):

     8.8565   9.1750  13.3024  13.5193  14.0422  16.8650  22.2498  25.3566
    26.6223  33.6230

          k = 0.8000 0.0000 0.8000 (  1930 PWs)   bands (ev):

     9.1185   9.5972  12.4066  13.1690  13.8609  19.4233  20.3910  23.6670
    27.6641  33.7414

          k = 0.0000-1.0000 0.0000 (  1964 PWs)   bands (ev):

     8.6731   8.9933  13.7929  14.1533  14.1533  16.7424  21.5597  25.9422
    25.9422  33.0237

          k =-0.2000 0.4000 0.0000 (  1937 PWs)   bands (ev):

     7.8831  10.3583  11.3968  11.9070  12.2242  13.2672  29.0319  30.4863
    34.1021  34.4697

          k =-0.3000 0.5000-0.1000 (  1935 PWs)   bands (ev):

     8.8500  10.4369  11.0352  11.9286  12.7984  14.1605  25.4386  29.4185
    32.2492  35.1400

          k = 0.6000-0.4000 0.8000 (  1931 PWs)   bands (ev):

     9.1191  10.7190  11.2987  11.7727  13.5016  15.6135  21.5922  29.1635
    30.7985  33.9020

          k = 0.5000-0.3000 0.7000 (  1936 PWs)   bands (ev):

     9.1148  10.5977  11.6329  11.9036  13.7270  17.5200  18.8025  29.4841
    29.8838  33.2817

          k =-0.2000 0.6000 0.0000 (  1930 PWs)   bands (ev):

     9.0898   9.8168  11.2835  12.7959  12.8871  14.1555  26.7003  28.1698
    30.3173  35.2355

          k = 0.7000-0.3000 0.9000 (  1930 PWs)   bands (ev):

     9.4562  10.0521  11.0694  12.6056  13.5826  15.8527  23.2554  27.1977
    28.6993  34.7308

          k = 0.6000-0.2000 0.8000 (  1934 PWs)   bands (ev):

     9.6003  10.2760  11.1818  12.3183  13.7463  18.3558  19.9568  26.4553
    28.3828  34.4219

          k = 0.5000-0.1000 0.7000 (  1932 PWs)   bands (ev):

     9.8369  10.3232  10.9681  12.2572  13.4236  17.3631  21.4962  25.5388
    29.5231  34.7266

          k = 0.4000 0.0000 0.6000 (  1936 PWs)   bands (ev):

     9.7926  10.3065  10.6210  12.3824  12.8270  15.5635  24.3934  26.0291
    30.9559  35.7773

          k = 0.8000-0.2000 1.0000 (  1945 PWs)   bands (ev):

     9.1299   9.4047  12.2328  13.4368  13.7223  16.0728  23.8016  26.0582
    26.8146  34.7623

          k = 0.7000-0.1000 0.9000 (  1932 PWs)   bands (ev):

     9.3352   9.7211  11.8444  12.9977  13.9641  18.6161  21.3856  24.3552
    26.6789  35.2005

          k = 0.6000 0.0000 0.8000 (  1915 PWs)   bands (ev):

     9.6645  10.2197  11.2061  12.5825  13.7243  19.0717  21.6795  22.9140
    27.9245  35.0415

          k =-0.2000-1.0000 0.0000 (  1944 PWs)   bands (ev):

     8.9766   9.2536  12.9147  13.4281  14.1540  18.2939  21.1610  25.1908
    25.6107  34.9111

          k = 0.6000-0.2000 1.0000 (  1928 PWs)   bands (ev):

     9.8648  10.1101  10.8097  12.7442  13.7132  17.7673  22.8638  24.0876
    27.1530  37.1935

          k = 0.5000-0.1000 0.9000 (  1924 PWs)   bands (ev):

     9.9016  10.3475  10.7406  12.4886  13.9396  19.6073  21.0441  23.8069
    26.3204  37.1168

          k =-0.4000-1.0000 0.0000 (  1922 PWs)   bands (ev):

     9.6339  10.0268  11.2822  12.6458  14.1551  20.6203  20.7998  23.2728
    25.2834  37.8423

     the Fermi energy is    15.7424 ev

!    total energy              =    -764.68082259 Ry
     Harris-Foulkes estimate   =    -764.68082259 Ry
     estimated scf accuracy    <          6.9E-09 Ry

     total all-electron energy =    -38013.515285 Ry

     The total energy is the sum of the following terms:

     one-electron contribution =      13.86516884 Ry
     hartree contribution      =       7.57790533 Ry
     xc contribution           =     -31.82661068 Ry
     ewald contribution        =     -71.95438534 Ry
     one-center paw contrib.   =    -682.34251279 Ry
     smearing contrib. (-TS)   =      -0.00038794 Ry

     convergence has been achieved in  13 iterations

     negative rho (up, down):  4.881E-03 0.000E+00

     Forces acting on atoms (cartesian axes, Ry/au):

     atom    1 type  1   force =     0.00000000    0.00000000    0.00000000

     Total force =     0.000000     Total SCF correction =     0.000000


     Computing stress (Cartesian axis) and pressure


     negative rho (up, down):  4.881E-03 0.000E+00
          total   stress  (Ry/bohr**3)                   (kbar)     P=   16.38
   0.00011133   0.00000000   0.00000000         16.38      0.00      0.00
   0.00000000   0.00011133  -0.00000000          0.00     16.38     -0.00
   0.00000000  -0.00000000   0.00011133          0.00     -0.00     16.38


     Writing output data file Au.save/

     init_run     :      0.73s CPU      0.77s WALL (       1 calls)
     electrons    :     17.98s CPU     18.93s WALL (       1 calls)
     forces       :      0.09s CPU      0.09s WALL (       1 calls)
     stress       :      0.35s CPU      0.35s WALL (       1 calls)

     Called by init_run:
     wfcinit      :      0.35s CPU      0.37s WALL (       1 calls)
     potinit      :      0.12s CPU      0.14s WALL (       1 calls)
     hinit0       :      0.22s CPU      0.22s WALL (       1 calls)

     Called by electrons:
     c_bands      :     13.32s CPU     14.05s WALL (      14 calls)
     sum_band     :      2.59s CPU      2.74s WALL (      14 calls)
     v_of_rho     :      0.16s CPU      0.17s WALL (      14 calls)
     newd         :      0.26s CPU      0.26s WALL (      14 calls)
     PAW_pot      :      1.74s CPU      1.81s WALL (      14 calls)
     mix_rho      :      0.03s CPU      0.03s WALL (      14 calls)

     Called by c_bands:
     init_us_2    :      0.36s CPU      0.37s WALL (    1457 calls)
     cegterg      :     12.72s CPU     13.44s WALL (     658 calls)

     Called by sum_band:
     sum_band:bec :      0.01s CPU      0.01s WALL (     658 calls)
     addusdens    :      0.24s CPU      0.25s WALL (      14 calls)

     Called by *egterg:
     h_psi        :     10.36s CPU     11.02s WALL (    2097 calls)
     s_psi        :      0.26s CPU      0.27s WALL (    2097 calls)
     g_psi        :      0.02s CPU      0.03s WALL (    1392 calls)
     cdiaghg      :      0.57s CPU      0.59s WALL (    2003 calls)

     Called by h_psi:
     h_psi:pot    :     10.31s CPU     10.97s WALL (    2097 calls)
     h_psi:calbec :      0.60s CPU      0.63s WALL (    2097 calls)
     vloc_psi     :      9.42s CPU     10.03s WALL (    2097 calls)
     add_vuspsi   :      0.27s CPU      0.28s WALL (    2097 calls)

     General routines
     calbec       :      0.85s CPU      0.89s WALL (    2990 calls)
     fft          :      0.10s CPU      0.10s WALL (     181 calls)
     ffts         :      0.01s CPU      0.01s WALL (      14 calls)
     fftw         :     10.62s CPU     11.31s WALL (   39080 calls)

     Parallel routines
     fft_scatt_xy :      0.72s CPU      0.77s WALL (   39275 calls)
     fft_scatt_yz :      4.27s CPU      4.51s WALL (   39275 calls)

     PWSCF        :    20.18s CPU        21.33s WALL


   This run was terminated on:  11: 5:25  26Mar2024            

=------------------------------------------------------------------------------=
   JOB DONE.
=------------------------------------------------------------------------------=
