
     Program PWSCF v.6.3MaX starts on 26Mar2024 at 12:30: 4 

     This program is part of the open-source Quantum ESPRESSO suite
     for quantum simulation of materials; please cite
         "P. Giannozzi et al., J. Phys.:Condens. Matter 21 395502 (2009);
         "P. Giannozzi et al., J. Phys.:Condens. Matter 29 465901 (2017);
          URL http://www.quantum-espresso.org", 
     in publications or presentations arising from this work. More details at
     http://www.quantum-espresso.org/quote

     Parallel version (MPI), running on     5 processors

     MPI processes distributed on     1 nodes
     R & G space division:  proc/nbgrp/npool/nimage =       5
     Waiting for input...
     Reading input from standard input

     Current dimensions of program PWSCF are:
     Max number of different atomic species (ntypx) = 10
     Max number of k-points (npk) =  40000
     Max angular momentum in pseudopotentials (lmaxx) =  3
               file Au.pbe-n-kjpaw_psl.1.0.0.UPF: wavefunction(s)  6S 5D renormalized

     Subspace diagonalization in iterative solution of the eigenvalue problem:
     a serial algorithm will be used


     Parallelization info
     --------------------
     sticks:   dense  smooth     PW     G-vecs:    dense   smooth      PW
     Min         137     137     42                 2407     2407     416
     Max         137     137     43                 2409     2409     418
     Sum         685     685    211                12039    12039    2085



     bravais-lattice index     =            2
     lattice parameter (alat)  =       7.7100  a.u.
     unit-cell volume          =     114.5785 (a.u.)^3
     number of atoms/cell      =            1
     number of atomic types    =            1
     number of electrons       =        11.00
     number of Kohn-Sham states=           10
     kinetic-energy cutoff     =      85.0000  Ry
     charge density cutoff     =     340.0000  Ry
     convergence threshold     =      1.0E-08
     mixing beta               =       0.7000
     number of iterations used =            8  plain     mixing
     Exchange-correlation      = SLA PW PBX PBC ( 1  4  3  4 0 0)

     celldm(1)=   7.710000  celldm(2)=   0.000000  celldm(3)=   0.000000
     celldm(4)=   0.000000  celldm(5)=   0.000000  celldm(6)=   0.000000

     crystal axes: (cart. coord. in units of alat)
               a(1) = (  -0.500000   0.000000   0.500000 )  
               a(2) = (   0.000000   0.500000   0.500000 )  
               a(3) = (  -0.500000   0.500000   0.000000 )  

     reciprocal axes: (cart. coord. in units 2 pi/alat)
               b(1) = ( -1.000000 -1.000000  1.000000 )  
               b(2) = (  1.000000  1.000000  1.000000 )  
               b(3) = ( -1.000000  1.000000 -1.000000 )  


     PseudoPot. # 1 for Au read from file:
     /home/lorenzo/pseudos/Au/Au.pbe-n-kjpaw_psl.1.0.0.UPF
     MD5 check sum: 4db85c736373c707a97ce4c36c2a9d23
     Pseudo is Projector augmented-wave + core cor, Zval = 11.0
     Generated using "atomic" code by A. Dal Corso v.6.3
     Shape of augmentation charge: PSQ
     Using radial grid of 1279 points,  6 beta functions with: 
                l(1) =   0
                l(2) =   0
                l(3) =   1
                l(4) =   1
                l(5) =   2
                l(6) =   2
     Q(r) pseudized with 0 coefficients 


     atomic species   valence    mass     pseudopotential
        Au            11.00   196.96600     Au( 1.00)

     48 Sym. Ops., with inversion, found



   Cartesian axes

     site n.     atom                  positions (alat units)
         1           Au  tau(   1) = (   0.0000000   0.0000000   0.0000000  )

     number of k points=    20  gaussian smearing, width (Ry)=  0.0100
                       cart. coord. in units 2pi/alat
        k(    1) = (   0.0000000   0.0000000   0.0000000), wk =   0.0058309
        k(    2) = (  -0.1428571   0.1428571  -0.1428571), wk =   0.0466472
        k(    3) = (  -0.2857143   0.2857143  -0.2857143), wk =   0.0466472
        k(    4) = (  -0.4285714   0.4285714  -0.4285714), wk =   0.0466472
        k(    5) = (   0.0000000   0.2857143   0.0000000), wk =   0.0349854
        k(    6) = (  -0.1428571   0.4285714  -0.1428571), wk =   0.1399417
        k(    7) = (  -0.2857143   0.5714286  -0.2857143), wk =   0.1399417
        k(    8) = (   0.5714286  -0.2857143   0.5714286), wk =   0.1399417
        k(    9) = (   0.4285714  -0.1428571   0.4285714), wk =   0.1399417
        k(   10) = (   0.2857143  -0.0000000   0.2857143), wk =   0.0699708
        k(   11) = (   0.0000000   0.5714286   0.0000000), wk =   0.0349854
        k(   12) = (  -0.1428571   0.7142857  -0.1428571), wk =   0.1399417
        k(   13) = (   0.7142857  -0.1428571   0.7142857), wk =   0.1399417
        k(   14) = (   0.5714286   0.0000000   0.5714286), wk =   0.0699708
        k(   15) = (   0.0000000   0.8571429   0.0000000), wk =   0.0349854
        k(   16) = (   0.8571429  -0.0000000   0.8571429), wk =   0.0699708
        k(   17) = (  -0.2857143   0.5714286   0.0000000), wk =   0.1399417
        k(   18) = (   0.5714286  -0.2857143   0.8571429), wk =   0.2798834
        k(   19) = (   0.7142857  -0.1428571   1.0000000), wk =   0.1399417
        k(   20) = (   0.5714286   0.0000000   0.8571429), wk =   0.1399417

     Dense  grid:    12039 G-vectors     FFT dimensions: (  32,  32,  32)

     Estimated max dynamical RAM per process >      11.75 MB

     Estimated total dynamical RAM >      58.76 MB

     Initial potential from superposition of free atoms

     starting charge   10.99989, renormalised to   11.00000
     Starting wfcs are    9 randomized atomic wfcs +    1 random wfcs
     Checking if some PAW data can be deallocated... 

     total cpu time spent up to now is        1.3 secs

     Self-consistent Calculation

     iteration #  1     ecut=    85.00 Ry     beta= 0.70
     Davidson diagonalization with overlap
     ethr =  1.00E-02,  avg # of iterations =  5.5

     Threshold (ethr) on eigenvalues was too large:
     Diagonalizing with lowered threshold

     Davidson diagonalization with overlap
     ethr =  4.68E-04,  avg # of iterations =  1.9

     total cpu time spent up to now is        2.1 secs

     total energy              =    -775.12146838 Ry
     Harris-Foulkes estimate   =    -775.15671552 Ry
     estimated scf accuracy    <       0.05200787 Ry

     iteration #  2     ecut=    85.00 Ry     beta= 0.70
     Davidson diagonalization with overlap
     ethr =  4.73E-04,  avg # of iterations =  2.8

     total cpu time spent up to now is        2.5 secs

     total energy              =    -775.13739956 Ry
     Harris-Foulkes estimate   =    -775.14663145 Ry
     estimated scf accuracy    <       0.01518722 Ry

     iteration #  3     ecut=    85.00 Ry     beta= 0.70
     Davidson diagonalization with overlap
     ethr =  1.38E-04,  avg # of iterations =  1.9

     total cpu time spent up to now is        3.0 secs

     total energy              =    -775.14070395 Ry
     Harris-Foulkes estimate   =    -775.14073860 Ry
     estimated scf accuracy    <       0.00024593 Ry

     iteration #  4     ecut=    85.00 Ry     beta= 0.70
     Davidson diagonalization with overlap
     ethr =  2.24E-06,  avg # of iterations =  3.5

     total cpu time spent up to now is        3.6 secs

     total energy              =    -775.14097406 Ry
     Harris-Foulkes estimate   =    -775.14110002 Ry
     estimated scf accuracy    <       0.00027442 Ry

     iteration #  5     ecut=    85.00 Ry     beta= 0.70
     Davidson diagonalization with overlap
     ethr =  2.24E-06,  avg # of iterations =  1.4

     total cpu time spent up to now is        4.0 secs

     total energy              =    -775.14097750 Ry
     Harris-Foulkes estimate   =    -775.14099766 Ry
     estimated scf accuracy    <       0.00003212 Ry

     iteration #  6     ecut=    85.00 Ry     beta= 0.70
     Davidson diagonalization with overlap
     ethr =  2.92E-07,  avg # of iterations =  2.4

     total cpu time spent up to now is        4.5 secs

     total energy              =    -775.14099267 Ry
     Harris-Foulkes estimate   =    -775.14099297 Ry
     estimated scf accuracy    <       0.00000168 Ry

     iteration #  7     ecut=    85.00 Ry     beta= 0.70
     Davidson diagonalization with overlap
     ethr =  1.52E-08,  avg # of iterations =  2.0

     total cpu time spent up to now is        4.9 secs

     total energy              =    -775.14099247 Ry
     Harris-Foulkes estimate   =    -775.14099288 Ry
     estimated scf accuracy    <       0.00000083 Ry

     iteration #  8     ecut=    85.00 Ry     beta= 0.70
     Davidson diagonalization with overlap
     ethr =  7.54E-09,  avg # of iterations =  1.2

     total cpu time spent up to now is        5.3 secs

     total energy              =    -775.14099254 Ry
     Harris-Foulkes estimate   =    -775.14099257 Ry
     estimated scf accuracy    <       0.00000005 Ry

     iteration #  9     ecut=    85.00 Ry     beta= 0.70
     Davidson diagonalization with overlap
     ethr =  4.76E-10,  avg # of iterations =  3.4

     total cpu time spent up to now is        5.8 secs

     total energy              =    -775.14099258 Ry
     Harris-Foulkes estimate   =    -775.14099259 Ry
     estimated scf accuracy    <       0.00000002 Ry

     iteration # 10     ecut=    85.00 Ry     beta= 0.70
     Davidson diagonalization with overlap
     ethr =  2.02E-10,  avg # of iterations =  1.0

     total cpu time spent up to now is        6.3 secs

     End of self-consistent calculation

          k = 0.0000 0.0000 0.0000 (  1459 PWs)   bands (ev):

     6.0742  11.2745  11.2745  11.2745  12.7987  12.7987  31.3899  35.2421
    35.2421  35.2421

          k =-0.1429 0.1429-0.1429 (  1492 PWs)   bands (ev):

     6.7612  11.0907  11.4782  11.4782  12.7387  12.7387  31.2531  32.3882
    35.8558  35.8558

          k =-0.2857 0.2857-0.2857 (  1507 PWs)   bands (ev):

     8.2011  11.3852  11.5112  11.5112  13.1478  13.1478  25.8303  32.0235
    35.8119  35.8119

          k =-0.4286 0.4286-0.4286 (  1501 PWs)   bands (ev):

     8.6288  11.2752  11.2752  13.8826  13.8826  13.9778  20.4162  30.8478
    33.9179  33.9179

          k = 0.0000 0.2857 0.0000 (  1499 PWs)   bands (ev):

     6.9968  10.8229  11.7009  11.7009  12.3318  13.0035  32.3640  33.2364
    33.8908  33.8908

          k =-0.1429 0.4286-0.1429 (  1507 PWs)   bands (ev):

     8.3033  10.5507  11.5637  11.9715  12.8468  13.3723  28.1219  32.5433
    32.6617  34.7028

          k =-0.2857 0.5714-0.2857 (  1503 PWs)   bands (ev):

     9.0810  11.0502  11.5636  11.7747  13.9792  14.9190  22.3122  31.0985
    31.7787  32.9172

          k = 0.5714-0.2857 0.5714 (  1513 PWs)   bands (ev):

     9.1311  10.9477  11.6210  12.4487  13.8434  16.9241  19.3535  29.7897
    32.0022  32.7678

          k = 0.4286-0.1429 0.4286 (  1511 PWs)   bands (ev):

     9.0591  11.0913  11.4134  11.7694  12.9186  14.6563  24.2751  29.7219
    32.9034  35.9295

          k = 0.2857-0.0000 0.2857 (  1502 PWs)   bands (ev):

     7.7983  10.7838  11.6119  11.8413  12.3218  13.3470  29.4256  30.9675
    34.9410  35.7941

          k = 0.0000 0.5714 0.0000 (  1515 PWs)   bands (ev):

     8.8878   9.9227  12.1844  12.8533  12.8533  13.4866  29.9030  29.9030
    30.7955  32.5936

          k =-0.1429 0.7143-0.1429 (  1516 PWs)   bands (ev):

     9.3409   9.8376  12.1003  12.9249  14.0412  15.2193  24.6206  27.9859
    28.7004  33.5962

          k = 0.7143-0.1429 0.7143 (  1521 PWs)   bands (ev):

     9.6089  10.4119  11.7246  12.6324  13.9288  19.1471  19.9552  25.5113
    29.7101  33.3146

          k = 0.5714 0.0000 0.5714 (  1516 PWs)   bands (ev):

    10.0199  10.9154  10.9564  12.3441  13.1393  16.8061  23.6641  24.5989
    32.6611  33.0043

          k = 0.0000 0.8571 0.0000 (  1532 PWs)   bands (ev):

     8.9570   9.2874  13.9000  14.1083  14.1083  15.6093  23.5868  26.6930
    26.6930  33.0698

          k = 0.8571-0.0000 0.8571 (  1530 PWs)   bands (ev):

     9.1429   9.4989  13.2074  13.6162  14.1837  18.6150  21.2435  24.6480
    27.1127  34.0840

          k =-0.2857 0.5714 0.0000 (  1518 PWs)   bands (ev):

     9.5201  10.2603  11.1218  12.7778  12.8499  14.7456  26.1508  27.9124
    31.2871  36.3216

          k = 0.5714-0.2857 0.8571 (  1525 PWs)   bands (ev):

     9.8831  10.5435  11.1935  12.4371  13.7570  17.3330  21.4546  27.0696
    29.1689  35.1217

          k = 0.7143-0.1429 1.0000 (  1515 PWs)   bands (ev):

     9.5563   9.7959  12.0316  13.3460  14.1033  17.8816  22.7926  25.1770
    26.3884  36.5618

          k = 0.5714 0.0000 0.8571 (  1513 PWs)   bands (ev):

     9.9503  10.4240  11.2604  12.7388  14.0957  19.8100  21.8779  23.0730
    26.9916  36.5531

     the Fermi energy is    15.5891 ev

!    total energy              =    -775.14099258 Ry
     Harris-Foulkes estimate   =    -775.14099258 Ry
     estimated scf accuracy    <          1.1E-09 Ry

     total all-electron energy =    -38023.987084 Ry

     The total energy is the sum of the following terms:

     one-electron contribution =      13.82347030 Ry
     hartree contribution      =       7.63653370 Ry
     xc contribution           =     -32.12254078 Ry
     ewald contribution        =     -71.95438534 Ry
     one-center paw contrib.   =    -692.52397367 Ry
     smearing contrib. (-TS)   =      -0.00009679 Ry

     convergence has been achieved in  10 iterations

     Forces acting on atoms (cartesian axes, Ry/au):

     atom    1 type  1   force =     0.00000000    0.00000000    0.00000000

     Total force =     0.000000     Total SCF correction =     0.000000


     Computing stress (Cartesian axis) and pressure

          total   stress  (Ry/bohr**3)                   (kbar)     P=   99.50
   0.00067641  -0.00000000  -0.00000000         99.50     -0.00     -0.00
  -0.00000000   0.00067641   0.00000000         -0.00     99.50      0.00
  -0.00000000   0.00000000   0.00067641         -0.00      0.00     99.50


     Writing output data file Au.save/

     init_run     :      0.41s CPU      0.44s WALL (       1 calls)
     electrons    :      4.73s CPU      5.03s WALL (       1 calls)
     forces       :      0.08s CPU      0.08s WALL (       1 calls)
     stress       :      0.20s CPU      0.20s WALL (       1 calls)

     Called by init_run:
     wfcinit      :      0.07s CPU      0.08s WALL (       1 calls)
     potinit      :      0.12s CPU      0.13s WALL (       1 calls)
     hinit0       :      0.19s CPU      0.20s WALL (       1 calls)

     Called by electrons:
     c_bands      :      2.68s CPU      2.91s WALL (      11 calls)
     sum_band     :      0.65s CPU      0.68s WALL (      11 calls)
     v_of_rho     :      0.08s CPU      0.08s WALL (      11 calls)
     newd         :      0.15s CPU      0.15s WALL (      11 calls)
     PAW_pot      :      1.26s CPU      1.30s WALL (      11 calls)
     mix_rho      :      0.01s CPU      0.01s WALL (      11 calls)

     Called by c_bands:
     init_us_2    :      0.09s CPU      0.10s WALL (     500 calls)
     cegterg      :      2.53s CPU      2.75s WALL (     220 calls)

     Called by sum_band:
     sum_band:bec :      0.00s CPU      0.00s WALL (     220 calls)
     addusdens    :      0.13s CPU      0.13s WALL (      11 calls)

     Called by *egterg:
     h_psi        :      1.92s CPU      2.11s WALL (     780 calls)
     s_psi        :      0.07s CPU      0.08s WALL (     780 calls)
     g_psi        :      0.01s CPU      0.01s WALL (     540 calls)
     cdiaghg      :      0.19s CPU      0.20s WALL (     740 calls)

     Called by h_psi:
     h_psi:pot    :      1.91s CPU      2.10s WALL (     780 calls)
     h_psi:calbec :      0.12s CPU      0.13s WALL (     780 calls)
     vloc_psi     :      1.72s CPU      1.89s WALL (     780 calls)
     add_vuspsi   :      0.07s CPU      0.08s WALL (     780 calls)

     General routines
     calbec       :      0.18s CPU      0.19s WALL (    1100 calls)
     fft          :      0.06s CPU      0.06s WALL (     148 calls)
     ffts         :      0.00s CPU      0.00s WALL (      11 calls)
     fftw         :      1.95s CPU      2.13s WALL (   13800 calls)

     Parallel routines
     fft_scatt_xy :      0.17s CPU      0.19s WALL (   13959 calls)
     fft_scatt_yz :      0.80s CPU      0.86s WALL (   13959 calls)

     PWSCF        :     6.31s CPU         6.71s WALL


   This run was terminated on:  12:30:10  26Mar2024            

=------------------------------------------------------------------------------=
   JOB DONE.
=------------------------------------------------------------------------------=
