
     Program PWSCF v.6.3MaX starts on 26Mar2024 at 11:55:52 

     This program is part of the open-source Quantum ESPRESSO suite
     for quantum simulation of materials; please cite
         "P. Giannozzi et al., J. Phys.:Condens. Matter 21 395502 (2009);
         "P. Giannozzi et al., J. Phys.:Condens. Matter 29 465901 (2017);
          URL http://www.quantum-espresso.org", 
     in publications or presentations arising from this work. More details at
     http://www.quantum-espresso.org/quote

     Parallel version (MPI), running on     5 processors

     MPI processes distributed on     1 nodes
     R & G space division:  proc/nbgrp/npool/nimage =       5
     Waiting for input...
     Reading input from standard input

     Current dimensions of program PWSCF are:
     Max number of different atomic species (ntypx) = 10
     Max number of k-points (npk) =  40000
     Max angular momentum in pseudopotentials (lmaxx) =  3

     Subspace diagonalization in iterative solution of the eigenvalue problem:
     a serial algorithm will be used


     Parallelization info
     --------------------
     sticks:   dense  smooth     PW     G-vecs:    dense   smooth      PW
     Min          99      99     32                 1446     1446     272
     Max         100     100     33                 1449     1449     273
     Sum         499     499    163                 7239     7239    1363



     bravais-lattice index     =            2
     lattice parameter (alat)  =       7.7100  a.u.
     unit-cell volume          =     114.5785 (a.u.)^3
     number of atoms/cell      =            1
     number of atomic types    =            1
     number of electrons       =        11.00
     number of Kohn-Sham states=           10
     kinetic-energy cutoff     =      60.0000  Ry
     charge density cutoff     =     240.0000  Ry
     convergence threshold     =      1.0E-08
     mixing beta               =       0.7000
     number of iterations used =            8  plain     mixing
     Exchange-correlation      = PBE ( 1  4  3  4 0 0)

     celldm(1)=   7.710000  celldm(2)=   0.000000  celldm(3)=   0.000000
     celldm(4)=   0.000000  celldm(5)=   0.000000  celldm(6)=   0.000000

     crystal axes: (cart. coord. in units of alat)
               a(1) = (  -0.500000   0.000000   0.500000 )  
               a(2) = (   0.000000   0.500000   0.500000 )  
               a(3) = (  -0.500000   0.500000   0.000000 )  

     reciprocal axes: (cart. coord. in units 2 pi/alat)
               b(1) = ( -1.000000 -1.000000  1.000000 )  
               b(2) = (  1.000000  1.000000  1.000000 )  
               b(3) = ( -1.000000  1.000000 -1.000000 )  


     PseudoPot. # 1 for Au read from file:
     /home/lorenzo/pseudos/Au/Au.pbe-n-rrkjus_psl.1.0.0.UPF
     MD5 check sum: d7e77ba19504afed2c9b41c931dde4f0
     Pseudo is Ultrasoft + core correction, Zval = 11.0
     Generated using "atomic" code by A. Dal Corso v.6.3
     Using radial grid of 1279 points,  6 beta functions with: 
                l(1) =   0
                l(2) =   0
                l(3) =   1
                l(4) =   1
                l(5) =   2
                l(6) =   2
     Q(r) pseudized with 0 coefficients 


     atomic species   valence    mass     pseudopotential
        Au            11.00   196.96600     Au( 1.00)

     48 Sym. Ops., with inversion, found



   Cartesian axes

     site n.     atom                  positions (alat units)
         1           Au  tau(   1) = (   0.0000000   0.0000000   0.0000000  )

     number of k points=    29  gaussian smearing, width (Ry)=  0.0100
                       cart. coord. in units 2pi/alat
        k(    1) = (   0.0000000   0.0000000   0.0000000), wk =   0.0039062
        k(    2) = (  -0.1250000   0.1250000  -0.1250000), wk =   0.0312500
        k(    3) = (  -0.2500000   0.2500000  -0.2500000), wk =   0.0312500
        k(    4) = (  -0.3750000   0.3750000  -0.3750000), wk =   0.0312500
        k(    5) = (   0.5000000  -0.5000000   0.5000000), wk =   0.0156250
        k(    6) = (   0.0000000   0.2500000   0.0000000), wk =   0.0234375
        k(    7) = (  -0.1250000   0.3750000  -0.1250000), wk =   0.0937500
        k(    8) = (  -0.2500000   0.5000000  -0.2500000), wk =   0.0937500
        k(    9) = (   0.6250000  -0.3750000   0.6250000), wk =   0.0937500
        k(   10) = (   0.5000000  -0.2500000   0.5000000), wk =   0.0937500
        k(   11) = (   0.3750000  -0.1250000   0.3750000), wk =   0.0937500
        k(   12) = (   0.2500000   0.0000000   0.2500000), wk =   0.0468750
        k(   13) = (   0.0000000   0.5000000   0.0000000), wk =   0.0234375
        k(   14) = (  -0.1250000   0.6250000  -0.1250000), wk =   0.0937500
        k(   15) = (   0.7500000  -0.2500000   0.7500000), wk =   0.0937500
        k(   16) = (   0.6250000  -0.1250000   0.6250000), wk =   0.0937500
        k(   17) = (   0.5000000   0.0000000   0.5000000), wk =   0.0468750
        k(   18) = (   0.0000000   0.7500000   0.0000000), wk =   0.0234375
        k(   19) = (   0.8750000  -0.1250000   0.8750000), wk =   0.0937500
        k(   20) = (   0.7500000   0.0000000   0.7500000), wk =   0.0468750
        k(   21) = (   0.0000000  -1.0000000   0.0000000), wk =   0.0117188
        k(   22) = (  -0.2500000   0.5000000   0.0000000), wk =   0.0937500
        k(   23) = (   0.6250000  -0.3750000   0.8750000), wk =   0.1875000
        k(   24) = (   0.5000000  -0.2500000   0.7500000), wk =   0.0937500
        k(   25) = (   0.7500000  -0.2500000   1.0000000), wk =   0.0937500
        k(   26) = (   0.6250000  -0.1250000   0.8750000), wk =   0.1875000
        k(   27) = (   0.5000000   0.0000000   0.7500000), wk =   0.0937500
        k(   28) = (  -0.2500000  -1.0000000   0.0000000), wk =   0.0468750
        k(   29) = (  -0.5000000  -1.0000000   0.0000000), wk =   0.0234375

     Dense  grid:     7239 G-vectors     FFT dimensions: (  27,  27,  27)

     Estimated max dynamical RAM per process >       7.74 MB

     Estimated total dynamical RAM >      38.70 MB

     Initial potential from superposition of free atoms

     starting charge   10.99989, renormalised to   11.00000
     Starting wfcs are    9 randomized atomic wfcs +    1 random wfcs

     total cpu time spent up to now is        1.6 secs

     Self-consistent Calculation

     iteration #  1     ecut=    60.00 Ry     beta= 0.70
     Davidson diagonalization with overlap
     ethr =  1.00E-02,  avg # of iterations =  5.5

     Threshold (ethr) on eigenvalues was too large:
     Diagonalizing with lowered threshold

     Davidson diagonalization with overlap
     ethr =  4.64E-04,  avg # of iterations =  2.0

     total cpu time spent up to now is        2.6 secs

     total energy              =     -85.36823637 Ry
     Harris-Foulkes estimate   =     -85.40062410 Ry
     estimated scf accuracy    <       0.05135904 Ry

     iteration #  2     ecut=    60.00 Ry     beta= 0.70
     Davidson diagonalization with overlap
     ethr =  4.67E-04,  avg # of iterations =  2.5

     total cpu time spent up to now is        2.9 secs

     total energy              =     -85.38188180 Ry
     Harris-Foulkes estimate   =     -85.38861932 Ry
     estimated scf accuracy    <       0.01074287 Ry

     iteration #  3     ecut=    60.00 Ry     beta= 0.70
     Davidson diagonalization with overlap
     ethr =  9.77E-05,  avg # of iterations =  2.3

     total cpu time spent up to now is        3.2 secs

     total energy              =     -85.38442412 Ry
     Harris-Foulkes estimate   =     -85.38446900 Ry
     estimated scf accuracy    <       0.00016975 Ry

     iteration #  4     ecut=    60.00 Ry     beta= 0.70
     Davidson diagonalization with overlap
     ethr =  1.54E-06,  avg # of iterations =  4.2

     total cpu time spent up to now is        3.7 secs

     total energy              =     -85.38455633 Ry
     Harris-Foulkes estimate   =     -85.38460410 Ry
     estimated scf accuracy    <       0.00009149 Ry

     iteration #  5     ecut=    60.00 Ry     beta= 0.70
     Davidson diagonalization with overlap
     ethr =  8.32E-07,  avg # of iterations =  1.0

     total cpu time spent up to now is        4.1 secs

     total energy              =     -85.38456267 Ry
     Harris-Foulkes estimate   =     -85.38456604 Ry
     estimated scf accuracy    <       0.00000561 Ry

     iteration #  6     ecut=    60.00 Ry     beta= 0.70
     Davidson diagonalization with overlap
     ethr =  5.10E-08,  avg # of iterations =  3.0

     total cpu time spent up to now is        4.5 secs

     total energy              =     -85.38456688 Ry
     Harris-Foulkes estimate   =     -85.38456716 Ry
     estimated scf accuracy    <       0.00000081 Ry

     iteration #  7     ecut=    60.00 Ry     beta= 0.70
     Davidson diagonalization with overlap
     ethr =  7.35E-09,  avg # of iterations =  1.0

     total cpu time spent up to now is        4.8 secs

     total energy              =     -85.38456680 Ry
     Harris-Foulkes estimate   =     -85.38456692 Ry
     estimated scf accuracy    <       0.00000019 Ry

     iteration #  8     ecut=    60.00 Ry     beta= 0.70
     Davidson diagonalization with overlap
     ethr =  1.75E-09,  avg # of iterations =  2.8

     total cpu time spent up to now is        5.2 secs

     total energy              =     -85.38456687 Ry
     Harris-Foulkes estimate   =     -85.38456688 Ry
     estimated scf accuracy    <       0.00000002 Ry

     iteration #  9     ecut=    60.00 Ry     beta= 0.70
     Davidson diagonalization with overlap
     ethr =  1.90E-10,  avg # of iterations =  2.0

     total cpu time spent up to now is        5.5 secs

     End of self-consistent calculation

          k = 0.0000 0.0000 0.0000 (   893 PWs)   bands (ev):

     6.0960  11.3166  11.3166  11.3166  12.8482  12.8482  31.3956  35.2605
    35.2605  35.2605

          k =-0.1250 0.1250-0.1250 (   914 PWs)   bands (ev):

     6.6285  11.1639  11.4836  11.4836  12.7903  12.7903  31.6325  32.5543
    35.7549  35.7549

          k =-0.2500 0.2500-0.2500 (   902 PWs)   bands (ev):

     7.9022  11.1782  11.5995  11.5995  13.0183  13.0183  27.3096  32.3247
    36.1744  36.1744

          k =-0.3750 0.3750-0.3750 (   905 PWs)   bands (ev):

     8.6166  11.3943  11.3943  12.8217  13.7000  13.7000  22.3278  31.2042
    34.5557  34.5557

          k = 0.5000-0.5000 0.5000 (   886 PWs)   bands (ev):

     8.6619  11.2777  11.2777  14.0617  14.0617  15.0236  19.1130  30.6835
    33.6229  33.6229

          k = 0.0000 0.2500 0.0000 (   901 PWs)   bands (ev):

     6.8099  10.9607  11.6455  11.6455  12.4750  13.0075  32.1627  33.5015
    34.2765  34.2765

          k =-0.1250 0.3750-0.1250 (   900 PWs)   bands (ev):

     7.8935  10.6863  11.7118  11.9160  12.6168  13.2587  29.2808  32.7475
    33.2505  35.3793

          k =-0.2500 0.5000-0.2500 (   892 PWs)   bands (ev):

     8.9112  11.2071  11.3031  11.8090  13.8276  13.9751  24.1613  31.7475
    32.3605  33.9012

          k = 0.6250-0.3750 0.6250 (   900 PWs)   bands (ev):

     9.0419  11.0449  11.6120  12.5045  14.0866  16.3391  19.6959  30.6374
    32.2956  32.3521

          k = 0.5000-0.2500 0.5000 (   896 PWs)   bands (ev):

     9.0671  11.1250  11.6056  12.3714  13.6056  15.6362  21.0971  30.1586
    32.1176  34.0507

          k = 0.3750-0.1250 0.3750 (   897 PWs)   bands (ev):

     8.7256  10.9831  11.5026  11.8233  12.7380  14.1071  25.8788  30.5499
    33.5142  37.2148

          k = 0.2500 0.0000 0.2500 (   915 PWs)   bands (ev):

     7.4530  10.9003  11.6644  11.7582  12.4465  13.1849  30.3326  31.5218
    34.6422  36.7062

          k = 0.0000 0.5000 0.0000 (   902 PWs)   bands (ev):

     8.5297  10.1840  12.0123  12.5632  12.5632  13.4077  30.9854  30.9854
    32.3395  33.1622

          k =-0.1250 0.6250-0.1250 (   895 PWs)   bands (ev):

     9.2829  10.0042  11.8007  12.7366  13.8862  14.1265  26.2945  29.6381
    29.8953  33.4883

          k = 0.7500-0.2500 0.7500 (   898 PWs)   bands (ev):

     9.5314  10.4481  11.6620  12.5111  14.1519  17.0582  21.4905  27.6325
    29.7100  33.1956

          k = 0.6250-0.1250 0.6250 (   899 PWs)   bands (ev):

     9.8081  10.7247  11.5590  12.3279  13.6478  17.9385  20.9010  25.9797
    31.5042  32.8995

          k = 0.5000 0.0000 0.5000 (   889 PWs)   bands (ev):

     9.8889  10.7727  11.1133  12.2438  12.8430  15.7476  24.6486  26.3001
    33.0809  34.4770

          k = 0.0000 0.7500 0.0000 (   894 PWs)   bands (ev):

     9.1013   9.4977  13.7543  13.7543  13.8323  14.0477  26.0937  27.6512
    27.6512  32.8752

          k = 0.8750-0.1250 0.8750 (   905 PWs)   bands (ev):

     9.1848   9.5256  13.1854  13.5810  14.2470  17.1623  22.7089  25.5296
    27.2654  33.9579

          k = 0.7500 0.0000 0.7500 (   902 PWs)   bands (ev):

     9.5306  10.1539  12.1728  13.1393  13.9383  19.9374  20.7076  23.4757
    28.8045  33.7901

          k = 0.0000-1.0000 0.0000 (   934 PWs)   bands (ev):

     8.9129   9.2345  14.0162  14.3877  14.3877  17.0312  21.8187  26.2319
    26.2319  33.2386

          k =-0.2500 0.5000 0.0000 (   904 PWs)   bands (ev):

     9.0220  10.3944  11.3580  12.5649  12.6534  14.1460  27.4666  29.1692
    32.5846  35.6604

          k = 0.6250-0.3750 0.8750 (   896 PWs)   bands (ev):

     9.6862  10.8198  11.0221  12.3665  13.5665  15.8961  23.0879  28.0684
    30.5834  35.0300

          k = 0.5000-0.2500 0.7500 (   890 PWs)   bands (ev):

     9.6886  10.6379  11.7475  12.1596  13.9237  18.6696  19.1215  28.3177
    29.3523  34.2699

          k = 0.7500-0.2500 1.0000 (   896 PWs)   bands (ev):

     9.6061   9.8556  11.8324  13.4495  13.7450  16.1627  24.4668  26.3734
    27.8510  35.8333

          k = 0.6250-0.1250 0.8750 (   904 PWs)   bands (ev):

     9.8494  10.2942  11.5065  12.9226  14.1081  19.1863  21.2302  24.8305
    27.2120  35.9093

          k = 0.5000 0.0000 0.7500 (   903 PWs)   bands (ev):

    10.2950  10.5900  10.8675  12.7120  13.7475  18.0978  23.2162  23.6108
    28.7397  35.9694

          k =-0.2500-1.0000 0.0000 (   904 PWs)   bands (ev):

     9.3711   9.6411  12.7288  13.4683  14.3887  19.1773  21.2690  25.0893
    25.7565  36.0579

          k =-0.5000-1.0000 0.0000 (   892 PWs)   bands (ev):

    10.0247  10.8407  10.8407  12.7003  14.3897  20.8137  22.3603  22.3603
    25.4773  39.4569

     the Fermi energy is    15.9906 ev

!    total energy              =     -85.38456687 Ry
     Harris-Foulkes estimate   =     -85.38456687 Ry
     estimated scf accuracy    <          3.1E-09 Ry

     The total energy is the sum of the following terms:

     one-electron contribution =      11.08002516 Ry
     hartree contribution      =       7.59640404 Ry
     xc contribution           =     -32.10622487 Ry
     ewald contribution        =     -71.95438535 Ry
     smearing contrib. (-TS)   =      -0.00038585 Ry

     convergence has been achieved in   9 iterations

     Forces acting on atoms (cartesian axes, Ry/au):

     atom    1 type  1   force =     0.00000000    0.00000000    0.00000000

     Total force =     0.000000     Total SCF correction =     0.000000


     Computing stress (Cartesian axis) and pressure

          total   stress  (Ry/bohr**3)                   (kbar)     P=  113.48
   0.00077141  -0.00000000  -0.00000000        113.48     -0.00     -0.00
  -0.00000000   0.00077141   0.00000000         -0.00    113.48      0.00
  -0.00000000   0.00000000   0.00077141         -0.00      0.00    113.48


     Writing output data file Au.save/

     init_run     :      0.45s CPU      0.46s WALL (       1 calls)
     electrons    :      3.81s CPU      3.95s WALL (       1 calls)
     forces       :      0.04s CPU      0.04s WALL (       1 calls)
     stress       :      0.12s CPU      0.12s WALL (       1 calls)

     Called by init_run:
     wfcinit      :      0.17s CPU      0.17s WALL (       1 calls)
     potinit      :      0.01s CPU      0.02s WALL (       1 calls)
     hinit0       :      0.25s CPU      0.25s WALL (       1 calls)

     Called by electrons:
     c_bands      :      3.11s CPU      3.23s WALL (      10 calls)
     sum_band     :      0.57s CPU      0.59s WALL (      10 calls)
     v_of_rho     :      0.06s CPU      0.06s WALL (      10 calls)
     newd         :      0.08s CPU      0.08s WALL (      10 calls)
     mix_rho      :      0.00s CPU      0.00s WALL (      10 calls)

     Called by c_bands:
     init_us_2    :      0.08s CPU      0.08s WALL (     667 calls)
     cegterg      :      2.99s CPU      3.11s WALL (     290 calls)

     Called by sum_band:
     sum_band:bec :      0.00s CPU      0.00s WALL (     290 calls)
     addusdens    :      0.07s CPU      0.08s WALL (      10 calls)

     Called by *egterg:
     h_psi        :      2.37s CPU      2.47s WALL (    1082 calls)
     s_psi        :      0.06s CPU      0.06s WALL (    1082 calls)
     g_psi        :      0.01s CPU      0.01s WALL (     763 calls)
     cdiaghg      :      0.27s CPU      0.28s WALL (    1024 calls)

     Called by h_psi:
     h_psi:pot    :      2.36s CPU      2.45s WALL (    1082 calls)
     h_psi:calbec :      0.13s CPU      0.13s WALL (    1082 calls)
     vloc_psi     :      2.16s CPU      2.25s WALL (    1082 calls)
     add_vuspsi   :      0.06s CPU      0.06s WALL (    1082 calls)

     General routines
     calbec       :      0.17s CPU      0.18s WALL (    1517 calls)
     fft          :      0.04s CPU      0.04s WALL (     137 calls)
     ffts         :      0.00s CPU      0.00s WALL (      10 calls)
     fftw         :      2.43s CPU      2.52s WALL (   18514 calls)

     Parallel routines
     fft_scatt_xy :      0.17s CPU      0.18s WALL (   18661 calls)
     fft_scatt_yz :      0.98s CPU      1.01s WALL (   18661 calls)

     PWSCF        :     5.54s CPU         5.73s WALL


   This run was terminated on:  11:55:58  26Mar2024            

=------------------------------------------------------------------------------=
   JOB DONE.
=------------------------------------------------------------------------------=
