
     Program PWSCF v.6.3MaX starts on 26Mar2024 at 12: 7:52 

     This program is part of the open-source Quantum ESPRESSO suite
     for quantum simulation of materials; please cite
         "P. Giannozzi et al., J. Phys.:Condens. Matter 21 395502 (2009);
         "P. Giannozzi et al., J. Phys.:Condens. Matter 29 465901 (2017);
          URL http://www.quantum-espresso.org", 
     in publications or presentations arising from this work. More details at
     http://www.quantum-espresso.org/quote

     Parallel version (MPI), running on     5 processors

     MPI processes distributed on     1 nodes
     R & G space division:  proc/nbgrp/npool/nimage =       5
     Waiting for input...
     Reading input from standard input

     Current dimensions of program PWSCF are:
     Max number of different atomic species (ntypx) = 10
     Max number of k-points (npk) =  40000
     Max angular momentum in pseudopotentials (lmaxx) =  3

     Subspace diagonalization in iterative solution of the eigenvalue problem:
     a serial algorithm will be used


     Parallelization info
     --------------------
     sticks:   dense  smooth     PW     G-vecs:    dense   smooth      PW
     Min         116     116     37                 1836     1836     327
     Max         117     117     38                 1838     1838     329
     Sum         583     583    187                 9185     9185    1639



     bravais-lattice index     =            2
     lattice parameter (alat)  =       7.7100  a.u.
     unit-cell volume          =     114.5785 (a.u.)^3
     number of atoms/cell      =            1
     number of atomic types    =            1
     number of electrons       =        11.00
     number of Kohn-Sham states=           10
     kinetic-energy cutoff     =      70.0000  Ry
     charge density cutoff     =     280.0000  Ry
     convergence threshold     =      1.0E-08
     mixing beta               =       0.7000
     number of iterations used =            8  plain     mixing
     Exchange-correlation      = PBE ( 1  4  3  4 0 0)

     celldm(1)=   7.710000  celldm(2)=   0.000000  celldm(3)=   0.000000
     celldm(4)=   0.000000  celldm(5)=   0.000000  celldm(6)=   0.000000

     crystal axes: (cart. coord. in units of alat)
               a(1) = (  -0.500000   0.000000   0.500000 )  
               a(2) = (   0.000000   0.500000   0.500000 )  
               a(3) = (  -0.500000   0.500000   0.000000 )  

     reciprocal axes: (cart. coord. in units 2 pi/alat)
               b(1) = ( -1.000000 -1.000000  1.000000 )  
               b(2) = (  1.000000  1.000000  1.000000 )  
               b(3) = ( -1.000000  1.000000 -1.000000 )  


     PseudoPot. # 1 for Au read from file:
     /home/lorenzo/pseudos/Au/Au.pbe-n-rrkjus_psl.1.0.0.UPF
     MD5 check sum: d7e77ba19504afed2c9b41c931dde4f0
     Pseudo is Ultrasoft + core correction, Zval = 11.0
     Generated using "atomic" code by A. Dal Corso v.6.3
     Using radial grid of 1279 points,  6 beta functions with: 
                l(1) =   0
                l(2) =   0
                l(3) =   1
                l(4) =   1
                l(5) =   2
                l(6) =   2
     Q(r) pseudized with 0 coefficients 


     atomic species   valence    mass     pseudopotential
        Au            11.00   196.96600     Au( 1.00)

     48 Sym. Ops., with inversion, found



   Cartesian axes

     site n.     atom                  positions (alat units)
         1           Au  tau(   1) = (   0.0000000   0.0000000   0.0000000  )

     number of k points=    16  gaussian smearing, width (Ry)=  0.0100
                       cart. coord. in units 2pi/alat
        k(    1) = (   0.0000000   0.0000000   0.0000000), wk =   0.0092593
        k(    2) = (  -0.1666667   0.1666667  -0.1666667), wk =   0.0740741
        k(    3) = (  -0.3333333   0.3333333  -0.3333333), wk =   0.0740741
        k(    4) = (   0.5000000  -0.5000000   0.5000000), wk =   0.0370370
        k(    5) = (   0.0000000   0.3333333   0.0000000), wk =   0.0555556
        k(    6) = (  -0.1666667   0.5000000  -0.1666667), wk =   0.2222222
        k(    7) = (   0.6666667  -0.3333333   0.6666667), wk =   0.2222222
        k(    8) = (   0.5000000  -0.1666667   0.5000000), wk =   0.2222222
        k(    9) = (   0.3333333   0.0000000   0.3333333), wk =   0.1111111
        k(   10) = (   0.0000000   0.6666667   0.0000000), wk =   0.0555556
        k(   11) = (   0.8333333  -0.1666667   0.8333333), wk =   0.2222222
        k(   12) = (   0.6666667  -0.0000000   0.6666667), wk =   0.1111111
        k(   13) = (   0.0000000  -1.0000000   0.0000000), wk =   0.0277778
        k(   14) = (   0.6666667  -0.3333333   1.0000000), wk =   0.2222222
        k(   15) = (   0.5000000  -0.1666667   0.8333333), wk =   0.2222222
        k(   16) = (  -0.3333333  -1.0000000   0.0000000), wk =   0.1111111

     Dense  grid:     9185 G-vectors     FFT dimensions: (  30,  30,  30)

     Estimated max dynamical RAM per process >       9.07 MB

     Estimated total dynamical RAM >      45.34 MB

     Initial potential from superposition of free atoms

     starting charge   10.99989, renormalised to   11.00000
     Starting wfcs are    9 randomized atomic wfcs +    1 random wfcs

     total cpu time spent up to now is        1.2 secs

     Self-consistent Calculation

     iteration #  1     ecut=    70.00 Ry     beta= 0.70
     Davidson diagonalization with overlap
     ethr =  1.00E-02,  avg # of iterations =  6.0

     Threshold (ethr) on eigenvalues was too large:
     Diagonalizing with lowered threshold

     Davidson diagonalization with overlap
     ethr =  4.68E-04,  avg # of iterations =  1.8

     total cpu time spent up to now is        1.6 secs

     total energy              =     -85.36589344 Ry
     Harris-Foulkes estimate   =     -85.39837800 Ry
     estimated scf accuracy    <       0.05131177 Ry

     iteration #  2     ecut=    70.00 Ry     beta= 0.70
     Davidson diagonalization with overlap
     ethr =  4.66E-04,  avg # of iterations =  2.6

     total cpu time spent up to now is        1.9 secs

     total energy              =     -85.37960734 Ry
     Harris-Foulkes estimate   =     -85.38621667 Ry
     estimated scf accuracy    <       0.01049722 Ry

     iteration #  3     ecut=    70.00 Ry     beta= 0.70
     Davidson diagonalization with overlap
     ethr =  9.54E-05,  avg # of iterations =  2.0

     total cpu time spent up to now is        2.1 secs

     total energy              =     -85.38211131 Ry
     Harris-Foulkes estimate   =     -85.38216047 Ry
     estimated scf accuracy    <       0.00017740 Ry

     iteration #  4     ecut=    70.00 Ry     beta= 0.70
     Davidson diagonalization with overlap
     ethr =  1.61E-06,  avg # of iterations =  4.0

     total cpu time spent up to now is        2.3 secs

     total energy              =     -85.38224153 Ry
     Harris-Foulkes estimate   =     -85.38229445 Ry
     estimated scf accuracy    <       0.00009944 Ry

     iteration #  5     ecut=    70.00 Ry     beta= 0.70
     Davidson diagonalization with overlap
     ethr =  9.04E-07,  avg # of iterations =  1.1

     total cpu time spent up to now is        2.5 secs

     total energy              =     -85.38224935 Ry
     Harris-Foulkes estimate   =     -85.38225257 Ry
     estimated scf accuracy    <       0.00000534 Ry

     iteration #  6     ecut=    70.00 Ry     beta= 0.70
     Davidson diagonalization with overlap
     ethr =  4.85E-08,  avg # of iterations =  3.1

     total cpu time spent up to now is        2.8 secs

     total energy              =     -85.38225391 Ry
     Harris-Foulkes estimate   =     -85.38225421 Ry
     estimated scf accuracy    <       0.00000091 Ry

     iteration #  7     ecut=    70.00 Ry     beta= 0.70
     Davidson diagonalization with overlap
     ethr =  8.26E-09,  avg # of iterations =  1.1

     total cpu time spent up to now is        3.0 secs

     total energy              =     -85.38225379 Ry
     Harris-Foulkes estimate   =     -85.38225395 Ry
     estimated scf accuracy    <       0.00000026 Ry

     iteration #  8     ecut=    70.00 Ry     beta= 0.70
     Davidson diagonalization with overlap
     ethr =  2.32E-09,  avg # of iterations =  2.5

     total cpu time spent up to now is        3.2 secs

     total energy              =     -85.38225388 Ry
     Harris-Foulkes estimate   =     -85.38225389 Ry
     estimated scf accuracy    <       0.00000003 Ry

     iteration #  9     ecut=    70.00 Ry     beta= 0.70
     Davidson diagonalization with overlap
     ethr =  2.56E-10,  avg # of iterations =  2.1

     total cpu time spent up to now is        3.4 secs

     End of self-consistent calculation

          k = 0.0000 0.0000 0.0000 (  1139 PWs)   bands (ev):

     6.0955  11.3132  11.3132  11.3132  12.8445  12.8445  31.3957  35.2606
    35.2606  35.2606

          k =-0.1667 0.1667-0.1667 (  1137 PWs)   bands (ev):

     7.0120  11.0922  11.5617  11.5617  12.7938  12.7938  30.5121  32.4265
    36.0390  36.0390

          k =-0.3333 0.3333-0.3333 (  1149 PWs)   bands (ev):

     8.5040  11.4666  11.4666  12.0341  13.4654  13.4654  23.9446  31.5735
    35.1648  35.1648

          k = 0.5000-0.5000 0.5000 (  1158 PWs)   bands (ev):

     8.6597  11.2745  11.2745  14.0577  14.0577  15.0234  19.1104  30.6837
    33.6220  33.6220

          k = 0.0000 0.3333 0.0000 (  1138 PWs)   bands (ev):

     7.3295  10.7188  11.8906  11.8906  12.2457  13.1187  32.6807  32.9800
    33.3582  33.3582

          k =-0.1667 0.5000-0.1667 (  1128 PWs)   bands (ev):

     8.8477  10.5131  11.4434  12.1291  13.4433  13.6623  26.5990  31.6756
    32.2105  33.7572

          k = 0.6667-0.3333 0.6667 (  1133 PWs)   bands (ev):

     9.2730  10.9052  11.8573  11.9677  14.1009  16.6830  20.1849  29.8464
    31.5329  32.3780

          k = 0.5000-0.1667 0.5000 (  1134 PWs)   bands (ev):

     9.3606  11.0357  11.7335  11.8350  13.3064  15.7057  22.3549  28.7796
    32.4763  34.2630

          k = 0.3333 0.0000 0.3333 (  1127 PWs)   bands (ev):

     8.3400  10.7371  11.5838  12.0699  12.2786  13.7693  28.2760  30.0886
    34.8114  35.5641

          k = 0.0000 0.6667 0.0000 (  1118 PWs)   bands (ev):

     9.1231   9.6879  12.9926  13.3616  13.3616  13.7014  28.2437  28.6287
    28.6287  32.7047

          k = 0.8333-0.1667 0.8333 (  1127 PWs)   bands (ev):

     9.3353   9.7710  12.5723  13.2453  14.2060  17.1673  22.6506  25.7972
    27.9799  33.8780

          k = 0.6667-0.0000 0.6667 (  1141 PWs)   bands (ev):

     9.8272  10.6378  11.5100  12.7332  13.6141  18.4913  22.4842  23.2127
    30.4889  33.3431

          k = 0.0000-1.0000 0.0000 (  1138 PWs)   bands (ev):

     8.9108   9.2316  14.0123  14.3835  14.3835  17.0308  21.8164  26.2314
    26.2314  33.2371

          k = 0.6667-0.3333 1.0000 (  1124 PWs)   bands (ev):

     9.9983  10.2462  11.0001  13.0021  13.3508  15.9314  24.6667  26.3612
    29.6252  36.6581

          k = 0.5000-0.1667 0.8333 (  1138 PWs)   bands (ev):

    10.2268  10.3253  11.2380  12.5906  13.9691  19.3868  20.1654  25.8923
    27.7975  35.8898

          k =-0.3333-1.0000 0.0000 (  1138 PWs)   bands (ev):

     9.6573   9.9524  12.0355  13.1221  14.3850  20.2265  21.0285  24.2947
    25.6007  37.4489

     the Fermi energy is    15.9631 ev

!    total energy              =     -85.38225388 Ry
     Harris-Foulkes estimate   =     -85.38225388 Ry
     estimated scf accuracy    <          8.6E-10 Ry

     The total energy is the sum of the following terms:

     one-electron contribution =      11.08407824 Ry
     hartree contribution      =       7.59405858 Ry
     xc contribution           =     -32.10539390 Ry
     ewald contribution        =     -71.95438534 Ry
     smearing contrib. (-TS)   =      -0.00061146 Ry

     convergence has been achieved in   9 iterations

     Forces acting on atoms (cartesian axes, Ry/au):

     atom    1 type  1   force =     0.00000000    0.00000000    0.00000000

     Total force =     0.000000     Total SCF correction =     0.000000


     Computing stress (Cartesian axis) and pressure

          total   stress  (Ry/bohr**3)                   (kbar)     P=  116.92
   0.00079484   0.00000000  -0.00000000        116.92      0.00     -0.00
   0.00000000   0.00079484  -0.00000000          0.00    116.92     -0.00
   0.00000000  -0.00000000   0.00079484          0.00     -0.00    116.92


     Writing output data file Au.save/

     init_run     :      0.30s CPU      0.31s WALL (       1 calls)
     electrons    :      2.11s CPU      2.21s WALL (       1 calls)
     forces       :      0.03s CPU      0.04s WALL (       1 calls)
     stress       :      0.12s CPU      0.12s WALL (       1 calls)

     Called by init_run:
     wfcinit      :      0.08s CPU      0.08s WALL (       1 calls)
     potinit      :      0.01s CPU      0.02s WALL (       1 calls)
     hinit0       :      0.20s CPU      0.20s WALL (       1 calls)

     Called by electrons:
     c_bands      :      1.62s CPU      1.70s WALL (      10 calls)
     sum_band     :      0.35s CPU      0.37s WALL (      10 calls)
     v_of_rho     :      0.06s CPU      0.06s WALL (      10 calls)
     newd         :      0.09s CPU      0.09s WALL (      10 calls)
     mix_rho      :      0.01s CPU      0.01s WALL (      10 calls)

     Called by c_bands:
     init_us_2    :      0.05s CPU      0.06s WALL (     368 calls)
     cegterg      :      1.55s CPU      1.62s WALL (     160 calls)

     Called by sum_band:
     sum_band:bec :      0.00s CPU      0.00s WALL (     160 calls)
     addusdens    :      0.09s CPU      0.09s WALL (      10 calls)

     Called by *egterg:
     h_psi        :      1.22s CPU      1.28s WALL (     596 calls)
     s_psi        :      0.04s CPU      0.04s WALL (     596 calls)
     g_psi        :      0.00s CPU      0.00s WALL (     420 calls)
     cdiaghg      :      0.14s CPU      0.14s WALL (     564 calls)

     Called by h_psi:
     h_psi:pot    :      1.22s CPU      1.27s WALL (     596 calls)
     h_psi:calbec :      0.06s CPU      0.06s WALL (     596 calls)
     vloc_psi     :      1.11s CPU      1.17s WALL (     596 calls)
     add_vuspsi   :      0.04s CPU      0.04s WALL (     596 calls)

     General routines
     calbec       :      0.09s CPU      0.09s WALL (     836 calls)
     fft          :      0.04s CPU      0.04s WALL (     137 calls)
     ffts         :      0.00s CPU      0.00s WALL (      10 calls)
     fftw         :      1.23s CPU      1.29s WALL (   10224 calls)

     Parallel routines
     fft_scatt_xy :      0.11s CPU      0.11s WALL (   10371 calls)
     fft_scatt_yz :      0.33s CPU      0.35s WALL (   10371 calls)

     PWSCF        :     3.45s CPU         3.61s WALL


   This run was terminated on:  12: 7:55  26Mar2024            

=------------------------------------------------------------------------------=
   JOB DONE.
=------------------------------------------------------------------------------=
