
     Program PWSCF v.6.3MaX starts on 26Mar2024 at 11:16:10 

     This program is part of the open-source Quantum ESPRESSO suite
     for quantum simulation of materials; please cite
         "P. Giannozzi et al., J. Phys.:Condens. Matter 21 395502 (2009);
         "P. Giannozzi et al., J. Phys.:Condens. Matter 29 465901 (2017);
          URL http://www.quantum-espresso.org", 
     in publications or presentations arising from this work. More details at
     http://www.quantum-espresso.org/quote

     Parallel version (MPI), running on     5 processors

     MPI processes distributed on     1 nodes
     R & G space division:  proc/nbgrp/npool/nimage =       5
     Waiting for input...
     Reading input from standard input

     Current dimensions of program PWSCF are:
     Max number of different atomic species (ntypx) = 10
     Max number of k-points (npk) =  40000
     Max angular momentum in pseudopotentials (lmaxx) =  3

     Subspace diagonalization in iterative solution of the eigenvalue problem:
     a serial algorithm will be used


     Parallelization info
     --------------------
     sticks:   dense  smooth     PW     G-vecs:    dense   smooth      PW
     Min          24      24      6                  178      178      22
     Max          25      25      7                  181      181      23
     Sum         121     121     31                  893      893     113



     bravais-lattice index     =            2
     lattice parameter (alat)  =       7.7100  a.u.
     unit-cell volume          =     114.5785 (a.u.)^3
     number of atoms/cell      =            1
     number of atomic types    =            1
     number of electrons       =        11.00
     number of Kohn-Sham states=           10
     kinetic-energy cutoff     =      15.0000  Ry
     charge density cutoff     =      60.0000  Ry
     convergence threshold     =      1.0E-08
     mixing beta               =       0.7000
     number of iterations used =            8  plain     mixing
     Exchange-correlation      = PBESOL ( 1  4 10  8 0 0)

     celldm(1)=   7.710000  celldm(2)=   0.000000  celldm(3)=   0.000000
     celldm(4)=   0.000000  celldm(5)=   0.000000  celldm(6)=   0.000000

     crystal axes: (cart. coord. in units of alat)
               a(1) = (  -0.500000   0.000000   0.500000 )  
               a(2) = (   0.000000   0.500000   0.500000 )  
               a(3) = (  -0.500000   0.500000   0.000000 )  

     reciprocal axes: (cart. coord. in units 2 pi/alat)
               b(1) = ( -1.000000 -1.000000  1.000000 )  
               b(2) = (  1.000000  1.000000  1.000000 )  
               b(3) = ( -1.000000  1.000000 -1.000000 )  


     PseudoPot. # 1 for Au read from file:
     /home/lorenzo/pseudos/Au/Au.pbesol-n-rrkjus_psl.1.0.0.UPF
     MD5 check sum: 09626e9411213730b9a56fcc59c03ca8
     Pseudo is Ultrasoft + core correction, Zval = 11.0
     Generated using "atomic" code by A. Dal Corso v.6.3
     Using radial grid of 1279 points,  6 beta functions with: 
                l(1) =   0
                l(2) =   0
                l(3) =   1
                l(4) =   1
                l(5) =   2
                l(6) =   2
     Q(r) pseudized with 0 coefficients 


     atomic species   valence    mass     pseudopotential
        Au            11.00   196.96600     Au( 1.00)

     48 Sym. Ops., with inversion, found



   Cartesian axes

     site n.     atom                  positions (alat units)
         1           Au  tau(   1) = (   0.0000000   0.0000000   0.0000000  )

     number of k points=     1  gaussian smearing, width (Ry)=  0.0100
                       cart. coord. in units 2pi/alat
        k(    1) = (   0.0000000   0.0000000   0.0000000), wk =   2.0000000

     Dense  grid:      893 G-vectors     FFT dimensions: (  15,  15,  15)

     Estimated max dynamical RAM per process >       1.45 MB

     Estimated total dynamical RAM >       7.25 MB

     Check: negative/imaginary core charge=   -0.000006    0.000000

     Initial potential from superposition of free atoms

     starting charge   10.99990, renormalised to   11.00000
     Starting wfcs are    9 randomized atomic wfcs +    1 random wfcs

     total cpu time spent up to now is        0.9 secs

     Self-consistent Calculation

     iteration #  1     ecut=    15.00 Ry     beta= 0.70
     Davidson diagonalization with overlap
     ethr =  1.00E-02,  avg # of iterations =  5.0

     total cpu time spent up to now is        0.9 secs

     total energy              =     -85.78175562 Ry
     Harris-Foulkes estimate   =     -85.89334391 Ry
     estimated scf accuracy    <       0.19752716 Ry

     iteration #  2     ecut=    15.00 Ry     beta= 0.70
     Davidson diagonalization with overlap
     ethr =  1.80E-03,  avg # of iterations =  2.0

     total cpu time spent up to now is        0.9 secs

     total energy              =     -85.82014258 Ry
     Harris-Foulkes estimate   =     -85.81720148 Ry
     estimated scf accuracy    <       0.00229870 Ry

     iteration #  3     ecut=    15.00 Ry     beta= 0.70
     Davidson diagonalization with overlap
     ethr =  2.09E-05,  avg # of iterations =  3.0

     negative rho (up, down):  4.194E-04 0.000E+00

     total cpu time spent up to now is        0.9 secs

     total energy              =     -85.82193646 Ry
     Harris-Foulkes estimate   =     -85.82075468 Ry
     estimated scf accuracy    <       0.00032549 Ry

     iteration #  4     ecut=    15.00 Ry     beta= 0.70
     Davidson diagonalization with overlap
     ethr =  2.96E-06,  avg # of iterations =  3.0

     negative rho (up, down):  1.269E-03 0.000E+00

     total cpu time spent up to now is        0.9 secs

     total energy              =     -85.82248881 Ry
     Harris-Foulkes estimate   =     -85.82251631 Ry
     estimated scf accuracy    <       0.00008926 Ry

     iteration #  5     ecut=    15.00 Ry     beta= 0.70
     Davidson diagonalization with overlap
     ethr =  8.11E-07,  avg # of iterations =  3.0

     negative rho (up, down):  1.404E-03 0.000E+00

     total cpu time spent up to now is        1.0 secs

     total energy              =     -85.82316569 Ry
     Harris-Foulkes estimate   =     -85.82315959 Ry
     estimated scf accuracy    <       0.00000281 Ry

     iteration #  6     ecut=    15.00 Ry     beta= 0.70
     Davidson diagonalization with overlap
     ethr =  2.56E-08,  avg # of iterations =  3.0

     negative rho (up, down):  1.574E-03 0.000E+00

     total cpu time spent up to now is        1.0 secs

     total energy              =     -85.82316743 Ry
     Harris-Foulkes estimate   =     -85.82317492 Ry
     estimated scf accuracy    <       0.00000136 Ry

     iteration #  7     ecut=    15.00 Ry     beta= 0.70
     Davidson diagonalization with overlap
     ethr =  1.24E-08,  avg # of iterations =  3.0

     negative rho (up, down):  1.606E-03 0.000E+00

     total cpu time spent up to now is        1.0 secs

     total energy              =     -85.82318038 Ry
     Harris-Foulkes estimate   =     -85.82318114 Ry
     estimated scf accuracy    <       0.00000003 Ry

     iteration #  8     ecut=    15.00 Ry     beta= 0.70
     Davidson diagonalization with overlap
     ethr =  2.93E-10,  avg # of iterations =  3.0

     negative rho (up, down):  1.604E-03 0.000E+00

     total cpu time spent up to now is        1.0 secs

     End of self-consistent calculation

          k = 0.0000 0.0000 0.0000 (   113 PWs)   bands (ev):

     6.0988   9.8819   9.8819   9.8819  11.4938  11.4938  32.2894  35.3146
    35.3146  35.3146

     the Fermi energy is    11.5587 ev

!    total energy              =     -85.82318087 Ry
     Harris-Foulkes estimate   =     -85.82318084 Ry
     estimated scf accuracy    <          2.6E-09 Ry

     The total energy is the sum of the following terms:

     one-electron contribution =      10.95758087 Ry
     hartree contribution      =       6.61619626 Ry
     xc contribution           =     -31.43358454 Ry
     ewald contribution        =     -71.95438538 Ry
     smearing contrib. (-TS)   =      -0.00898808 Ry

     convergence has been achieved in   8 iterations

     negative rho (up, down):  1.604E-03 0.000E+00

     Forces acting on atoms (cartesian axes, Ry/au):

     atom    1 type  1   force =     0.00000000    0.00000000    0.00000000

     Total force =     0.000000     Total SCF correction =     0.000000


     Computing stress (Cartesian axis) and pressure


     negative rho (up, down):  1.604E-03 0.000E+00
          total   stress  (Ry/bohr**3)                   (kbar)     P=-2295.44
  -0.01560407   0.00000000   0.00000000      -2295.44      0.00      0.00
   0.00000000  -0.01560407   0.00000000          0.00  -2295.44      0.00
   0.00000000   0.00000000  -0.01560407          0.00      0.00  -2295.44


     Writing output data file Au.save/

     init_run     :      0.09s CPU      0.09s WALL (       1 calls)
     electrons    :      0.07s CPU      0.09s WALL (       1 calls)
     forces       :      0.01s CPU      0.01s WALL (       1 calls)
     stress       :      0.02s CPU      0.02s WALL (       1 calls)

     Called by init_run:
     wfcinit      :      0.00s CPU      0.00s WALL (       1 calls)
     potinit      :      0.00s CPU      0.00s WALL (       1 calls)
     hinit0       :      0.08s CPU      0.08s WALL (       1 calls)

     Called by electrons:
     c_bands      :      0.03s CPU      0.03s WALL (       8 calls)
     sum_band     :      0.02s CPU      0.02s WALL (       8 calls)
     v_of_rho     :      0.01s CPU      0.01s WALL (       9 calls)
     newd         :      0.01s CPU      0.01s WALL (       9 calls)
     mix_rho      :      0.00s CPU      0.00s WALL (       8 calls)

     Called by c_bands:
     init_us_2    :      0.00s CPU      0.00s WALL (      17 calls)
     cegterg      :      0.03s CPU      0.03s WALL (       8 calls)

     Called by sum_band:
     sum_band:bec :      0.00s CPU      0.00s WALL (       8 calls)
     addusdens    :      0.01s CPU      0.01s WALL (       8 calls)

     Called by *egterg:
     h_psi        :      0.02s CPU      0.02s WALL (      34 calls)
     s_psi        :      0.00s CPU      0.00s WALL (      34 calls)
     g_psi        :      0.00s CPU      0.00s WALL (      25 calls)
     cdiaghg      :      0.01s CPU      0.01s WALL (      33 calls)

     Called by h_psi:
     h_psi:pot    :      0.02s CPU      0.02s WALL (      34 calls)
     h_psi:calbec :      0.00s CPU      0.00s WALL (      34 calls)
     vloc_psi     :      0.01s CPU      0.02s WALL (      34 calls)
     add_vuspsi   :      0.00s CPU      0.00s WALL (      34 calls)

     General routines
     calbec       :      0.00s CPU      0.00s WALL (      47 calls)
     fft          :      0.01s CPU      0.01s WALL (     125 calls)
     ffts         :      0.00s CPU      0.00s WALL (       8 calls)
     fftw         :      0.02s CPU      0.02s WALL (     606 calls)

     Parallel routines
     fft_scatt_xy :      0.00s CPU      0.00s WALL (     739 calls)
     fft_scatt_yz :      0.01s CPU      0.01s WALL (     739 calls)

     PWSCF        :     1.00s CPU         1.05s WALL


   This run was terminated on:  11:16:11  26Mar2024            

=------------------------------------------------------------------------------=
   JOB DONE.
=------------------------------------------------------------------------------=
